/*--------------------------------*- C++ -*----------------------------------*\
  =========                 |
  \\      /  F ield         | OpenFOAM: The Open Source CFD Toolbox
   \\    /   O peration     | Website:  https://openfoam.org
    \\  /    A nd           | Version:  10
     \\/     M anipulation  |
\*---------------------------------------------------------------------------*/
FoamFile
{
    format      ascii;
    class       surfaceScalarField;
    location    "0.28";
    object      phi;
}
// * * * * * * * * * * * * * * * * * * * * * * * * * * * * * * * * * * * * * //

dimensions      [1 0 -1 0 0 0 0];

internalField   nonuniform List<scalar> 
8154
(
-5.83261e-09
-2.21464e-08
-5.69618e-08
-9.21347e-08
-1.71844e-07
-2.26227e-07
-3.69943e-07
-4.53526e-07
-6.73829e-07
-8.13444e-07
-1.10485e-06
-1.33829e-06
-1.66857e-06
-2.02715e-06
-2.35996e-06
-2.86634e-06
-3.2569e-06
-3.98423e-06
-4.55688e-06
-5.50719e-06
-6.82445e-06
-7.24495e-06
-6.84458e-06
-0.000277439
-0.000832369
2.40085e-08
-0.00138746
9.61815e-08
-0.00194288
2.13123e-07
-0.00249867
3.77806e-07
-0.00305503
5.768e-07
-0.00361202
8.23279e-07
-0.00416973
1.08844e-06
-0.00472845
1.39825e-06
-0.0052879
1.71181e-06
-0.00584878
2.05658e-06
-0.00641056
2.40228e-06
-0.00697377
2.74741e-06
-0.00753866
3.11985e-06
-0.0081041
3.43664e-06
-0.00867313
3.85118e-06
-0.00924022
4.12635e-06
-0.0098149
4.57276e-06
-0.0103832
4.92663e-06
-0.0109646
5.14382e-06
-0.0115338
5.28285e-06
-0.0121235
5.11703e-06
-0.0126948
4.03813e-06
-0.013293
2.45554e-06
-0.000277463
-0.000832441
2.63141e-08
-0.00138758
1.04696e-07
-0.00194305
2.34472e-07
-0.00249887
4.09842e-07
-0.00305528
6.34683e-07
-0.00361229
8.8929e-07
-0.00417004
1.19462e-06
-0.00472876
1.5016e-06
-0.00528825
1.86764e-06
-0.00584913
2.19113e-06
-0.00641091
2.59281e-06
-0.00697415
2.89209e-06
-0.00753897
3.29866e-06
-0.00810452
3.54e-06
-0.0086734
3.90576e-06
-0.00924066
4.10518e-06
-0.00981524
4.38938e-06
-0.0103834
5.00367e-06
-0.0109647
4.67139e-06
-0.0115336
5.23669e-06
-0.0121224
5.3323e-06
-0.0126932
5.04661e-06
-0.0132905
4.23626e-06
-0.000277489
-0.000832519
2.12437e-08
-0.00138771
8.47841e-08
-0.00194322
1.87756e-07
-0.00249909
3.30133e-07
-0.00305553
5.01295e-07
-0.00361259
7.0702e-07
-0.00417034
9.22593e-07
-0.00472913
1.16686e-06
-0.00528857
1.39471e-06
-0.00584953
1.64224e-06
-0.00641121
1.84585e-06
-0.00697455
2.04922e-06
-0.00753921
2.19723e-06
-0.00810488
2.28489e-06
-0.0086736
2.3556e-06
-0.00924095
2.2072e-06
-0.00981585
2.34337e-06
-0.0103831
1.901e-06
-0.0109653
1.78974e-06
-0.0115337
1.39547e-06
-0.0121221
1.15257e-06
-0.0126924
7.25651e-07
-0.0132863
5.25203e-07
-0.00027751
-0.000832583
2.54715e-08
-0.00138781
1.01718e-07
-0.00194337
2.25683e-07
-0.00249927
3.97362e-07
-0.00305574
6.04996e-07
-0.00361281
8.55307e-07
-0.00417059
1.11939e-06
-0.00472936
1.42098e-06
-0.00528882
1.70301e-06
-0.00584973
2.01726e-06
-0.00641141
2.27168e-06
-0.0069747
2.54786e-06
-0.0075393
2.73372e-06
-0.00810496
2.89638e-06
-0.00867346
2.98753e-06
-0.00924108
2.89879e-06
-0.0098154
2.97472e-06
-0.010383
2.28529e-06
-0.0109649
2.52525e-06
-0.0115335
1.72832e-06
-0.0121217
1.20245e-06
-0.0126922
3.84541e-07
-0.0132858
-1.6269e-07
-0.000277536
-0.000832659
3.35803e-08
-0.00138794
1.3406e-07
-0.00194354
2.98799e-07
-0.00249947
5.25974e-07
-0.00305599
8.07314e-07
-0.00361307
1.14132e-06
-0.00417089
1.51185e-06
-0.00472964
1.91951e-06
-0.00528914
2.33949e-06
-0.00584999
2.7737e-06
-0.00641169
3.19379e-06
-0.00697488
3.59558e-06
-0.00753946
3.96441e-06
-0.00810505
4.2602e-06
-0.00867337
4.52453e-06
-0.00924116
4.61645e-06
-0.00981471
4.73156e-06
-0.0103832
4.40265e-06
-0.0109641
4.37173e-06
-0.011533
3.67534e-06
-0.0121209
3.2081e-06
-0.0126917
2.27418e-06
-0.0132859
1.35617e-06
-0.000277569
-0.00083276
3.7501e-08
-0.0013881
1.49718e-07
-0.00194376
3.33989e-07
-0.00249975
5.87993e-07
-0.00305632
9.03758e-07
-0.00361344
1.27803e-06
-0.0041713
1.69607e-06
-0.00473006
2.15427e-06
-0.00528957
2.63137e-06
-0.00585041
3.12132e-06
-0.00641209
3.60212e-06
-0.00697525
4.05791e-06
-0.00753976
4.48208e-06
-0.00810531
4.82308e-06
-0.00867346
5.12651e-06
-0.00924127
5.2513e-06
-0.00981437
5.371e-06
-0.0103832
5.08454e-06
-0.0109634
4.97111e-06
-0.0115325
4.21844e-06
-0.0121199
3.67529e-06
-0.0126907
2.64193e-06
-0.0132846
1.61723e-06
-0.000277607
-0.000832872
4.13368e-08
-0.00138829
1.65039e-07
-0.00194402
3.68286e-07
-0.00250007
6.48498e-07
-0.00305669
9.97277e-07
-0.00361386
1.41093e-06
-0.00417175
1.87393e-06
-0.00473054
2.38219e-06
-0.00529006
2.91274e-06
-0.00585089
3.45938e-06
-0.00641255
3.99634e-06
-0.00697568
4.50893e-06
-0.0075401
4.98303e-06
-0.00810562
5.37239e-06
-0.00867359
5.70963e-06
-0.00924139
5.86412e-06
-0.00981408
5.99902e-06
-0.0103831
5.72121e-06
-0.0109627
5.59936e-06
-0.0115319
4.81205e-06
-0.0121189
4.20354e-06
-0.0126897
2.99138e-06
-0.013283
1.79642e-06
-0.000277648
-0.000832996
4.50389e-08
-0.00138849
1.79804e-07
-0.0019443
4.01292e-07
-0.00250042
7.06506e-07
-0.00305711
1.08676e-06
-0.00361432
1.53747e-06
-0.00417226
2.04303e-06
-0.00473107
2.59779e-06
-0.00529061
3.17909e-06
-0.00585142
3.77806e-06
-0.00641306
4.36924e-06
-0.00697615
4.93407e-06
-0.00754048
5.4574e-06
-0.00810596
5.89035e-06
-0.00867374
6.26032e-06
-0.00924153
6.4427e-06
-0.0098138
6.58264e-06
-0.010383
6.33138e-06
-0.0109619
6.17538e-06
-0.0115313
5.37678e-06
-0.0121177
4.83275e-06
-0.0126885
3.36378e-06
-0.0132812
2.01318e-06
-0.000277693
-0.00083313
4.86957e-08
-0.00138871
1.94375e-07
-0.0019446
4.33802e-07
-0.0025008
7.63532e-07
-0.00305756
1.17442e-06
-0.00361483
1.66109e-06
-0.00417282
2.20748e-06
-0.00473165
2.80684e-06
-0.00529121
3.43621e-06
-0.00585202
4.08516e-06
-0.00641362
4.72759e-06
-0.00697667
5.34285e-06
-0.00754091
5.91335e-06
-0.00810633
6.38888e-06
-0.00867393
6.79022e-06
-0.00924167
6.99774e-06
-0.00981354
7.13767e-06
-0.0103828
6.90568e-06
-0.0109611
6.72519e-06
-0.0115307
5.89365e-06
-0.0121163
4.87664e-06
-0.0126872
3.69462e-06
-0.0132792
2.20408e-06
-0.000277742
-0.000833276
5.23049e-08
-0.00138895
2.08751e-07
-0.00194493
4.65853e-07
-0.00250121
8.19689e-07
-0.00305805
1.26059e-06
-0.00361537
1.7823e-06
-0.00417342
2.36819e-06
-0.00473228
3.01037e-06
-0.00529185
3.6854e-06
-0.00585266
4.38154e-06
-0.00641424
5.07206e-06
-0.00697724
5.73477e-06
-0.00754139
6.34996e-06
-0.00810673
6.8664e-06
-0.00867414
7.29851e-06
-0.00924181
7.52925e-06
-0.0098133
7.66791e-06
-0.0103827
7.44986e-06
-0.0109603
7.24928e-06
-0.0115301
6.4003e-06
-0.0121147
5.59814e-06
-0.0126857
4.03489e-06
-0.013277
2.39966e-06
-0.000277794
-0.000833432
5.58799e-08
-0.00138921
2.22995e-07
-0.00194529
4.97615e-07
-0.00250165
8.75359e-07
-0.00305857
1.34598e-06
-0.00361596
1.90235e-06
-0.00417406
2.52708e-06
-0.00473295
3.21108e-06
-0.00529255
3.93015e-06
-0.00585335
4.67136e-06
-0.0064149
5.40707e-06
-0.00697786
6.11417e-06
-0.0075419
6.77088e-06
-0.00810716
7.3259e-06
-0.00867437
7.78798e-06
-0.00924195
8.04308e-06
-0.00981308
8.18757e-06
-0.0103825
7.97193e-06
-0.0109594
7.74405e-06
-0.0115292
6.86297e-06
-0.0121132
6.01023e-06
-0.012684
4.35604e-06
-0.0132745
2.58434e-06
-0.00027785
-0.0008336
5.9412e-08
-0.00138948
2.37075e-07
-0.00194566
5.2904e-07
-0.00250212
9.30507e-07
-0.00305912
1.43066e-06
-0.00361659
2.02151e-06
-0.00417474
2.68479e-06
-0.00473367
3.41016e-06
-0.00529329
4.17234e-06
-0.00585408
4.95712e-06
-0.00641561
5.73566e-06
-0.00697851
6.48416e-06
-0.00754246
7.17878e-06
-0.00810762
7.76885e-06
-0.00867463
8.25801e-06
-0.00924209
8.53592e-06
-0.00981287
8.68695e-06
-0.0103822
8.46903e-06
-0.0109585
8.20662e-06
-0.0115284
7.28826e-06
-0.0121116
6.37679e-06
-0.0126822
4.65086e-06
-0.013272
2.75453e-06
-0.000277909
-0.000833777
6.28994e-08
-0.00138978
2.50982e-07
-0.00194607
5.60109e-07
-0.00250262
9.85105e-07
-0.00305971
1.51462e-06
-0.00361725
2.13986e-06
-0.00417547
2.84162e-06
-0.00473443
3.60829e-06
-0.00529408
4.41328e-06
-0.00585486
5.24095e-06
-0.00641636
6.06089e-06
-0.00697921
6.84852e-06
-0.00754305
7.57784e-06
-0.00810811
8.19921e-06
-0.00867491
8.7118e-06
-0.00924225
9.00938e-06
-0.00981265
9.16442e-06
-0.010382
8.94701e-06
-0.0109576
8.64498e-06
-0.0115275
7.68095e-06
-0.0121098
6.70893e-06
-0.0126803
4.89415e-06
-0.0132692
2.90158e-06
-0.000277972
-0.000833965
6.63432e-08
-0.00139008
2.64716e-07
-0.00194649
5.90798e-07
-0.00250315
1.03907e-06
-0.00306034
1.59768e-06
-0.00361795
2.25709e-06
-0.00417623
2.9972e-06
-0.00473524
3.80514e-06
-0.0052949
4.65293e-06
-0.00585568
5.52334e-06
-0.00641714
6.38414e-06
-0.00697993
7.20964e-06
-0.00754367
7.97139e-06
-0.00810863
8.62072e-06
-0.0086752
9.15267e-06
-0.0092424
9.46589e-06
-0.00981243
9.62333e-06
-0.0103817
9.40825e-06
-0.0109566
9.06447e-06
-0.0115265
8.05585e-06
-0.012108
7.01387e-06
-0.0126783
5.05302e-06
-0.0132663
3.02771e-06
-0.000278038
-0.000834164
6.975e-08
-0.00139041
2.78295e-07
-0.00194694
6.21121e-07
-0.00250371
1.09236e-06
-0.003061
1.67968e-06
-0.00361869
2.37283e-06
-0.00417704
3.15087e-06
-0.00473609
3.9998e-06
-0.00529577
4.89026e-06
-0.00585654
5.80344e-06
-0.00641797
6.70513e-06
-0.0069807
7.56827e-06
-0.00754432
8.3616e-06
-0.00810916
9.03691e-06
-0.00867552
9.58482e-06
-0.00924256
9.90886e-06
-0.00981222
1.00647e-05
-0.0103813
9.8494e-06
-0.0109556
9.46487e-06
-0.0115254
8.41799e-06
-0.0121061
7.31269e-06
-0.0126763
5.27284e-06
-0.0132633
3.16022e-06
-0.000278108
-0.000834372
7.31227e-08
-0.00139075
2.9173e-07
-0.00194741
6.51081e-07
-0.0025043
1.14492e-06
-0.00306169
1.76039e-06
-0.00361947
2.48659e-06
-0.00417789
3.30178e-06
-0.00473698
4.19095e-06
-0.00529669
5.12347e-06
-0.00585744
6.07912e-06
-0.00641883
7.02177e-06
-0.00698149
7.92283e-06
-0.00754499
8.74812e-06
-0.00810971
9.44924e-06
-0.00867584
1.0012e-05
-0.00924272
1.03436e-05
-0.009812
1.04912e-05
-0.0103809
1.02629e-05
-0.0109546
9.84426e-06
-0.0115243
8.7601e-06
-0.012104
7.59422e-06
-0.0126742
5.49078e-06
-0.0132601
3.28359e-06
-0.000278181
-0.000834591
7.64521e-08
-0.00139111
3.0498e-07
-0.0019479
6.80573e-07
-0.00250491
1.19654e-06
-0.00306242
1.83945e-06
-0.00362029
2.59773e-06
-0.00417878
3.44887e-06
-0.00473791
4.37695e-06
-0.00529764
5.35027e-06
-0.00585839
6.34739e-06
-0.00641973
7.3305e-06
-0.00698231
8.26955e-06
-0.00754569
9.12758e-06
-0.00811027
9.85558e-06
-0.00867617
1.04344e-05
-0.00924287
1.07739e-05
-0.00981178
1.09122e-05
-0.0103805
1.0667e-05
-0.0109535
1.02134e-05
-0.0115232
9.09302e-06
-0.012102
7.86519e-06
-0.012672
5.69114e-06
-0.0132568
3.39893e-06
-0.000278258
-0.000834819
7.97125e-08
-0.00139149
3.17943e-07
-0.00194842
7.09384e-07
-0.00250556
1.24686e-06
-0.00306318
1.91634e-06
-0.00362114
2.70551e-06
-0.00417971
3.59107e-06
-0.00473888
4.55631e-06
-0.00529864
5.56854e-06
-0.00585937
6.60535e-06
-0.00642067
7.62754e-06
-0.00698317
8.60389e-06
-0.00754642
9.49495e-06
-0.00811085
1.0251e-05
-0.00867651
1.08482e-05
-0.00924301
1.11978e-05
-0.00981153
1.13289e-05
-0.0103801
1.10689e-05
-0.0109524
1.0576e-05
-0.0115219
9.42226e-06
-0.0120998
8.13322e-06
-0.0126697
5.8856e-06
-0.0132534
3.50845e-06
-0.000278337
-0.000835057
8.28462e-08
-0.00139188
3.30399e-07
-0.00194896
7.37057e-07
-0.00250623
1.29516e-06
-0.00306397
1.99003e-06
-0.00362202
2.80863e-06
-0.00418067
3.72683e-06
-0.00473989
4.72709e-06
-0.00529968
5.7758e-06
-0.00586039
6.8498e-06
-0.00642164
7.9087e-06
-0.00698406
8.92051e-06
-0.00754717
9.84375e-06
-0.00811145
1.06282e-05
-0.00867686
1.12458e-05
-0.00924315
1.16085e-05
-0.00981127
1.17364e-05
-0.0103796
1.14643e-05
-0.0109512
1.09319e-05
-0.0115206
9.75168e-06
-0.0120975
8.40395e-06
-0.0126673
6.07969e-06
-0.0132499
3.61498e-06
-0.00027842
-0.000835305
8.57765e-08
-0.00139229
3.42052e-07
-0.00194952
7.62971e-07
-0.00250692
1.34043e-06
-0.00306478
2.05918e-06
-0.00362294
2.9054e-06
-0.00418167
3.85416e-06
-0.00474094
4.88705e-06
-0.00530075
5.96952e-06
-0.00586145
7.0777e-06
-0.00642266
8.17022e-06
-0.00698498
9.21453e-06
-0.00754796
1.01676e-05
-0.00811207
1.09792e-05
-0.00867723
1.16179e-05
-0.00924328
1.19964e-05
-0.009811
1.21263e-05
-0.010379
1.18467e-05
-0.0109501
1.12792e-05
-0.0115193
1.00805e-05
-0.0120952
8.67944e-06
-0.0126649
6.27968e-06
-0.0132463
3.72235e-06
-0.000278506
-0.000835561
8.84144e-08
-0.00139271
3.52558e-07
-0.00195009
7.86389e-07
-0.00250764
1.38147e-06
-0.00306563
2.12205e-06
-0.00362389
2.99365e-06
-0.0041827
3.97052e-06
-0.00474203
5.03336e-06
-0.00530186
6.14664e-06
-0.00586254
7.28574e-06
-0.0064237
8.40832e-06
-0.00698593
9.48142e-06
-0.00754877
1.04609e-05
-0.0081127
1.12966e-05
-0.00867761
1.19549e-05
-0.00924341
1.23496e-05
-0.00981072
1.24854e-05
-0.0103785
1.22057e-05
-0.0109489
1.16177e-05
-0.0115179
1.0401e-05
-0.0120928
8.95195e-06
-0.0126623
6.48654e-06
-0.0132425
3.83315e-06
-0.000278594
-0.000835825
9.06744e-08
-0.00139314
3.61577e-07
-0.00195069
8.06566e-07
-0.00250838
1.41699e-06
-0.0030665
2.17676e-06
-0.00362487
3.07086e-06
-0.00418377
4.07282e-06
-0.00474314
5.16251e-06
-0.005303
6.30337e-06
-0.00586367
7.46992e-06
-0.00642477
8.61884e-06
-0.00698691
9.71668e-06
-0.00754961
1.07183e-05
-0.00811336
1.1574e-05
-0.008678
1.22481e-05
-0.00924355
1.26565e-05
-0.00981045
1.27983e-05
-0.0103779
1.25224e-05
-0.0109476
1.19249e-05
-0.0115164
1.06916e-05
-0.0120904
9.20204e-06
-0.0126597
6.69049e-06
-0.0132387
3.94426e-06
-0.000278685
-0.000836096
9.24867e-08
-0.00139359
3.68828e-07
-0.0019513
8.22857e-07
-0.00250914
1.44584e-06
-0.0030674
2.22149e-06
-0.00362587
3.13445e-06
-0.00418486
4.15771e-06
-0.00474428
5.27042e-06
-0.00530416
6.43507e-06
-0.00586481
7.62532e-06
-0.00642587
8.7967e-06
-0.00698791
9.91512e-06
-0.00755046
1.09345e-05
-0.00811404
1.18053e-05
-0.00867841
1.24908e-05
-0.0092437
1.29084e-05
-0.00981017
1.30533e-05
-0.0103773
1.27791e-05
-0.0109464
1.21714e-05
-0.011515
1.09285e-05
-0.0120879
9.40426e-06
-0.012657
6.86548e-06
-0.0132347
4.03988e-06
-0.000278777
-0.000836372
9.3804e-08
-0.00139404
3.74112e-07
-0.00195192
8.34781e-07
-0.00250992
1.46707e-06
-0.00306831
2.25467e-06
-0.00362689
3.18204e-06
-0.00418597
4.22185e-06
-0.00474544
5.35276e-06
-0.00530535
6.53652e-06
-0.00586599
7.74601e-06
-0.00642699
8.93556e-06
-0.00698893
1.00704e-05
-0.00755133
1.11031e-05
-0.00811472
1.19843e-05
-0.00867883
1.26761e-05
-0.00924384
1.30979e-05
-0.0098099
1.32417e-05
-0.0103767
1.29658e-05
-0.0109451
1.23461e-05
-0.0115134
1.10964e-05
-0.0120854
9.53116e-06
-0.0126542
6.9673e-06
-0.0132306
4.08797e-06
-0.000278871
-0.000836653
9.46155e-08
-0.0013945
3.77375e-07
-0.00195255
8.42175e-07
-0.0025107
1.48032e-06
-0.00306924
2.27553e-06
-0.00362793
3.21227e-06
-0.0041871
4.26308e-06
-0.00474663
5.40651e-06
-0.00530656
6.6037e-06
-0.00586718
7.82727e-06
-0.00642812
9.03015e-06
-0.00698996
1.01773e-05
-0.00755222
1.12192e-05
-0.00811541
1.21074e-05
-0.00867925
1.28006e-05
-0.00924399
1.32227e-05
-0.00980963
1.33597e-05
-0.010376
1.30789e-05
-0.0109439
1.24452e-05
-0.0115119
1.11908e-05
-0.0120828
9.57251e-06
-0.0126513
6.95789e-06
-0.0132265
4.06487e-06
-0.000278966
-0.000836936
9.53023e-08
-0.00139496
3.80131e-07
-0.00195319
8.48411e-07
-0.0025115
1.49148e-06
-0.00307017
2.29312e-06
-0.00362898
3.23789e-06
-0.00418824
4.29839e-06
-0.00474782
5.45328e-06
-0.00530779
6.66357e-06
-0.00586838
7.9018e-06
-0.00642927
9.1202e-06
-0.00699101
1.02833e-05
-0.00755311
1.134e-05
-0.0081161
1.22414e-05
-0.00867968
1.29442e-05
-0.00924413
1.33738e-05
-0.00980935
1.35128e-05
-0.0103754
1.32344e-05
-0.0109426
1.25953e-05
-0.0115102
1.13428e-05
-0.0120802
9.68986e-06
-0.0126484
7.04751e-06
-0.0132225
4.17544e-06
-0.000279061
-0.00083722
9.55972e-08
-0.00139543
3.81314e-07
-0.00195384
8.51085e-07
-0.0025123
1.49626e-06
-0.00307112
2.30069e-06
-0.00363004
3.24903e-06
-0.0041894
4.31409e-06
-0.00474903
5.47475e-06
-0.00530903
6.69233e-06
-0.0058696
7.93959e-06
-0.00643044
9.16876e-06
-0.00699206
1.0344e-05
-0.00755401
1.14139e-05
-0.00811681
1.2328e-05
-0.0086801
1.30416e-05
-0.00924427
1.34795e-05
-0.00980908
1.36226e-05
-0.0103747
1.33469e-05
-0.0109414
1.27025e-05
-0.0115086
1.14496e-05
-0.0120776
9.78075e-06
-0.0126455
7.13657e-06
-0.0132183
4.3555e-06
-0.000279157
-0.000837506
9.53901e-08
-0.0013959
3.80485e-07
-0.00195448
8.49226e-07
-0.0025131
1.49297e-06
-0.00307207
2.29562e-06
-0.0036311
3.24194e-06
-0.00419056
4.30497e-06
-0.00475025
5.46394e-06
-0.00531027
6.68059e-06
-0.00587083
7.9283e-06
-0.00643161
9.15976e-06
-0.00699313
1.03395e-05
-0.00755492
1.14162e-05
-0.00811752
1.23386e-05
-0.00868054
1.30606e-05
-0.00924441
1.3506e-05
-0.0098088
1.36526e-05
-0.0103741
1.33785e-05
-0.0109401
1.27273e-05
-0.0115069
1.14749e-05
-0.0120749
9.80201e-06
-0.0126426
7.15502e-06
-0.0132141
3.97697e-06
-0.000279252
-0.000837791
9.47178e-08
-0.00139637
3.77801e-07
-0.00195512
8.43221e-07
-0.00251391
1.48237e-06
-0.00307301
2.27923e-06
-0.00363217
3.2187e-06
-0.00419172
4.27402e-06
-0.00475147
5.42482e-06
-0.00531152
6.63326e-06
-0.00587206
7.87352e-06
-0.00643279
9.09904e-06
-0.00699421
1.02754e-05
-0.00755585
1.13518e-05
-0.00811824
1.22776e-05
-0.00868099
1.30056e-05
-0.00924456
1.34589e-05
-0.00980853
1.36117e-05
-0.0103734
1.33422e-05
-0.0109388
1.26864e-05
-0.0115053
1.14304e-05
-0.0120723
9.7514e-06
-0.0126397
7.13941e-06
-0.0132098
3.94309e-06
-0.000279347
-0.000838074
9.36066e-08
-0.00139684
3.73375e-07
-0.00195576
8.33353e-07
-0.0025147
1.46504e-06
-0.00307395
2.25256e-06
-0.00363322
3.18105e-06
-0.00419287
4.22397e-06
-0.00475268
5.3613e-06
-0.00531276
6.55559e-06
-0.00587328
7.78177e-06
-0.00643397
8.99409e-06
-0.00699528
1.01594e-05
-0.00755677
1.12281e-05
-0.00811897
1.21509e-05
-0.00868144
1.28809e-05
-0.00924471
1.33414e-05
-0.00980825
1.35044e-05
-0.0103728
1.32468e-05
-0.0109376
1.25967e-05
-0.0115036
1.13437e-05
-0.0120697
9.64396e-06
-0.0126368
7.09059e-06
-0.0132055
4.19585e-06
-0.000279441
-0.000838354
9.20831e-08
-0.0013973
3.67315e-07
-0.00195639
8.19884e-07
-0.00251549
1.44149e-06
-0.00307488
2.21652e-06
-0.00363426
3.13045e-06
-0.004194
4.15709e-06
-0.00475387
5.27677e-06
-0.00531399
6.4524e-06
-0.0058745
7.65955e-06
-0.00643514
8.85306e-06
-0.00699635
1.00011e-05
-0.0075577
1.1055e-05
-0.00811971
1.19678e-05
-0.00868189
1.26935e-05
-0.00924487
1.31579e-05
-0.00980799
1.33322e-05
-0.0103721
1.3093e-05
-0.0109363
1.24631e-05
-0.0115019
1.12327e-05
-0.0120671
9.5415e-06
-0.0126338
7.0138e-06
-0.0132014
4.1649e-06
-0.000279533
-0.000838629
9.01864e-08
-0.00139775
3.59777e-07
-0.00195702
8.03151e-07
-0.00251626
1.41229e-06
-0.00307579
2.172e-06
-0.00363529
3.06823e-06
-0.00419512
4.0753e-06
-0.00475505
5.17401e-06
-0.0053152
6.32767e-06
-0.00587569
7.51243e-06
-0.00643628
8.68352e-06
-0.0069974
9.80998e-06
-0.00755861
1.08438e-05
-0.00812043
1.17405e-05
-0.00868236
1.24551e-05
-0.00924505
1.2917e-05
-0.00980775
1.30986e-05
-0.0103715
1.28788e-05
-0.0109351
1.22778e-05
-0.0115002
1.10863e-05
-0.0120646
9.4312e-06
-0.012631
6.93451e-06
-0.0131972
4.11889e-06
-0.000279623
-0.000838899
8.7974e-08
-0.00139819
3.50984e-07
-0.00195763
7.83626e-07
-0.00251702
1.37823e-06
-0.00307669
2.12013e-06
-0.0036363
2.99587e-06
-0.00419622
3.98045e-06
-0.0047562
5.05537e-06
-0.00531638
6.18449e-06
-0.00587686
7.34465e-06
-0.00643741
8.49133e-06
-0.00699844
9.5942e-06
-0.00755951
1.06053e-05
-0.00812115
1.1482e-05
-0.00868281
1.21801e-05
-0.00924523
1.26328e-05
-0.00980753
1.28147e-05
-0.0103709
1.26091e-05
-0.0109339
1.20371e-05
-0.0114986
1.08921e-05
-0.0120621
9.28779e-06
-0.0126282
6.85349e-06
-0.0131931
4.06453e-06
-0.000279711
-0.000839162
8.55193e-08
-0.00139862
3.4122e-07
-0.00195822
7.61921e-07
-0.00251776
1.34032e-06
-0.00307757
2.06232e-06
-0.00363728
2.91515e-06
-0.0041973
3.87464e-06
-0.00475733
4.92314e-06
-0.00531754
6.02544e-06
-0.00587801
7.15917e-06
-0.00643852
8.28032e-06
-0.00699945
9.35901e-06
-0.00756038
1.0347e-05
-0.00812185
1.1203e-05
-0.00868326
1.18826e-05
-0.00924541
1.23222e-05
-0.00980733
1.24974e-05
-0.0103703
1.22973e-05
-0.0109328
1.17468e-05
-0.011497
1.0646e-05
-0.0120597
9.10531e-06
-0.0126254
6.77134e-06
-0.013189
4.00457e-06
-0.000279796
-0.000839417
8.29035e-08
-0.00139904
3.30804e-07
-0.0019588
7.38726e-07
-0.00251849
1.29972e-06
-0.00307842
2.00023e-06
-0.00363824
2.82823e-06
-0.00419835
3.76036e-06
-0.00475843
4.78001e-06
-0.00531868
5.85312e-06
-0.00587913
6.95849e-06
-0.0064396
8.05285e-06
-0.00700044
9.10704e-06
-0.00756124
1.00726e-05
-0.00812254
1.09094e-05
-0.0086837
1.15724e-05
-0.00924559
1.19994e-05
-0.00980713
1.21652e-05
-0.0103698
1.19642e-05
-0.0109317
1.14229e-05
-0.0114954
1.0352e-05
-0.0120574
8.87094e-06
-0.0126226
6.64424e-06
-0.013185
3.9276e-06
-0.000279879
-0.000839665
8.02013e-08
-0.00139945
3.20033e-07
-0.00195936
7.14698e-07
-0.00251919
1.25755e-06
-0.00307925
1.93554e-06
-0.00363917
2.73731e-06
-0.00419937
3.64031e-06
-0.0047595
4.62899e-06
-0.00531978
5.67054e-06
-0.00588022
6.74522e-06
-0.00644065
7.81086e-06
-0.0070014
8.83938e-06
-0.00756208
9.7827e-06
-0.0081232
1.0602e-05
-0.00868412
1.12519e-05
-0.00924576
1.16705e-05
-0.00980693
1.18309e-05
-0.0103692
1.16297e-05
-0.0109306
1.1092e-05
-0.0114939
1.00367e-05
-0.0120551
8.58778e-06
-0.0126199
6.41641e-06
-0.0131811
3.81719e-06
-0.000279959
-0.000839905
7.74696e-08
-0.00139985
3.09135e-07
-0.0019599
6.90349e-07
-0.00251986
1.21473e-06
-0.00308005
1.86967e-06
-0.00364007
2.64438e-06
-0.00420035
3.51702e-06
-0.00476054
4.47307e-06
-0.00532086
5.48092e-06
-0.00588129
6.52238e-06
-0.00644168
7.55666e-06
-0.00700235
8.55703e-06
-0.0075629
9.47651e-06
-0.00812385
1.02783e-05
-0.00868454
1.09175e-05
-0.00924592
1.13324e-05
-0.00980673
1.14948e-05
-0.0103687
1.13009e-05
-0.0109296
1.07735e-05
-0.0114925
9.7341e-06
-0.0120529
8.30879e-06
-0.0126173
6.1843e-06
-0.0131773
3.67389e-06
-0.000280037
-0.000840136
7.47394e-08
-0.00140023
2.98236e-07
-0.00196043
6.65976e-07
-0.00252052
1.17181e-06
-0.00308082
1.80349e-06
-0.00364095
2.55076e-06
-0.00420131
3.39233e-06
-0.00476155
4.31461e-06
-0.0053219
5.28709e-06
-0.00588232
6.29302e-06
-0.00644268
7.29297e-06
-0.00700327
8.26178e-06
-0.0075637
9.15397e-06
-0.0081245
9.93545e-06
-0.00868495
1.05629e-05
-0.00924609
1.09756e-05
-0.00980654
1.11459e-05
-0.0103682
1.0968e-05
-0.0109285
1.04648e-05
-0.0114911
9.45151e-06
-0.0120508
8.05405e-06
-0.0126148
5.96795e-06
-0.0131736
3.48794e-06
-0.000280112
-0.00084036
7.20102e-08
-0.00140059
2.87339e-07
-0.00196093
6.41594e-07
-0.00252115
1.12884e-06
-0.00308157
1.73716e-06
-0.00364179
2.45674e-06
-0.00420223
3.26681e-06
-0.00476252
4.15455e-06
-0.00532291
5.09043e-06
-0.00588332
6.05891e-06
-0.00644365
7.02175e-06
-0.00700416
7.95533e-06
-0.00756448
8.81583e-06
-0.00812512
9.57206e-06
-0.00868535
1.0183e-05
-0.00924626
1.05895e-05
-0.00980637
1.07677e-05
-0.0103677
1.06095e-05
-0.0109275
1.01448e-05
-0.0114897
9.17468e-06
-0.0120487
7.83177e-06
-0.0126123
5.78891e-06
-0.0131701
3.31423e-06
-0.000280183
-0.000840575
6.92611e-08
-0.00140095
2.76362e-07
-0.00196142
6.17029e-07
-0.00252176
1.08552e-06
-0.00308229
1.67023e-06
-0.0036426
2.36179e-06
-0.00420312
3.13988e-06
-0.00476346
3.99239e-06
-0.00532387
4.89066e-06
-0.00588428
5.82011e-06
-0.00644458
6.74352e-06
-0.00700503
7.63855e-06
-0.00756524
8.46314e-06
-0.00812574
9.18837e-06
-0.00868576
9.7756e-06
-0.00924644
1.01676e-05
-0.00980621
1.0347e-05
-0.0103672
1.02027e-05
-0.0109265
9.78006e-06
-0.0114883
8.86199e-06
-0.0120467
7.60461e-06
-0.0126099
5.64441e-06
-0.0131668
3.28984e-06
-0.000280253
-0.000840782
6.64445e-08
-0.00140129
2.65118e-07
-0.00196189
5.91857e-07
-0.00252234
1.0411e-06
-0.00308298
1.60156e-06
-0.00364338
2.26431e-06
-0.00420398
3.00951e-06
-0.00476436
3.82568e-06
-0.0053248
4.68503e-06
-0.00588521
5.57368e-06
-0.00644548
6.45552e-06
-0.00700585
7.30908e-06
-0.00756596
8.0942e-06
-0.00812632
8.7831e-06
-0.00868615
9.3393e-06
-0.00924663
9.70681e-06
-0.00980606
9.87677e-06
-0.0103668
9.73383e-06
-0.0109256
9.34321e-06
-0.0114871
8.46851e-06
-0.0120447
7.30046e-06
-0.0126075
5.43405e-06
-0.0131635
3.22443e-06
-0.000280319
-0.00084098
6.34947e-08
-0.00140162
2.53332e-07
-0.00196234
5.65457e-07
-0.0025229
9.94484e-07
-0.00308364
1.52942e-06
-0.00364412
2.16185e-06
-0.00420479
2.87241e-06
-0.00476522
3.65036e-06
-0.00532569
4.46849e-06
-0.00588609
5.31398e-06
-0.00644633
6.15119e-06
-0.00700664
6.96063e-06
-0.00756665
7.70225e-06
-0.00812688
8.35131e-06
-0.00868651
8.86846e-06
-0.0092468
9.20474e-06
-0.00980591
9.35126e-06
-0.0103664
9.20026e-06
-0.0109247
8.81843e-06
-0.0114859
7.97628e-06
-0.0120428
6.87308e-06
-0.0126053
5.10062e-06
-0.0131603
3.04127e-06
-0.000280382
-0.00084117
6.06681e-08
-0.00140193
2.42021e-07
-0.00196277
5.4011e-07
-0.00252344
9.49724e-07
-0.00308428
1.46018e-06
-0.00364483
2.06361e-06
-0.00420557
2.74113e-06
-0.00476604
3.4829e-06
-0.00532654
4.26198e-06
-0.00588692
5.06707e-06
-0.00644714
5.86247e-06
-0.00700738
6.63181e-06
-0.0075673
7.33374e-06
-0.0081274
7.94837e-06
-0.00868685
8.42933e-06
-0.00924695
8.73948e-06
-0.00980576
8.86279e-06
-0.0103661
8.70833e-06
-0.0109238
8.32382e-06
-0.0114848
7.51396e-06
-0.0120411
6.44964e-06
-0.0126032
4.7595e-06
-0.0131572
2.81335e-06
-0.000280443
-0.000841351
5.81749e-08
-0.00140222
2.32047e-07
-0.00196317
5.17766e-07
-0.00252395
9.10294e-07
-0.00308488
1.39928e-06
-0.00364551
1.97744e-06
-0.00420631
2.62654e-06
-0.00476682
3.33738e-06
-0.00532734
4.08374e-06
-0.00588772
4.85498e-06
-0.00644791
5.61708e-06
-0.00700808
6.35443e-06
-0.00756791
7.02864e-06
-0.00812788
7.61838e-06
-0.00868716
8.07897e-06
-0.00924707
8.37254e-06
-0.00980559
8.4946e-06
-0.0103657
8.345e-06
-0.010923
7.97779e-06
-0.0114838
7.19783e-06
-0.0120394
6.19102e-06
-0.0126013
4.55592e-06
-0.0131544
2.73588e-06
-0.000280501
-0.000841525
5.54824e-08
-0.00140251
2.21271e-07
-0.00196357
4.9362e-07
-0.00252444
8.67678e-07
-0.00308546
1.33347e-06
-0.00364616
1.88435e-06
-0.00420703
2.50281e-06
-0.00476756
3.18029e-06
-0.00532811
3.89125e-06
-0.00588848
4.62568e-06
-0.00644865
5.3516e-06
-0.00700876
6.05397e-06
-0.0075685
6.69808e-06
-0.00812835
7.26036e-06
-0.00868747
7.69923e-06
-0.00924719
7.97493e-06
-0.00980543
8.09865e-06
-0.0103653
7.95629e-06
-0.0109222
7.60645e-06
-0.0114828
6.85265e-06
-0.0120378
5.89201e-06
-0.0125994
4.3042e-06
-0.0131517
2.65459e-06
-0.000280556
-0.00084169
5.25599e-08
-0.00140278
2.0957e-07
-0.00196394
4.6741e-07
-0.0025249
8.21445e-07
-0.00308601
1.26214e-06
-0.00364678
1.78357e-06
-0.0042077
2.369e-06
-0.00476827
3.0105e-06
-0.00532885
3.68322e-06
-0.0058892
4.37779e-06
-0.00644935
5.0645e-06
-0.0070094
5.72886e-06
-0.00756906
6.34007e-06
-0.00812879
6.8721e-06
-0.00868775
7.28702e-06
-0.00924731
7.54346e-06
-0.00980527
7.67046e-06
-0.010365
7.5396e-06
-0.0109215
7.21426e-06
-0.0114818
6.48942e-06
-0.0120362
5.5686e-06
-0.0125978
4.01193e-06
-0.013149
2.45698e-06
-0.000280609
-0.000841847
4.93803e-08
-0.00140304
1.9684e-07
-0.0019643
4.38916e-07
-0.00252535
7.71242e-07
-0.00308653
1.18481e-06
-0.00364737
1.67447e-06
-0.00420834
2.22434e-06
-0.00476895
2.82714e-06
-0.00532954
3.45876e-06
-0.00588989
4.11036e-06
-0.00645001
4.755e-06
-0.00701001
5.37834e-06
-0.00756958
5.95413e-06
-0.00812921
6.45298e-06
-0.00868803
6.84227e-06
-0.00924743
7.07722e-06
-0.00980513
7.20633e-06
-0.0103647
7.08649e-06
-0.0109208
6.79526e-06
-0.0114809
6.10277e-06
-0.0120346
5.27432e-06
-0.0125963
4.01757e-06
-0.0131466
2.31167e-06
-0.000280658
-0.000841994
4.5921e-08
-0.00140328
1.82989e-07
-0.00196463
4.07944e-07
-0.00252576
7.16748e-07
-0.00308702
1.10099e-06
-0.00364791
1.55642e-06
-0.00420895
2.06802e-06
-0.00476958
2.62923e-06
-0.0053302
3.21677e-06
-0.00589053
3.82225e-06
-0.00645064
4.42204e-06
-0.00701058
5.00136e-06
-0.00757008
5.53942e-06
-0.00812961
6.0024e-06
-0.00868828
6.36567e-06
-0.00924755
6.57808e-06
-0.00980501
6.70689e-06
-0.0103644
6.59159e-06
-0.0109201
6.33148e-06
-0.01148
5.65916e-06
-0.0120331
4.96451e-06
-0.0125948
3.63443e-06
-0.0131443
2.16241e-06
-0.000280704
-0.00084213
4.21717e-08
-0.00140351
1.67972e-07
-0.00196494
3.7438e-07
-0.00252614
6.57756e-07
-0.00308748
1.01038e-06
-0.00364843
1.42894e-06
-0.00420951
1.89934e-06
-0.00477017
2.41584e-06
-0.0053308
2.95623e-06
-0.00589113
3.51233e-06
-0.00645121
4.06455e-06
-0.00701111
4.59668e-06
-0.00757054
5.09474e-06
-0.00812998
5.51879e-06
-0.00868851
5.85694e-06
-0.00924767
6.04742e-06
-0.0098049
6.17702e-06
-0.0103641
6.05865e-06
-0.0109194
5.82473e-06
-0.0114793
5.1577e-06
-0.0120317
4.60162e-06
-0.0125933
3.33662e-06
-0.0131421
1.98571e-06
-0.000280746
-0.000842256
3.81428e-08
-0.00140371
1.51809e-07
-0.00196522
3.38242e-07
-0.0025265
5.94251e-07
-0.0030879
9.12871e-07
-0.0036489
1.29184e-06
-0.00421002
1.71794e-06
-0.00477071
2.18637e-06
-0.00533136
2.67643e-06
-0.00589168
3.17975e-06
-0.00645174
3.68181e-06
-0.0070116
4.16336e-06
-0.00757096
4.61933e-06
-0.00813033
5.0003e-06
-0.00868871
5.31489e-06
-0.00924778
5.48305e-06
-0.00980479
5.61768e-06
-0.0103639
5.48718e-06
-0.0109187
5.33481e-06
-0.0114788
5.00116e-06
-0.0120305
4.09434e-06
-0.012592
3.03088e-06
-0.0131401
1.79758e-06
-0.000280784
-0.000842369
3.38614e-08
-0.0014039
1.34582e-07
-0.00196548
2.99673e-07
-0.00252682
5.26448e-07
-0.00308827
8.08687e-07
-0.00364932
1.14535e-06
-0.00421049
1.52401e-06
-0.0047712
1.94088e-06
-0.00533186
2.37728e-06
-0.00589219
2.82409e-06
-0.00645222
3.27356e-06
-0.00701205
3.70094e-06
-0.00757134
4.11348e-06
-0.00813065
4.44585e-06
-0.00868888
4.7409e-06
-0.00924791
4.88274e-06
-0.00980465
5.02549e-06
-0.0103637
4.85955e-06
-0.010918
4.81934e-06
-0.0114783
4.35236e-06
-0.0120294
3.66513e-06
-0.0125908
2.72808e-06
-0.0131383
1.6196e-06
-0.000280817
-0.000842469
2.93455e-08
-0.00140406
1.16371e-07
-0.0019657
2.58858e-07
-0.0025271
4.54682e-07
-0.00308861
6.98288e-07
-0.0036497
9.90132e-07
-0.0042109
1.31847e-06
-0.00477164
1.68033e-06
-0.00533231
2.05977e-06
-0.00589264
2.44585e-06
-0.00645265
2.84068e-06
-0.00701246
3.20935e-06
-0.00757168
3.57945e-06
-0.00813095
3.85482e-06
-0.00868902
4.14123e-06
-0.00924805
4.24588e-06
-0.00980443
4.42827e-06
-0.0103637
4.56459e-06
-0.0109175
4.14739e-06
-0.0114776
3.76117e-06
-0.0120285
3.20249e-06
-0.0125896
2.39784e-06
-0.0131367
1.42371e-06
-0.000280846
-0.000842556
2.45599e-08
-0.00140421
9.71933e-08
-0.0019659
2.15974e-07
-0.00252734
3.79417e-07
-0.0030889
5.82492e-07
-0.00365003
8.27337e-07
-0.00421126
1.10276e-06