/*--------------------------------*- C++ -*----------------------------------*\
  =========                 |
  \\      /  F ield         | OpenFOAM: The Open Source CFD Toolbox
   \\    /   O peration     | Website:  https://openfoam.org
    \\  /    A nd           | Version:  10
     \\/     M anipulation  |
\*---------------------------------------------------------------------------*/
FoamFile
{
    format      ascii;
    class       volScalarField;
    location    "0.28";
    object      rho;
}
// * * * * * * * * * * * * * * * * * * * * * * * * * * * * * * * * * * * * * //

dimensions      [1 -3 0 0 0 0 0];

internalField   nonuniform List<scalar> 
4176
(
0.0308487
0.0308517
0.030858
0.0308683
0.0308814
0.0308978
0.0309187
0.0309401
0.0309693
0.0309956
0.0310323
0.0310648
0.0311069
0.0311476
0.0311923
0.0312441
0.0312871
0.0313549
0.0313932
0.0314791
0.0315107
0.0316161
0.0316363
0.0317505
0.0308568
0.0308596
0.0308649
0.0308748
0.0308858
0.0309016
0.0309192
0.0309399
0.030965
0.0309899
0.0310221
0.0310523
0.03109
0.0311271
0.0311679
0.0312143
0.0312541
0.0313144
0.0313499
0.0314267
0.0314538
0.0315541
0.0315749
0.0317037
0.030876
0.0308789
0.0308845
0.0308946
0.0309063
0.0309224
0.030941
0.0309621
0.0309885
0.031014
0.0310478
0.0310787
0.0311183
0.0311563
0.0311993
0.0312469
0.0312891
0.031352
0.0313876
0.0314682
0.0314955
0.0315945
0.0316134
0.0317344
0.0309048
0.0309076
0.030913
0.0309229
0.0309341
0.0309498
0.0309679
0.0309884
0.0310142
0.0310387
0.031072
0.0311016
0.0311408
0.031177
0.0312199
0.0312656
0.0313074
0.0313703
0.0314013
0.0314843
0.0315093
0.0316069
0.0316247
0.0317367
0.0309442
0.030947
0.0309524
0.0309623
0.0309735
0.0309893
0.0310073
0.031028
0.0310535
0.0310784
0.0311113
0.0311412
0.0311802
0.0312166
0.0312595
0.0313046
0.0313483
0.0314082
0.0314429
0.0315237
0.0315503
0.0316475
0.0316668
0.0317804
0.0309937
0.0309965
0.0310018
0.0310116
0.0310226
0.0310383
0.0310558
0.0310764
0.0311014
0.0311261
0.0311584
0.0311881
0.0312263
0.0312624
0.0313048
0.031349
0.0313931
0.03145
0.031488
0.0315649
0.0315924
0.0316884
0.0317085
0.0318237
0.0310536
0.0310564
0.0310616
0.0310714
0.0310822
0.0310978
0.0311152
0.0311356
0.0311603
0.0311849
0.0312168
0.0312463
0.0312843
0.0313198
0.0313622
0.0314055
0.0314499
0.0315051
0.0315441
0.031619
0.0316477
0.0317423
0.0317626
0.0318758
0.0311237
0.0311265
0.0311316
0.0311414
0.031152
0.0311675
0.0311846
0.0312048
0.0312292
0.0312534
0.031285
0.031314
0.0313516
0.0313866
0.0314286
0.0314711
0.0315155
0.0315688
0.0316091
0.0316813
0.031711
0.0318041
0.0318249
0.0319368
0.0312042
0.031207
0.031212
0.0312217
0.0312322
0.0312475
0.0312644
0.0312844
0.0313084
0.0313324
0.0313636
0.0313922
0.0314294
0.0314638
0.0315055
0.0315471
0.0315915
0.0316432
0.0316843
0.0317541
0.0317848
0.0318759
0.0318971
0.0320072
0.031295
0.0312978
0.0313028
0.0313124
0.0313227
0.0313379
0.0313545
0.0313742
0.0313979
0.0314216
0.0314523
0.0314805
0.0315172
0.031551
0.0315924
0.031633
0.0316773
0.0317273
0.0317691
0.0318365
0.0318685
0.0319566
0.0319787
0.032087
0.0313963
0.0313991
0.0314039
0.0314134
0.0314236
0.0314386
0.0314549
0.0314744
0.0314978
0.0315211
0.0315514
0.0315791
0.0316153
0.0316484
0.0316894
0.0317291
0.0317732
0.0318217
0.031864
0.0319289
0.0319618
0.0320474
0.0320699
0.0321762
0.031508
0.0315108
0.0315156
0.031525
0.0315349
0.0315497
0.0315658
0.031585
0.031608
0.0316309
0.0316607
0.0316879
0.0317237
0.031756
0.0317965
0.0318353
0.031879
0.0319261
0.0319688
0.0320314
0.0320646
0.0321482
0.0321707
0.032275
0.0316303
0.031633
0.0316377
0.031647
0.0316567
0.0316714
0.0316871
0.031706
0.0317286
0.0317511
0.0317805
0.0318071
0.0318424
0.031874
0.031914
0.0319517
0.031995
0.0320406
0.0320836
0.0321437
0.0321777
0.0322585
0.0322813
0.0323833
0.0317632
0.0317659
0.0317705
0.0317797
0.0317892
0.0318036
0.031819
0.0318376
0.0318597
0.0318818
0.0319106
0.0319367
0.0319714
0.0320022
0.0320416
0.0320783
0.0321212
0.0321653
0.0322084
0.0322662
0.0323006
0.0323789
0.0324016
0.0325013
0.0319068
0.0319095
0.031914
0.031923
0.0319323
0.0319465
0.0319615
0.0319797
0.0320014
0.032023
0.0320513
0.0320768
0.0321108
0.0321409
0.0321797
0.0322153
0.0322576
0.0323002
0.0323433
0.0323987
0.0324335
0.0325092
0.0325319
0.0326291
0.0320612
0.0320639
0.0320682
0.0320771
0.0320862
0.0321001
0.0321147
0.0321326
0.0321537
0.0321748
0.0322025
0.0322273
0.0322607
0.03229
0.0323281
0.0323626
0.0324044
0.0324455
0.0324883
0.0325413
0.0325767
0.0326492
0.0326724
0.0327669
0.0322265
0.0322292
0.0322334
0.0322421
0.0322509
0.0322645
0.0322787
0.0322962
0.0323168
0.0323374
0.0323644
0.0323885
0.0324212
0.0324496
0.0324869
0.0325204
0.0325615
0.0326011
0.0326435
0.0326942
0.0327298
0.0327995
0.032823
0.0329145
0.0324028
0.0324054
0.0324095
0.0324181
0.0324265
0.0324399
0.0324537
0.0324707
0.0324908
0.0325107
0.0325371
0.0325604
0.0325923
0.0326198
0.0326563
0.0326886
0.032729
0.0327671
0.032809
0.0328573
0.0328932
0.03296
0.0329838
0.0330723
0.0325901
0.0325927
0.0325967
0.0326051
0.0326132
0.0326263
0.0326396
0.0326562
0.0326756
0.0326949
0.0327206
0.0327432
0.0327742
0.0328007
0.0328364
0.0328674
0.032907
0.0329435
0.032985
0.0330309
0.033067
0.0331306
0.0331548
0.0332401
0.0327887
0.0327913
0.0327951
0.0328033
0.0328111
0.0328238
0.0328367
0.0328527
0.0328716
0.0328902
0.0329151
0.0329368
0.032967
0.0329924
0.0330272
0.0330569
0.0330957
0.0331306
0.0331714
0.0332149
0.0332511
0.0333118
0.0333362
0.0334182
0.0329986
0.0330011
0.0330047
0.0330127
0.0330202
0.0330325
0.0330449
0.0330604
0.0330786
0.0330965
0.0331206
0.0331415
0.0331708
0.0331951
0.0332289
0.0332573
0.033295
0.0333283
0.0333683
0.0334095
0.0334458
0.0335031
0.033528
0.0336066
0.0332199
0.0332224
0.0332258
0.0332336
0.0332407
0.0332526
0.0332644
0.0332794
0.0332969
0.0333141
0.0333374
0.0333573
0.0333856
0.0334088
0.0334415
0.0334686
0.0335053
0.0335368
0.033576
0.0336149
0.0336509
0.0337052
0.0337302
0.0338053
0.0334527
0.0334551
0.0334584
0.0334659
0.0334727
0.0334842
0.0334954
0.0335098
0.0335265
0.0335429
0.0335653
0.0335843
0.0336116
0.0336336
0.0336653
0.0336909
0.0337265
0.0337563
0.0337945
0.0338311
0.033867
0.0339177
0.0339431
0.0340145
0.0336971
0.0336995
0.0337025
0.0337098
0.0337162
0.0337272
0.0337379
0.0337516
0.0337676
0.0337832
0.0338047
0.0338226
0.0338489
0.0338697
0.0339003
0.0339244
0.0339589
0.0339869
0.034024
0.0340583
0.0340937
0.0341412
0.0341665
0.0342343
0.0339532
0.0339555
0.0339584
0.0339654
0.0339713
0.033982
0.033992
0.0340051
0.0340202
0.034035
0.0340555
0.0340724
0.0340976
0.0341172
0.0341466
0.0341692
0.0342025
0.0342286
0.0342646
0.0342966
0.0343317
0.0343756
0.0344008
0.0344648
0.034221
0.0342233
0.034226
0.0342328
0.0342382
0.0342484
0.0342578
0.0342703
0.0342846
0.0342985
0.034318
0.0343338
0.0343578
0.0343761
0.0344043
0.0344254
0.0344575
0.0344817
0.0345166
0.0345461
0.0345806
0.0346212
0.034646
0.0347065
0.0345007
0.0345029
0.0345054
0.034512
0.034517
0.0345267
0.0345354
0.0345472
0.0345607
0.0345737
0.0345922
0.0346068
0.0346297
0.0346467
0.0346735
0.0346931
0.0347239
0.0347462
0.0347799
0.0348071
0.0348407
0.0348778
0.0349026
0.0349594
0.0347923
0.0347945
0.0347968
0.0348031
0.0348077
0.0348169
0.034825
0.0348361
0.0348487
0.0348608
0.0348782
0.0348917
0.0349134
0.034929
0.0349545
0.0349724
0.0350019
0.0350223
0.0350547
0.0350795
0.0351122
0.0351459
0.0351705
0.0352234
0.035096
0.0350981
0.0351002
0.0351062
0.0351104
0.0351192
0.0351265
0.0351369
0.0351487
0.0351598
0.0351762
0.0351885
0.035209
0.0352232
0.0352473
0.0352636
0.0352916
0.0353101
0.0353411
0.0353635
0.0353953
0.0354253
0.0354502
0.0354984
0.0354118
0.0354138
0.0354157
0.0354215
0.0354252
0.0354335
0.0354402
0.0354499
0.0354607
0.0354709
0.0354862
0.0354974
0.0355166
0.0355294
0.0355522
0.0355666
0.0355932
0.0356097
0.0356393
0.0356593
0.03569
0.0357165
0.0357415
0.0357848
0.0357398
0.0357418
0.0357434
0.0357489
0.0357521
0.03576
0.035766
0.035775
0.035785
0.0357942
0.0358085
0.0358185
0.0358364
0.0358477
0.0358691
0.0358818
0.0359069
0.0359213
0.0359495
0.035967
0.0359966
0.0360197
0.0360441
0.0360835
0.0360801
0.036082
0.0360834
0.0360887
0.0360914
0.0360988
0.0361041
0.0361124
0.0361214
0.0361298
0.0361429
0.0361517
0.0361684
0.0361783
0.0361983
0.0362092
0.0362329
0.0362451
0.0362718
0.0362868
0.036315
0.036335
0.036359
0.036394
0.0364327
0.0364347
0.0364358
0.0364408
0.0364431
0.03645
0.0364546
0.0364622
0.0364703
0.0364777
0.0364897
0.0364974
0.0365128
0.0365212
0.0365399
0.036549
0.0365712
0.0365813
0.0366064
0.0366188
0.0366458
0.0366623
0.0366862
0.0367163
0.0367979
0.0367998
0.0368007
0.0368054
0.0368073
0.0368136
0.0368175
0.0368244
0.0368317
0.0368381
0.036849
0.0368555
0.0368697
0.0368766
0.036894
0.0369013
0.036922
0.0369299
0.0369536
0.0369633
0.0369887
0.0370022
0.0370255
0.037051
0.0371756
0.0371774
0.0371781
0.0371826
0.037184
0.0371899
0.0371931
0.0371993
0.0372056
0.0372111
0.0372209
0.0372262
0.0372391
0.0372446
0.0372606
0.0372661
0.0372854
0.0372912
0.0373133
0.0373205
0.0373445
0.0373544
0.0373773
0.0373981
0.0375659
0.0375677
0.0375682
0.0375725
0.0375734
0.0375788
0.0375814
0.0375868
0.0375923
0.0375968
0.0376056
0.0376096
0.0376213
0.0376252
0.0376398
0.0376435
0.0376614
0.0376651
0.0376857
0.0376904
0.0377128
0.0377197
0.0377416
0.0377576
0.037969
0.0379708
0.0379711
0.0379751
0.0379755
0.0379805
0.0379824
0.0379872
0.0379917
0.0379953
0.038003
0.0380058
0.0380162
0.0380187
0.0380319
0.0380338
0.0380502
0.0380518
0.0380709
0.038073
0.0380942
0.0380978
0.0381184
0.0381298
0.038385
0.0383867
0.0383868
0.0383905
0.0383906
0.0383951
0.0383963
0.0384005
0.0384041
0.0384068
0.0384134
0.038415
0.0384242
0.0384251
0.038437
0.038437
0.0384519
0.0384513
0.038469
0.0384685
0.0384882
0.0384888
0.0385086
0.0385149
0.0388139
0.0388156
0.0388155
0.038819
0.0388186
0.0388227
0.0388232
0.0388267
0.0388295
0.0388313
0.0388369
0.0388372
0.0388452
0.0388447
0.0388551
0.0388533
0.0388668
0.0388639
0.03888
0.0388769
0.0388953
0.0388927
0.0389115
0.0389132
0.039256
0.0392576
0.0392573
0.0392606
0.0392597
0.0392634
0.0392633
0.0392661
0.039268
0.0392689
0.0392734
0.0392726
0.0392794
0.0392774
0.0392865
0.0392827
0.0392948
0.0392896
0.0393043
0.0392984
0.0393154
0.0393096
0.0393274
0.0393248
0.0397112
0.0397128
0.0397123
0.0397154
0.0397141
0.0397174
0.0397166
0.0397187
0.0397198
0.0397197
0.0397232
0.0397213
0.0397268
0.0397233
0.0397311
0.0397255
0.0397362
0.0397287
0.0397419
0.0397332
0.0397489
0.0397396
0.0397562
0.03975
0.0401799
0.0401814
0.0401807
0.0401836
0.0401818
0.0401846
0.0401832
0.0401847
0.0401849
0.0401839
0.0401864
0.0401832
0.0401876
0.0401826
0.0401891
0.0401817
0.040191
0.0401812
0.0401931
0.0401814
0.0401958
0.040183
0.0401986
0.040188
0.040662
0.0406635
0.0406626
0.0406652
0.040663
0.0406654
0.0406633
0.0406641
0.0406634
0.0406615
0.0406629
0.0406586
0.0406618
0.0406553
0.0406605
0.0406512
0.0406592
0.0406471
0.0406578
0.040643
0.0406566
0.04064
0.0406546
0.0406394
0.0411577
0.0411592
0.0411581
0.0411604
0.0411578
0.0411597
0.0411569
0.0411571
0.0411555
0.0411527
0.0411531
0.0411476
0.0411495
0.0411416
0.0411454
0.0411343
0.041141
0.0411265
0.0411362
0.0411183
0.041131
0.0411108
0.0411245
0.0411046
0.0416671
0.0416685
0.0416672
0.0416693
0.0416662
0.0416677
0.0416642
0.0416637
0.0416613
0.0416576
0.0416568
0.0416502
0.0416508
0.0416415
0.0416439
0.041631
0.0416363
0.0416195
0.041628
0.0416072
0.041619
0.0415952
0.0416082
0.0415839
0.0421902
0.0421917
0.0421901
0.042192
0.0421884
0.0421895
0.0421853
0.0421841
0.0421807
0.0421761
0.0421743
0.0421664
0.0421659
0.042155
0.0421561
0.0421414
0.0421453
0.0421261
0.0421336
0.0421098
0.0421207
0.0420931
0.0421058
0.0420766
0.0427272
0.0427286
0.0427268
0.0427285
0.0427244
0.042725
0.0427201
0.0427183
0.042714
0.0427085
0.0427056
0.0426965
0.0426947
0.0426823
0.0426821
0.0426656
0.0426681
0.0426465
0.0426529
0.0426261
0.0426361
0.0426046
0.0426175
0.0425829
0.043278
0.0432793
0.0432774
0.0432788
0.0432743
0.0432744
0.0432688
0.0432663
0.0432611
0.0432546
0.0432507
0.0432404
0.0432374
0.0432235
0.043222
0.0432035
0.0432048
0.0431808
0.0431861
0.0431562
0.0431654
0.0431293
0.0431434
0.0431033
0.0438426
0.0438439
0.0438418
0.0438429
0.043838
0.0438377
0.0438314
0.0438281
0.0438221
0.0438147
0.0438096
0.0437982
0.043794
0.0437785
0.0437758
0.0437554
0.0437555
0.043729
0.0437332
0.0437
0.0437087
0.0436683
0.0436828
0.0436378
0.0444211
0.0444223
0.04442
0.0444209
0.0444155
0.0444147
0.0444077
0.0444038
0.0443969
0.0443886
0.0443825
0.0443698
0.0443644
0.0443474
0.0443434
0.0443211
0.0443201
0.0442912
0.0442943
0.0442577
0.0442666
0.0442215
0.0442357
0.0441861
0.0450133
0.0450145
0.045012
0.0450126
0.0450068
0.0450056
0.0449979
0.0449934
0.0449856
0.0449763
0.0449692
0.0449552
0.0449488
0.0449302
0.0449251
0.0449006
0.0448988
0.0448671
0.0448696
0.0448288
0.0448392
0.0447886
0.0448028
0.0447487
0.0456191
0.0456204
0.0456176
0.0456181
0.0456117
0.0456102
0.0456018
0.0455966
0.045588
0.0455778
0.0455698
0.0455545
0.0455471
0.0455268
0.0455207
0.045494
0.0454916
0.0454568
0.0454593
0.0454142
0.0454248
0.0453703
0.0453842
0.0453256
0.0462386
0.0462398
0.0462368
0.0462371
0.0462303
0.0462284
0.0462194
0.0462135
0.0462042
0.0461929
0.0461841
0.0461675
0.0461593
0.0461372
0.0461304
0.0461011
0.0460985
0.0460597
0.0460638
0.0460143
0.0460238
0.0459664
0.0459794
0.0459167
0.0468714
0.0468726
0.0468695
0.0468695
0.0468623
0.04686
0.0468504
0.046844
0.0468339
0.0468217
0.0468121
0.0467941
0.0467852
0.0467611
0.0467541
0.0467218
0.0467196
0.0466772
0.0466811
0.0466285
0.0466373
0.0465764
0.0465889
0.0465221
0.0475175
0.0475186
0.0475154
0.0475152
0.0475076
0.047505
0.0474948
0.0474878
0.047477
0.0474638
0.0474537
0.0474341
0.0474251
0.0473984
0.0473919
0.0473564
0.0473544
0.0473092
0.0473116
0.047257
0.0472648
0.0472009
0.0472125
0.0471418
0.0481766
0.0481777
0.0481743
0.048174
0.048166
0.0481631
0.0481523
0.0481448
0.0481334
0.0481191
0.0481089
0.0480873
0.0480788
0.0480489
0.0480437
0.0480046
0.0480023
0.047955
0.0479565
0.0478997
0.0479061
0.0478395
0.0478503
0.0477758
0.0488485
0.0488497
0.048846
0.0488458
0.0488373
0.0488342
0.0488228
0.0488147
0.0488032
0.0487874
0.0487776
0.0487535
0.0487457
0.0487135
0.0487076
0.0486671
0.0486639
0.0486148
0.048615
0.0485562
0.0485614
0.0484922
0.0485023
0.0484242
0.0495329
0.0495343
0.0495302
0.0495302
0.0495212
0.0495181
0.0495061
0.0494972
0.049486
0.0494686
0.0494588
0.0494336
0.0494248
0.0493921
0.0493846
0.0493434
0.0493387
0.0492884
0.0492871
0.0492265
0.0492307
0.0491589
0.0491681
0.0490866
0.0502298
0.0502313
0.0502269
0.0502271
0.0502173
0.0502146
0.0502019
0.0501928
0.0501809
0.0501632
0.0501526
0.0501268
0.050117
0.0500835
0.0500751
0.0500328
0.0500269
0.0499751
0.0499729
0.0499106
0.0499135
0.0498395
0.049848
0.0497632
0.050939
0.0509405
0.0509361
0.050936
0.0509262
0.0509231
0.0509097
0.0509014
0.0508879
0.0508703
0.0508589
0.0508325
0.050822
0.0507878
0.0507784
0.0507353
0.0507284
0.0506754
0.050672
0.050608
0.0506101
0.0505338
0.0505415
0.0504537
0.0516601
0.0516616
0.0516572
0.051657
0.0516471
0.0516438
0.0516301
0.0516219
0.051607
0.0515903
0.0515775
0.0515509
0.0515396
0.051505
0.0514943
0.0514508
0.0514427
0.0513888
0.0513842
0.0513189
0.0513197
0.0512416
0.0512486
0.0511579
0.052393
0.0523946
0.0523902
0.05239
0.0523799
0.0523766
0.0523625
0.0523543
0.0523385
0.0523224
0.0523078
0.052282
0.0522694
0.0522344
0.0522229
0.0521789
0.0521697
0.0521147
0.0521096
0.0520425
0.0520427
0.0519626
0.0519689
0.0518755
0.0531378
0.0531393
0.053135
0.0531347
0.0531245
0.0531211
0.0531068
0.0530986
0.053082
0.0530663
0.0530504
0.0530253
0.0530113
0.052976
0.0529639
0.0529193
0.0529091
0.0528536
0.0528471
0.052779
0.0527781
0.0526965
0.0527021
0.0526063
0.0538941
0.0538958
0.0538914
0.0538911
0.0538808
0.0538774
0.0538628
0.0538545
0.0538375
0.0538219
0.0538052
0.0537804
0.053765
0.0537302
0.0537168
0.0536717
0.0536605
0.0536042
0.0535972
0.0535278
0.0535262
0.0534429
0.0534479
0.0533499
0.0546622
0.0546639
0.0546595
0.0546592
0.0546488
0.0546453
0.0546304
0.0546222
0.0546047
0.0545893
0.0545716
0.054547
0.0545304
0.0544959
0.0544816
0.0544356
0.0544239
0.0543671
0.0543588
0.0542887
0.054286
0.0542016
0.0542059
0.0541059
0.0554419
0.0554437
0.0554392
0.055439
0.0554284
0.0554249
0.0554097
0.0554014
0.0553834
0.0553681
0.0553495
0.0553251
0.0553076
0.0552728
0.0552578
0.0552111
0.0551986
0.0551411
0.0551322
0.0550612
0.0550577
0.054972
0.0549756
0.0548738
0.0562334
0.0562352
0.0562306
0.0562304
0.0562196
0.0562161
0.0562005
0.056192
0.0561736
0.0561583
0.0561387
0.0561143
0.0560959
0.0560607
0.056045
0.0559977
0.0559847
0.0559263
0.0559163
0.0558449
0.0558403
0.0557538
0.0557567
0.0556533
0.0570365
0.0570384
0.0570336
0.0570334
0.0570222
0.0570186
0.0570026
0.0569939
0.0569749
0.0569594
0.0569387
0.0569145
0.0568949
0.0568595
0.0568429
0.0567951
0.0567814
0.056722
0.0567113
0.0566394
0.0566339
0.0565465
0.0565486
0.0564441
0.0578509
0.057853
0.0578479
0.0578477
0.0578361
0.0578322
0.0578157
0.0578066
0.057787
0.0577711
0.0577493
0.0577252
0.0577042
0.0576688
0.0576508
0.0576029
0.0575887
0.0575282
0.0575167
0.0574443
0.0574377
0.0573498
0.0573513
0.0572457
0.0586763
0.0586783
0.0586731
0.0586726
0.0586607
0.0586564
0.0586393
0.0586297
0.0586093
0.058593
0.0585701
0.0585461
0.0585233
0.0584884
0.0584684
0.058421
0.0584057
0.0583444
0.0583322
0.0582592
0.058252
0.0581636
0.0581643
0.0580579
0.0595114
0.0595135
0.0595081
0.0595073
0.059495
0.0594902
0.0594727
0.0594624
0.0594414
0.0594244
0.0594006
0.0593766
0.0593518
0.0593177
0.0592959
0.0592486
0.059232
0.0591707
0.0591578
0.0590842
0.0590761
0.0589876
0.0589878
0.0588807
0.0603547
0.0603568
0.0603514
0.0603503
0.0603378
0.0603326
0.0603146
0.0603039
0.0602822
0.0602647
0.0602402
0.060216
0.0601898
0.0601563
0.0601325
0.060086
0.0600667
0.0600072
0.0599936
0.059919
0.0599106
0.0598218
0.0598214
0.0597141
0.0612042
0.0612063
0.0612009
0.0611998
0.0611872
0.0611819
0.0611638
0.0611528
0.0611309
0.0611132
0.0610881
0.061064
0.0610365
0.061004
0.0609778
0.0609332
0.0609117
0.0608534
0.0608385
0.060764
0.0607549
0.0606664
0.0606656
0.0605582
0.0620576
0.0620597
0.0620546
0.0620536
0.0620413
0.0620363
0.0620184
0.0620078
0.0619861
0.0619686
0.0619436
0.0619198
0.0618919
0.0618602
0.0618326
0.0617897
0.0617665
0.0617089
0.0616929
0.0616195
0.0616099
0.0615215
0.0615205
0.0614132
0.062913
0.0629152
0.0629105
0.06291
0.0628984
0.062894
0.062877
0.0628673
0.0628464
0.0628299
0.0628057
0.0627829
0.0627554
0.0627249
0.0626969
0.0626557
0.0626309
0.0625755
0.0625567
0.0624863
0.0624755
0.0623875
0.0623865
0.0622795
0.0637695
0.063772
0.0637678
0.0637681
0.0637574
0.0637543
0.0637385
0.0637303
0.063711
0.0636962
0.0636735
0.0636525
0.0636263
0.0635977
0.0635701
0.0635312
0.0635053
0.0634525
0.063433
0.0633632
0.0633526
0.0632647
0.0632637
0.0631572
0.064628
0.0646308
0.0646272
0.0646285
0.0646189
0.0646173
0.0646032
0.0645969
0.0645796
0.0645669
0.0645465
0.0645278
0.0645037
0.0644775
0.0644517
0.0644154
0.0643905
0.0643403
0.0643209
0.0642521
0.0642415
0.0641538
0.0641528
0.0640463
0.0654919
0.065495
0.0654919
0.0654942
0.0654856
0.0654855
0.0654729
0.0654686
0.0654533
0.065443
0.0654249
0.065409
0.0653873
0.0653641
0.0653409
0.0653075
0.0652847
0.0652376
0.0652194
0.0651531
0.0651434
0.0650556
0.0650549
0.0649474
0.0663666
0.0663703
0.0663672
0.0663705
0.0663623
0.0663636
0.0663517
0.0663492
0.0663351
0.066327
0.0663106
0.0662973
0.0662776
0.0662571
0.0662373
0.0662055
0.0661875
0.0661414
0.0661279
0.0660629
0.0660572
0.0659705
0.0659709
0.0658629
0.06726
0.0672644
0.0672605
0.0672652
0.0672556
0.0672588
0.0672453
0.0672453
0.0672296
0.067224
0.0672072
0.0671959
0.0671772
0.0671581
0.0671424
0.0671082
0.0670997
0.067048
0.0670453
0.0669772
0.0669789
0.0668944
0.0668985
0.0667962
0.0681814
0.0681854
0.0681822
0.068185
0.0681765
0.068177
0.0681648
0.0681614
0.0681471
0.0681386
0.0681223
0.0681098
0.0680903
0.0680732
0.0680548
0.0680236
0.0680144
0.0679653
0.0679634
0.0678979
0.0679029
0.0678203
0.067829
0.0677345
0.0691391
0.0691427
0.069139
0.0691409
0.0691308
0.0691297
0.0691152
0.0691096
0.0690927
0.0690815
0.0690624
0.0690471
0.069025
0.069006
0.0689828
0.0689549
0.0689382
0.0688921
0.0688891
0.0688227
0.0688296
0.0687454
0.0687575
0.0686634
0.0701395
0.0701429
0.0701383
0.0701389
0.0701268
0.0701232
0.0701057
0.0700968
0.0700758
0.0700604
0.0700367
0.0700166
0.0699893
0.0699656
0.0699364
0.0699052
0.0698816
0.0698352
0.0698263
0.0697565
0.0697638
0.0696745
0.0696888
0.0695907
0.0711861
0.0711897
0.0711837
0.0711832
0.0711686
0.0711628
0.0711415
0.0711292
0.0711032
0.0710831
0.0710531
0.0710272
0.0709927
0.070962
0.0709246
0.0708864
0.0708547
0.0708011
0.0707848
0.0707072
0.0707117
0.0706137
0.0706288
0.0705223
0.0722789
0.0722831
0.0722751
0.0722743
0.0722571
0.0722496
0.0722243
0.0722095
0.0721775
0.0721548
0.0721163
0.0720867
0.0720422
0.0720051
0.0719582
0.0719102
0.07187
0.0718011
0.0717786
0.0716863
0.0716839
0.0715724
0.0715849
0.0714648
0.0734146
0.0734181
0.0734108
0.0734076
0.0733903
0.0733797
0.0733537
0.0733341
0.0733012
0.0732713
0.0732317
0.0731931
0.0731453
0.0730992
0.0730437
0.0729896
0.0729317
0.0728581
0.0728178
0.0727131
0.0726958
0.0725657
0.07257
0.072428
0.0745864
0.0745896
0.0745824
0.0745786
0.0745606
0.0745489
0.0745215
0.0745004
0.0744653
0.0744331
0.0743904
0.0743485
0.0742965
0.0742455
0.0741842
0.0741234
0.0740542
0.07398
0.0739121
0.0738092
0.0737656
0.073618
0.0736056
0.0734305
0.0757865
0.0757897
0.0757825
0.0757786
0.0757604
0.0757485
0.0757206
0.075699
0.0756633
0.0756302
0.0755865
0.0755431
0.0754896
0.0754365
0.0753729
0.0753088
0.0752356
0.0751574
0.0750786
0.0749781
0.0749046
0.07476
0.0747207
0.0745079
0.0770061
0.0770094
0.0770024
0.0769988
0.0769808
0.0769693
0.0769418
0.0769206
0.0768853
0.0768526
0.0768094
0.0767665
0.0767135
0.0766607
0.0765974
0.0765338
0.0764608
0.0763827
0.0763038
0.0762046
0.0761252
0.0759888
0.0759318
0.0757073
0.0782366
0.0782402
0.0782335
0.0782305
0.078213
0.0782024
0.0781756
0.0781556
0.0781215
0.0780902
0.0780484
0.0780072
0.077956
0.0779053
0.0778443
0.0777832
0.0777129
0.0776381
0.0775634
0.077466
0.0773982
0.0772603
0.0772201
0.0770227
0.0794701
0.0794739
0.0794676
0.0794654
0.0794486
0.0794392
0.0794136
0.0793952
0.0793626
0.0793334
0.0792936
0.0792549
0.0792062
0.0791586
0.0791007
0.0790434
0.0789766
0.0789064
0.0788369
0.0787447
0.0786828
0.0785527
0.0785151
0.0783324
0.0806994
0.0807036
0.0806976
0.0806963
0.0806803
0.0806723
0.080648
0.0806314
0.0806007
0.0805738
0.0805364
0.0805007
0.0804549
0.0804108
0.0803566
0.0803033
0.080241
0.0801762
0.0801107
0.0800256
0.0799681
0.0798478
0.0798126
0.0796436
0.0819184
0.081923
0.0819174
0.0819172
0.0819018
0.0818955
0.0818724
0.0818581
0.081829
0.081805
0.0817697
0.0817376
0.0816945
0.0816547
0.0816037
0.0815553
0.0814971
0.0814379
0.0813776
0.0812978
0.0812465
0.0811354
0.0811024
0.0809473
0.0831224
0.0831275
0.0831215
0.083123
0.0831078
0.0831038
0.0830812
0.0830699
0.0830417
0.0830217
0.0829875
0.0829604
0.0829186
0.0828845
0.0828357
0.0827931
0.0827387
0.0826855
0.0826293
0.082557
0.0825093
0.0824081
0.0823775
0.082236
0.0843068
0.0843121
0.0843064
0.0843091
0.0842943
0.0842924
0.0842704
0.0842622
0.0842348
0.0842189
0.0841855
0.0841637
0.0841227
0.0840952
0.0840472
0.0840124
0.0839595
0.0839128
0.0838617
0.083796
0.083752
0.0836609
0.0836324
0.0835043
0.0854681
0.0854736
0.0854688
0.0854714
0.0854587
0.0854566
0.085438
0.0854296
0.0854065
0.0853907
0.0853623
0.0853413
0.0853056
0.08528
0.0852373
0.0852058
0.0851577
0.0851174
0.0850685
0.0850109
0.0849703
0.0848891
0.084863
0.0847477
0.0866038
0.0866091
0.086605
0.086608
0.0865967
0.0865954
0.0865787
0.0865716
0.0865512
0.0865368
0.0865124
0.0864925
0.086462
0.0864378
0.0864009
0.0863718
0.0863292
0.0862931
0.0862486
0.0861989
0.0861617
0.0860895
0.0860652
0.0859625
0.0877112
0.0877165
0.0877129
0.0877164
0.0877061
0.0877059
0.0876908
0.0876852
0.0876671
0.0876545
0.0876331
0.0876155
0.0875887
0.0875672
0.0875347
0.0875089
0.0874708
0.0874397
0.0873984
0.0873575
0.087322
0.0872588
0.0872368
0.0871461
0.0887885
0.0887939
0.0887907
0.0887948
0.0887853
0.0887863
0.0887725
0.0887685
0.0887524
0.0887417
0.088723
0.0887077
0.0886844
0.0886655
0.088637
0.0886146
0.0885811
0.0885538
0.0885175
0.0884828
0.088449
0.088396
0.0883755
0.0882965
0.0898342
0.0898396
0.0898369
0.0898414
0.0898329
0.0898347
0.0898225
0.0898197
0.0898056
0.0897968
0.0897806
0.0897676
0.0897473
0.0897313
0.0897065
0.0896874
0.0896578
0.0896353
0.0896028
0.0895737
0.089542
0.0894982
0.0894798
0.0894117
0.0908474
0.0908528
0.0908501
0.0908557
0.0908472
0.0908509
0.0908389
0.0908384
0.0908255
0.0908188
0.0908047
0.0907941
0.0907766
0.0907632
0.0907418
0.0907259
0.0907003
0.0906812
0.090653
0.0906292
0.0906008
0.0905651
0.0905481
0.0904904
0.0918272
0.0918324
0.0918306
0.0918353
0.0918294
0.0918318
0.0918231
0.0918222
0.0918121
0.0918064
0.0917948
0.0917861
0.0917713
0.0917605
0.0917423
0.0917294
0.0917073
0.0916922
0.0916676
0.0916478
0.0916236
0.0915953
0.0915797
0.0915315
0.0927729
0.0927784
0.0927757
0.0927834
0.0927742
0.092782
0.0927699
0.0927739
0.0927627
0.0927603
0.0927498
0.0927435
0.092731
0.0927226
0.0927073
0.0926974
0.0926786
0.0926667
0.0926459
0.0926308
0.0926095
0.092588
0.0925738
0.0925342
0.0936845
0.0936895
0.0936887
0.0936931
0.0936901
0.093692
0.0936875
0.0936871
0.0936812
0.0936778
0.0936706
0.0936655
0.0936555
0.0936493
0.0936367
0.0936294
0.0936137
0.0936053
0.0935879
0.0935763
0.093559
0.0935425
0.0935297
0.0934988
0.0945618
0.0945672
0.0945647
0.0945732
0.0945651
0.0945746
0.0945638
0.0945708
0.0945614
0.0945626
0.0945552
0.0945527
0.0945445
0.0945405
0.0945304
0.0945256
0.0945128
0.0945072
0.0944927
0.0944855
0.0944709
0.0944591
0.0944485
0.0944252
0.0954049
0.0954097
0.0954091
0.0954145
0.0954118
0.095416
0.0954124
0.0954144
0.095411
0.0954101
0.0954063
0.0954044
0.0953985
0.0953964
0.0953885
0.095386
0.0953758
0.0953731
0.0953618
0.0953571
0.0953457
0.0953384
0.0953299
0.0953136
0.0962141
0.096219
0.0962179
0.0962248
0.0962207
0.0962278
0.096222
0.0962282
0.0962227
0.0962255
0.0962214
0.096222
0.0962175
0.0962172
0.0962115
0.0962112
0.0962035
0.0962032
0.096194
0.0961934
0.0961841
0.0961806
0.0961747
0.0961644
0.0969899
0.0969945
0.0969938
0.0970006
0.096997
0.0970044
0.0970001
0.0970056
0.0970029
0.0970052
0.0970036
0.0970048
0.0970022
0.0970036
0.0969997
0.0970013
0.0969958
0.0969979
0.0969917
0.0969931
0.0969869
0.0969871
0.0969834
0.0969781
0.0977327
0.097737
0.0977372
0.0977425
0.097742
0.0977466
0.0977457
0.09775
0.097749
0.0977522
0.0977516
0.0977542
0.097753
0.0977559
0.0977538
0.0977572
0.0977539
0.0977581
0.0977535
0.0977585
0.0977539
0.0977576
0.0977561
0.0977555
0.0984432
0.0984476
0.0984473
0.0984541
0.0984514
0.0984596
0.0984561
0.0984636
0.0984616
0.0984668
0.0984666
0.0984707
0.0984706
0.098475
0.0984743
0.0984794
0.0984778
0.098484
0.0984819
0.0984885
0.0984864
0.0984932
0.098493
0.098497
0.0991224
0.0991261
0.099127
0.0991319
0.0991324
0.0991372
0.0991384
0.0991424
0.0991446
0.0991479
0.0991504
0.0991545
0.0991561
0.0991615
0.0991623
0.0991688
0.0991689
0.0991768
0.099176
0.0991855
0.0991847
0.0991942
0.0991955
0.0992036
0.0997705
0.0997744
0.0997752
0.0997804
0.0997807
0.0997866
0.0997867
0.0997933
0.0997937
0.0998001
0.0998015
0.0998077
0.0998097
0.0998165
0.0998184
0.0998263
0.0998277
0.0998373
0.0998382
0.0998493
0.09985
0.0998623
0.0998643
0.0998763
0.100389
0.100393
0.100394
0.100399
0.100399
0.100406
0.100406
0.100412
0.100415
0.10042
0.100424
0.10043
0.100433
0.100441
0.100444
0.100453
0.100456
0.100466
0.100468
0.100481
0.100484
0.100498
0.100501
0.100516
0.100979
0.100982
0.100984
0.100987
0.100991
0.100994
0.100998
0.101002
0.101006
0.101012
0.101016
0.101023
0.101027
0.101035
0.101039
0.101049
0.101053
0.101065
0.101069
0.101083
0.101086
0.101103
0.101106
0.101124
0.101541
0.101544
0.101545
0.10155
0.101551
0.101558
0.101559
0.101566
0.101569
0.101576
0.10158
0.101588
0.101592
0.101602
0.101606
0.101617
0.101622
0.101635
0.101639
0.101655
0.101659
0.101678
0.101682
0.101702
0.102076
0.102078
0.10208
0.102084
0.102087
0.102091
0.102095
0.1021
0.102105
0.102111
0.102117
0.102125
0.10213
0.10214
0.102145
0.102157
0.102163
0.102177
0.102182
0.102199
0.102203
0.102224
0.102229
0.102251
0.102585
0.102587
0.10259
0.102592
0.102596
0.1026
0.102604
0.10261
0.102614
0.102622
0.102627
0.102636
0.102642
0.102652
0.102658
0.102671
0.102677
0.102692
0.102698
0.102716
0.102721
0.102743
0.102747
0.102772
0.103069
0.103071
0.103072
0.103078
0.103078
0.103086
0.103087
0.103095
0.103099
0.103107
0.103113
0.103121
0.103128
0.103139
0.103145
0.103158
0.103165
0.103181
0.103187
0.103207
0.103212
0.103235
0.10324
0.103267
0.103529
0.103531
0.103534
0.103535
0.103542
0.103542
0.103551
0.103553
0.103561
0.103567
0.103574
0.103583
0.10359
0.103601
0.103608
0.103622
0.103629
0.103645
0.103653
0.103672
0.103678
0.103703
0.103708
0.103736
0.103966
0.103969
0.103969
0.103975
0.103975
0.103984
0.103984
0.103994
0.103996
0.104006
0.104011
0.104022
0.104028
0.10404
0.104047
0.104062
0.104069
0.104086
0.104094
0.104114
0.104121
0.104146
0.104151
0.104181
0.104382
0.104383
0.104386
0.104388
0.104394
0.104395
0.104404
0.104406
0.104415
0.10442
0.104429
0.104437
0.104445
0.104457
0.104465
0.104479
0.104487
0.104504
0.104513
0.104533
0.10454
0.104566
0.104572
0.104602
0.104776
0.104778
0.104779
0.104784
0.104785
0.104793
0.104794
0.104804
0.104806
0.104817
0.104822
0.104833
0.10484
0.104852
0.10486
0.104875
0.104884
0.104901
0.10491
0.104931
0.104938
0.104964
0.104971
0.105002
0.105151
0.105152
0.105155
0.105156
0.105162
0.105164
0.105171
0.105175
0.105183
0.105189
0.105198
0.105207
0.105215
0.105227
0.105236
0.10525
0.105259
0.105277
0.105286
0.105308
0.105315
0.105342
0.105348
0.10538
0.105506
0.105508
0.105508
0.105513
0.105514
0.105522
0.105524
0.105533
0.105537
0.105546
0.105552
0.105563
0.105571
0.105583
0.105591
0.105607
0.105616
0.105634
0.105643
0.105665
0.105672
0.105699
0.105706
0.105739
0.105843
0.105844
0.105847
0.105848
0.105854
0.105856
0.105863
0.105868
0.105875
0.105882
0.10589
0.1059
0.105908
0.10592
0.105929
0.105944
0.105953
0.105972