/*--------------------------------*- C++ -*----------------------------------*\
  =========                 |
  \\      /  F ield         | OpenFOAM: The Open Source CFD Toolbox
   \\    /   O peration     | Website:  https://openfoam.org
    \\  /    A nd           | Version:  10
     \\/     M anipulation  |
\*---------------------------------------------------------------------------*/
FoamFile
{
    format      ascii;
    class       volScalarField;
    location    "0.28";
    object      T;
}
// * * * * * * * * * * * * * * * * * * * * * * * * * * * * * * * * * * * * * //

dimensions      [0 0 0 1 0 0 0];

internalField   nonuniform List<scalar> 
4176
(
180.347
180.351
180.372
180.383
180.426
180.445
180.507
180.538
180.613
180.661
180.749
180.809
180.913
180.985
181.102
181.191
181.307
181.43
181.535
181.702
181.778
182.01
182.024
182.326
180.356
180.361
180.382
180.393
180.436
180.457
180.519
180.552
180.628
180.678
180.767
180.83
180.935
181.01
181.129
181.22
181.34
181.465
181.573
181.743
181.819
182.062
182.079
182.411
180.384
180.389
180.409
180.42
180.462
180.483
180.542
180.576
180.649
180.698
180.785
180.847
180.95
181.022
181.14
181.228
181.347
181.468
181.573
181.739
181.811
182.049
182.066
182.408
180.436
180.44
180.461
180.472
180.514
180.534
180.594
180.627
180.7
180.749
180.836
180.897
181.001
181.073
181.192
181.279
181.399
181.522
181.623
181.794
181.863
182.098
182.112
182.439
180.511
180.515
180.536
180.546
180.588
180.608
180.667
180.7
180.772
180.82
180.907
180.967
181.07
181.14
181.259
181.344
181.465
181.586
181.684
181.856
181.925
182.156
182.171
182.488
180.61
180.615
180.635
180.645
180.686
180.706
180.765
180.797
180.869
180.917
181.002
181.062
181.164
181.234
181.352
181.435
181.558
181.673
181.777
181.944
182.015
182.244
182.262
182.578
180.733
180.737
180.757
180.768
180.809
180.828
180.886
180.918
180.989
181.037
181.12
181.18
181.28
181.35
181.466
181.548
181.672
181.782
181.89
182.051
182.124
182.349
182.369
182.684
180.88
180.884
180.904
180.914
180.955
180.974
181.031
181.063
181.133
181.18
181.263
181.322
181.421
181.489
181.605
181.685
181.808
181.915
182.025
182.18
182.256
182.477
182.499
182.809
181.05
181.055
181.075
181.084
181.125
181.143
181.2
181.231
181.3
181.347
181.428
181.486
181.584
181.652
181.766
181.844
181.967
182.07
182.182
182.332
182.41
182.626
182.649
182.955
181.245
181.249
181.269
181.278
181.318
181.337
181.392
181.423
181.491
181.537
181.617
181.675
181.771
181.837
181.95
182.027
182.149
182.248
182.361
182.506
182.585
182.798
182.822
183.122
181.463
181.468
181.487
181.496
181.535
181.553
181.608
181.639
181.706
181.751
181.83
181.886
181.981
182.046
182.157
182.232
182.353
182.449
182.563
182.702
182.783
182.991
183.015
183.311
181.705
181.71
181.728
181.738
181.776
181.794
181.848
181.878
181.944
181.988
182.066
182.121
182.215
182.278
182.388
182.461
182.58
182.673
182.787
182.921
183.004
183.204
183.231
183.52
181.971
181.975
181.994
182.003
182.041
182.058
182.111
182.14
182.205
182.248
182.325
182.379
182.471
182.533
182.641
182.712
182.83
182.92
183.033
183.163
183.246
183.441
183.468
183.751
182.26
182.264
182.283
182.291
182.329
182.345
182.398
182.426
182.49
182.532
182.608
182.66
182.751
182.811
182.917
182.986
183.102
183.189
183.302
183.426
183.51
183.699
183.727
184.004
182.573
182.577
182.596
182.604
182.641
182.657
182.709
182.736
182.798
182.839
182.913
182.964
183.053
183.112
183.216
183.283
183.397
183.481
183.593
183.713
183.797
183.98
184.007
184.278
182.91
182.914
182.932
182.94
182.976
182.991
183.042
183.069
183.13
183.17
183.242
183.292
183.379
183.435
183.538
183.602
183.715
183.796
183.907
184.021
184.105
184.282
184.31
184.573
183.271
183.275
183.292
183.3
183.336
183.35
183.4
183.425
183.485
183.524
183.594
183.642
183.727
183.782
183.882
183.945
184.055
184.133
184.242
184.351
184.436
184.606
184.634
184.891
183.655
183.659
183.676
183.683
183.718
183.732
183.781
183.805
183.864
183.901
183.97
184.016
184.099
184.152
184.25
184.31
184.418
184.493
184.6
184.704
184.789
184.952
184.981
185.23
184.063
184.067
184.084
184.09
184.125
184.137
184.186
184.208
184.266
184.301
184.368
184.413
184.494
184.544
184.64
184.697
184.803
184.875
184.98
185.079
185.163
185.32
185.349
185.591
184.495
184.498
184.515
184.521
184.555
184.567
184.614
184.635
184.691
184.725
184.79
184.833
184.911
184.96
185.053
185.108
185.21
185.279
185.382
185.476
185.56
185.709
185.739
185.974
184.95
184.954
184.97
184.975
185.009
185.019
185.065
185.085
185.14
185.172
185.235
185.276
185.352
185.398
185.488
185.54
185.64
185.706
185.806
185.895
185.978
186.122
186.15
186.378
185.429
185.433
185.449
185.453
185.486
185.496
185.54
185.559
185.612
185.642
185.703
185.742
185.816
185.859
185.947
185.996
186.093
186.155
186.253
186.337
186.419
186.555
186.583
186.804
185.932
185.935
185.951
185.955
185.987
185.995
186.039
186.056
186.107
186.136
186.195
186.231
186.302
186.343
186.428
186.474
186.568
186.626
186.721
186.801
186.88
187.011
187.038
187.252
186.458
186.461
186.476
186.48
186.511
186.518
186.56
186.576
186.625
186.652
186.709
186.743
186.812
186.85
186.932
186.975
187.066
187.12
187.212
187.287
187.365
187.488
187.515
187.72
187.008
187.011
187.026
187.028
187.058
187.065
187.105
187.119
187.167
187.192
187.246
187.278
187.344
187.379
187.458
187.498
187.586
187.636
187.725
187.795
187.871
187.988
188.014
188.21
187.581
187.583
187.598
187.6
187.629
187.634
187.673
187.686
187.732
187.754
187.807
187.836
187.899
187.932
188.008
188.044
188.128
188.175
188.261
188.326
188.399
188.509
188.535
188.721
188.177
188.179
188.193
188.195
188.223
188.227
188.265
188.276
188.319
188.34
188.39
188.416
188.477
188.507
188.58
188.613
188.693
188.736
188.819
188.879
188.949
189.053
189.077
189.255
188.796
188.798
188.812
188.812
188.84
188.842
188.879
188.888
188.93
188.948
188.996
189.02
189.078
189.104
189.174
189.204
189.281
189.32
189.399
189.454
189.522
189.618
189.642
189.81
189.438
189.44
189.453
189.453
189.479
189.481
189.516
189.523
189.563
189.58
189.625
189.646
189.701
189.724
189.791
189.817
189.891
189.926
190.001
190.052
190.116
190.205
190.227
190.389
190.102
190.104
190.117
190.116
190.142
190.142
190.176
190.181
190.219
190.233
190.276
190.295
190.347
190.367
190.43
190.453
190.523
190.554
190.625
190.672
190.732
190.814
190.833
190.99
190.789
190.791
190.803
190.802
190.826
190.825
190.858
190.862
190.898
190.91
190.95
190.966
191.015
191.032
191.092
191.111
191.177
191.204
191.272
191.313
191.37
191.446
191.465
191.609
191.498
191.5
191.512
191.51
191.533
191.531
191.562
191.564
191.598
191.608
191.646
191.659
191.706
191.72
191.776
191.792
191.854
191.877
191.94
191.977
192.031
192.099
192.117
192.252
192.229
192.231
192.243
192.24
192.262
192.259
192.288
192.289
192.321
192.329
192.365
192.375
192.419
192.429
192.482
192.495
192.553
192.572
192.631
192.663
192.712
192.775
192.791
192.917
192.983
192.984
192.995
192.992
193.013
193.009
193.037
193.036
193.066
193.071
193.105
193.113
193.154
193.161
193.211
193.22
193.275
193.289
193.345
193.371
193.417
193.473
193.487
193.604
193.758
193.759
193.77
193.765
193.786
193.78
193.807
193.804
193.833
193.836
193.867
193.872
193.911
193.915
193.961
193.966
194.018
194.028
194.08
194.101
194.143
194.193
194.205
194.313
194.554
194.555
194.565
194.56
194.58
194.573
194.599
194.594
194.621
194.622
194.651
194.653
194.689
194.69
194.733
194.735
194.783
194.789
194.837
194.854
194.892
194.935
194.945
195.043
195.371
195.373
195.382
195.377
195.396
195.387
195.412
195.405
195.431
195.43
195.456
195.456
195.489
195.487
195.527
195.525
195.57
195.572
195.616
195.628
195.662
195.7
195.706
195.795
196.21
196.211
196.22
196.214
196.232
196.223
196.246
196.238
196.262
196.258
196.283
196.28
196.31
196.305
196.342
196.337
196.378
196.375
196.417
196.423
196.455
196.486
196.489
196.569
197.069
197.07
197.079
197.072
197.09
197.079
197.101
197.092
197.113
197.108
197.13
197.126
197.153
197.145
197.179
197.17
197.208
197.201
197.239
197.24
197.268
197.294
197.294
197.365
197.949
197.95
197.959
197.951
197.968
197.956
197.977
197.966
197.986
197.979
197.999
197.992
198.017
198.005
198.037
198.024
198.058
198.047
198.082
198.078
198.103
198.123
198.119
198.182
198.849
198.85
198.859
198.85
198.866
198.854
198.873
198.861
198.879
198.87
198.888
198.879
198.901
198.887
198.915
198.899
198.93
198.915
198.946
198.938
198.958
198.973
198.966
199.021
199.77
199.771
199.779
199.77
199.785
199.772
199.79
199.776
199.793
199.782
199.798
199.786
199.806
199.789
199.814
199.795
199.823
199.803
199.831
199.818
199.835
199.843
199.833
199.881
200.711
200.711
200.719
200.71
200.724
200.71
200.727
200.711
200.727
200.714
200.728
200.713
200.731
200.711
200.734
200.711
200.736
200.712
200.737
200.719
200.732
200.734
200.722
200.762
201.671
201.672
201.679
201.669
201.683
201.668
201.683
201.667
201.68
201.666
201.678
201.661
201.676
201.653
201.674
201.647
201.67
201.642
201.663
201.641
201.651
201.646
201.632
201.663
202.652
202.652
202.659
202.649
202.662
202.645
202.66
202.642
202.654
202.637
202.647
202.628
202.641
202.616
202.633
202.603
202.623
202.591
202.61
202.582
202.59
202.578
202.563
202.585
203.651
203.651
203.658
203.647
203.659
203.642
203.655
203.636
203.646
203.628
203.636
203.615
203.625
203.597
203.612
203.579
203.596
203.56
203.575
203.543
203.549
203.53
203.514
203.528
204.67
204.67
204.676
204.665
204.676
204.658
204.67
204.649
204.658
204.638
204.644
204.621
204.629
204.598
204.61
204.573
204.589
204.548
204.561
204.523
204.528
204.502
204.486
204.489
205.707
205.707
205.713
205.701
205.712
205.692
205.703
205.681
205.688
205.667
205.671
205.645
205.651
205.618
205.628
205.587
205.6
205.555
205.566
205.522
205.526
205.494
205.475
205.471
206.762
206.762
206.768
206.755
206.765
206.745
206.755
206.731
206.737
206.714
206.716
206.688
206.692
206.656
206.664
206.619
206.63
206.58
206.59
206.539
206.543
206.503
206.485
206.471
207.835
207.835
207.841
207.827
207.837
207.816
207.824
207.8
207.804
207.779
207.779
207.749
207.751
207.712
207.718
207.67
207.678
207.624
207.633
207.576
207.579
207.53
207.514
207.491
208.926
208.925
208.931
208.917
208.926
208.904
208.911
208.885
208.888
208.861
208.86
208.828
208.827
208.786
208.79
208.738
208.745
208.685
208.694
208.632
208.633
208.576
208.561
208.529
210.033
210.032
210.037
210.023
210.031
210.008
210.015
209.988
209.989
209.961
209.957
209.923
209.921
209.876
209.879
209.824
209.829
209.764
209.773
209.704
209.705
209.641
209.625
209.586
211.156
211.155
211.16
211.145
211.153
211.129
211.135
211.107
211.107
211.077
211.072
211.036
211.032
210.984
210.985
210.927
210.93
210.862
210.868
210.792
210.796
210.724
210.708
210.66
212.295
212.294
212.298
212.283
212.29
212.266
212.27
212.241
212.24
212.208
212.202
212.164
212.159
212.108
212.108
212.046
212.049
211.974
211.982
211.899
211.902
211.825
211.807
211.753
213.448
213.447
213.452
213.436
213.442
213.417
213.421
213.391
213.388
213.355
213.348
213.307
213.302
213.247
213.248
213.179
213.185
213.101
213.112
213.023
213.024
212.942
212.923
212.862
214.615
214.615
214.619
214.603
214.609
214.583
214.586
214.554
214.551
214.516
214.509
214.465
214.46
214.402
214.401
214.329
214.335
214.248
214.256
214.163
214.163
214.076
214.056
213.989
215.796
215.796
215.799
215.783
215.788
215.762
215.764
215.732
215.728
215.691
215.684
215.637
215.632
215.571
215.57
215.495
215.498
215.41
215.415
215.319
215.317
215.226
215.205
215.131
216.989
216.989
216.992
216.976
216.981
216.955
216.956
216.923
216.919
216.879
216.873
216.823
216.818
216.753
216.753
216.675
216.677
216.585
216.59
216.491
216.487
216.391
216.37
216.29
218.195
218.194
218.197
218.181
218.185
218.159
218.159
218.125
218.121
218.081
218.073
218.022
218.016
217.95
217.948
217.868
217.869
217.776
217.777
217.676
217.671
217.572
217.549
217.464
219.411
219.411
219.413
219.398
219.401
219.375
219.374
219.34
219.335
219.294
219.285
219.234
219.227
219.16
219.156
219.075
219.073
218.979
218.979
218.876
218.868
218.766
218.743
218.652
220.638
220.638
220.64
220.624
220.627
220.601
220.6
220.567
220.559
220.519
220.509
220.457
220.449
220.38
220.376
220.293
220.291
220.195
220.193
220.088
220.08
219.974
219.95
219.855
221.875
221.875
221.877
221.861
221.864
221.837
221.836
221.803
221.793
221.755
221.742
221.691
221.682
221.613
221.607
221.524
221.52
221.423
221.419
221.313
221.303
221.195
221.171
221.07
223.121
223.121
223.124
223.107
223.11
223.083
223.082
223.049
223.038
223.001
222.986
222.936
222.923
222.857
222.849
222.765
222.76
222.661
222.657
222.549
222.539
222.427
222.403
222.298
224.376
224.376
224.379
224.362
224.366
224.339
224.336
224.304
224.292
224.256
224.239
224.191
224.176
224.11
224.101
224.016
224.011
223.911
223.904
223.796
223.784
223.671
223.646
223.538
225.64
225.64
225.643
225.626
225.63
225.602
225.6
225.568
225.555
225.519
225.501
225.454
225.438
225.371
225.36
225.277
225.27
225.168
225.162
225.052
225.04
224.924
224.899
224.788
226.912
226.912
226.915
226.899
226.902
226.875
226.872
226.84
226.827
226.792
226.772
226.725
226.708
226.641
226.629
226.546
226.538
226.436
226.428
226.317
226.304
226.187
226.161
226.048
228.193
228.193
228.196
228.179
228.182
228.155
228.152
228.12
228.106
228.071
228.05
228.004
227.985
227.919
227.905
227.823
227.813
227.711
227.703
227.59
227.576
227.458
227.432
227.316
229.481
229.481
229.484
229.467
229.47
229.443
229.44
229.407
229.393
229.358
229.336
229.29
229.269
229.204
229.189
229.106
229.095
228.993
228.985
228.869
228.856
228.736
228.71
228.592
230.777
230.777
230.779
230.762
230.765
230.737
230.734
230.701
230.686
230.651
230.627
230.582
230.559
230.495
230.479
230.394
230.383
230.281
230.272
230.155
230.142
230.02
229.994
229.875
232.079
232.079
232.081
232.064
232.066
232.038
232.034
232.001
231.985
231.95
231.924
231.879
231.855
231.791
231.775
231.687
231.676
231.575
231.564
231.448
231.433
231.311
231.285
231.164
233.386
233.387
233.389
233.371
233.373
233.344
233.339
233.305
233.289
233.253
233.226
233.182
233.155
233.092
233.073
232.987
232.974
232.871
232.86
232.745
232.73
232.607
232.581
232.459
234.697
234.697
234.699
234.681
234.683
234.653
234.648
234.613
234.596
234.56
234.531
234.488
234.458
234.397
234.373
234.292
234.278
234.172
234.161
234.049
234.031
233.908
233.882
233.759
236.008
236.008
236.01
235.992
235.994
235.964
235.958
235.923
235.905
235.868
235.839
235.796
235.764
235.705
235.679
235.599
235.583
235.478
235.466
235.355
235.337
235.214
235.188
235.065
237.317
237.317
237.319
237.301
237.302
237.272
237.267
237.232
237.214
237.178
237.149
237.106
237.073
237.016
236.987
236.91
236.889
236.791
236.775
236.664
236.646
236.525
236.5
236.377
238.619
238.619
238.622
238.604
238.607
238.577
238.573
238.539
238.522
238.487
238.458
238.417
238.384
238.328
238.298
238.224
238.201
238.106
238.092
237.976
237.962
237.841
237.817
237.694
239.914
239.914
239.918
239.9
239.904
239.876
239.874
239.841
239.826
239.793
239.766
239.727
239.695
239.643
239.612
239.542
239.518
239.426
239.409
239.297
239.282
239.162
239.139
239.017
241.2
241.201
241.205
241.189
241.195
241.169
241.169
241.138
241.126
241.096
241.071
241.035
241.006
240.957
240.928
240.862
240.837
240.751
240.731
240.625
240.609
240.489
240.468
240.345
242.481
242.482
242.488
242.473
242.48
242.456
242.459
242.431
242.422
242.395
242.374
242.342
242.316
242.271
242.246
242.184
242.161
242.079
242.061
241.958
241.943
241.824
241.803
241.68
243.762
243.764
243.77
243.757
243.765
243.743
243.748
243.723
243.716
243.693
243.675
243.647
243.625
243.584
243.563
243.506
243.486
243.408
243.396
243.294
243.283
243.165
243.147
243.022
245.053
245.055
245.061
245.049
245.058
245.038
245.042
245.02
245.014
244.994
244.978
244.954
244.933
244.897
244.88
244.824
244.814
244.734
244.732
244.631
244.628
244.512
244.497
244.376
246.364
246.367
246.373
246.361
246.369
246.349
246.353
246.331
246.326
246.306
246.29
246.267
246.248
246.214
246.199
246.142
246.142
246.057
246.066
245.964
245.969
245.856
245.849
245.735
247.708
247.71
247.716
247.702
247.711
247.688
247.692
247.666
247.66
247.637
247.62
247.595
247.574
247.541
247.522
247.47
247.465
247.387
247.393
247.293
247.304
247.192
247.191
247.083
249.094
249.096
249.101
249.085
249.092
249.066
249.067
249.038
249.028
249.001
248.979
248.949
248.924
248.887
248.861
248.81
248.796
248.722
248.721
248.622
248.634
248.519
248.523
248.414
250.529
250.531
250.534
250.517
250.52
250.491
250.488
250.455
250.439
250.406
250.377
250.341
250.307
250.264
250.229
250.173
250.148
250.068
250.064
249.956
249.968
249.844
249.851
249.734
252.014
252.015
252.017
251.999
251.999
251.968
251.96
251.922
251.899
251.861
251.823
251.781
251.736
251.684
251.637
251.571
251.536
251.443
251.429
251.309
251.314
251.177
251.185
251.053
253.546
253.548
253.549
253.529
253.527
253.492
253.481
253.439
253.411
253.367
253.322
253.272
253.218
253.157
253.098
253.022
252.97
252.865
252.835
252.698
252.691
252.533
252.535
252.38
255.119
255.12
255.121
255.099
255.097
255.059
255.047
255
254.97
254.921
254.872
254.815
254.755
254.685
254.616
254.532
254.461
254.353
254.294
254.15
254.117
253.937
253.925
253.734
256.721
256.722
256.723
256.701
256.698
256.66
256.646
256.598
256.566
256.514
256.464
256.403
256.339
256.265
256.189
256.1
256.017
255.906
255.823
255.68
255.613
255.421
255.384
255.148
258.342
258.342
258.344
258.321
258.319
258.28
258.267
258.219
258.187
258.135
258.084
258.023
257.958
257.883
257.806
257.715
257.628
257.517
257.422
257.283
257.191
257.005
256.941
256.669
259.968
259.969
259.971
259.949
259.947
259.91
259.897
259.85
259.819
259.769
259.718
259.659
259.595
259.523
259.447
259.359
259.273
259.164
259.073
258.935
258.844
258.663
258.595
258.326
261.59
261.591
261.593
261.572
261.571
261.535
261.523
261.479
261.449
261.402
261.354
261.298
261.236
261.168
261.095
261.013
260.93
260.828
260.74
260.61
260.529
260.352
260.296
260.051
263.196
263.197
263.201
263.18
263.181
263.146
263.136
263.094
263.067
263.022
262.977
262.926
262.868
262.805
262.736
262.66
262.582
262.487
262.406
262.285
262.21
262.046
261.995
261.77
264.779
264.781
264.785
264.765
264.767
264.734
264.727
264.687
264.662
264.622
264.579
264.533
264.478
264.421
264.357
264.287
264.215
264.129
264.051
263.943
263.873
263.723
263.676
263.469
266.333
266.335
266.339
266.321
266.324
266.293
266.287
266.251
266.228
266.192
266.152
266.111
266.06
266.009
265.948
265.887
265.819
265.742
265.671
265.571
265.508
265.372
265.327
265.14
267.851
267.854
267.859
267.842
267.846
267.817
267.812
267.78
267.758
267.728
267.689
267.655
267.605
267.563
267.504
267.452
267.387
267.32
267.255
267.163
267.106
266.984
266.942
266.773
269.331
269.334
269.339
269.323
269.328
269.302
269.299
269.269
269.25
269.223
269.188
269.158
269.112
269.076
269.021
268.977
268.916
268.857
268.797
268.715
268.663
268.555
268.515
268.364
270.768
270.772
270.777
270.762
270.769
270.743
270.744
270.714
270.7
270.674
270.644
270.617
270.576
270.545
270.495
270.456
270.4
270.351
270.292
270.224
270.174
270.079
270.042
269.909
272.161
272.165
272.171
272.156
272.165
272.14
272.143
272.116
272.104
272.081
272.055
272.031
271.996
271.966
271.923
271.888
271.839
271.795
271.742
271.686
271.636
271.555
271.52
271.404
273.508
273.511
273.519
273.504
273.515
273.491
273.496
273.47
273.462
273.441
273.419
273.397
273.366
273.341
273.303
273.273
273.228
273.193
273.143
273.096
273.049
272.98
272.949
272.847
274.808
274.811
274.819
274.805
274.817
274.794
274.801
274.777
274.771
274.753
274.734
274.715
274.689
274.667
274.633
274.608
274.569
274.537
274.493
274.456
274.411
274.355
274.324
274.238
276.06
276.063
276.072
276.058
276.072
276.049
276.059
276.035
276.033
276.016
276
275.984
275.961
275.943
275.914
275.893
275.858
275.834
275.793
275.762
275.721
275.677
275.646
275.575
277.264
277.267
277.276
277.264
277.276
277.257
277.266
277.246
277.244
277.231
277.217
277.205
277.185
277.17
277.144
277.128
277.097
277.077
277.041
277.019
276.98
276.946
276.916
276.858
278.421
278.423
278.434
278.419
278.436
278.413
278.428
278.406
278.409
278.396
278.386
278.375
278.358
278.347
278.325
278.312
278.285
278.271
278.239
278.221
278.187
278.162
278.134
278.088
279.529
279.532
279.541
279.53
279.544
279.527
279.538
279.522
279.523
279.514
279.505
279.498
279.483
279.475
279.456
279.447
279.424
279.413
279.385
279.374
279.343
279.325
279.299
279.264
280.591
280.594
280.603
280.593
280.607
280.591
280.603
280.588
280.592
280.583
280.577
280.571
280.56
280.555
280.538
280.533
280.513
280.507
280.483
280.475
280.448
280.438
280.411
280.388
281.607
281.609
281.62
281.607
281.626
281.606
281.624
281.606
281.614
281.606
281.602
281.598
281.589
281.586
281.573
281.57
281.554
281.551
281.529
281.528
281.503
281.499
281.475
281.461
282.578
282.581
282.587
282.585
282.589
282.588
282.589
282.587
282.586
282.585
282.58
282.58
282.572
282.572
282.56
282.561
282.547
282.548
282.53
282.531
282.51
282.511
282.488
282.483
283.504
283.506
283.519
283.503
283.529
283.502
283.53
283.507
283.523
283.514
283.516
283.514
283.51
283.511
283.502
283.505
283.494
283.498
283.482
283.489
283.469
283.475
283.455
283.457
284.389
284.392
284.395
284.4
284.396
284.406
284.398
284.409
284.401
284.409
284.403
284.408
284.403
284.407
284.4
284.405
284.396
284.403
284.391
284.399
284.383
284.394
284.374
284.384
285.23
285.231
285.244
285.229
285.255
285.231
285.26
285.238
285.258
285.248
285.255
285.255
285.255
285.259
285.255
285.262
285.255
285.264
285.253
285.267
285.252
285.266
285.249
285.264
286.032
286.037
286.038
286.045
286.04
286.053
286.044
286.059
286.049
286.063
286.057
286.066
286.063
286.071
286.068
286.077
286.071
286.083
286.075
286.09
286.077
286.096
286.08
286.1
286.796
286.797
286.807
286.798
286.816
286.802
286.823
286.81
286.827
286.821
286.83
286.832
286.834
286.841
286.841
286.851
286.847
286.861
286.854
286.872
286.861
286.883
286.869
286.893
287.521
287.525
287.527
287.532
287.532
287.54
287.538
287.549
287.545
287.557
287.555
287.565
287.565
287.574
287.575
287.587
287.584
287.6
287.595
287.614
287.605
287.63
287.616
287.644
288.211
288.213
288.219
288.218
288.227
288.225
288.235
288.234
288.242
288.245
288.251
288.257
288.26
288.27
288.272
288.285
288.284
288.301
288.296
288.319
288.311
288.338
288.325
288.356
288.866
288.87
288.872
288.876
288.878
288.884
288.887
288.893
288.896
288.904
288.908
288.916
288.92
288.93
288.933
288.947
288.947
288.965
288.963
288.987
288.979
289.009
288.997
289.031
289.489
289.491
289.496
289.495
289.504
289.504
289.511
289.515
289.52
289.528
289.532
289.542
289.545
289.557
289.56
289.576
289.576
289.596
289.594
289.619
289.614
289.644
289.633
289.67
290.079
290.083
290.083
290.091
290.088
290.1
290.099
290.108
290.112
290.119
290.125
290.134
290.139
290.151
290.156
290.171
290.173
290.193
290.193
290.22
290.215
290.245
290.236
290.275
290.639
290.641
290.647
290.644
290.657
290.652
290.665
290.665
290.674
290.681
290.686
290.697
290.702
290.714
290.72
290.736
290.738
290.76
290.76
290.787
290.784
290.815
290.807
290.846
291.171
291.175
291.173
291.184
291.177
291.194
291.187
291.204
291.202
291.215
291.218
291.23
291.235
291.248
291.254
291.271
291.274
291.296
291.297
291.325
291.322
291.355
291.347
291.389
291.675
291.676
291.682
291.679
291.693
291.685
291.703
291.697
291.713
291.715
291.725
291.734
291.741
291.754
291.761
291.778
291.782
291.804
291.806
291.834
291.833
291.866
291.859
291.9
292.152
292.156
292.154
292.164
292.159
292.175
292.168
292.187
292.182
292.199
292.2
292.214
292.219
292.234
292.24
292.258
292.262
292.285
292.287
292.316
292.315
292.35
292.342
292.386
292.605
292.606
292.612
292.61
292.621
292.617
292.632
292.628
292.644
292.645
292.657
292.665
292.674
292.687
292.695
292.712
292.717
292.741
292.743
292.772
292.772
292.807
292.801
292.844
293.033
293.037
293.036
293.044
293.042
293.054
293.051
293.066
293.065
293.08
293.083
293.097
293.102
293.117
293.125
293.143
293.148
293.171
293.175
293.204
293.203
293.239
293.233
293.278
293.441
293.441
293.447
293.445
293.455
293.453
293.465
293.466
293.477
293.483
293.491
293.502
293.51
293.524
293.532
293.55
293.556
293.579
293.582
293.612
293.613
293.648
293.643
293.687
293.825
293.828
293.827
293.836
293.832
293.845
293.843
293.855
293.858
293.869
293.875
293.887
293.895
293.909
293.917
293.935
293.941
293.965
293.969
293.997
293.999
294.034
294.029
294.075
294.19
294.19
294.196
294.193
294.205
294.201
294.214
294.215
294.225
294.232
294.24
294.252
294.259
294.274
294.281
294.3
294.306
294.33
294.333
294.363
294.364
294.399
294.395
294.439
294.535
294.537
294.537
294.545
294.542
294.554
294.553
294.564
294.567
294.579
294.584
294.597
294.604
294.619
294.627
294.645
294.651
294.675
294.679
294.707
294.71
294.745
294.741
294.784
294.862
294.863
294.867
294.867
294.874
294.875
294.884
294.887
294.897
294.903
294.912
294.923
294.931
294.945
294.953
294.971
294.978
295.002
295.006
295.034
295.035
295.071
295.067
295.111
295.172
295.173
295.175
295.177
295.183
295.186
295.192
295.198
295.204
295.214
295.22
295.233
295.24
295.254
295.262
295.28
295.287
295.31
295.314
295.343
295.344
295.381
295.377
295.418
295.465
295.466
295.467
295.472
295.472
295.481
295.482
295.492
295.496
295.507
295.513
295.525
295.532
295.547
295.555
295.572
295.579
295.602
295.607
295.635
295.636
295.672
295.668
295.711
295.742
295.743
295.747
295.745
295.755
295.753
295.765
295.765
295.777
295.781
295.791
295.801
295.809
295.823
295.832
295.849
295.856
295.878
295.883
295.911
295.913
295.948
295.946
295.986
296.005
296.007
296.006
296.014
296.01
296.023
296.019
296.034
296.033
296.048
296.051
296.065
296.07
296.085
296.093
296.111
296.117
296.14
296.145
296.173
296.174
296.208
296.206
296.248
296.254
296.253
296.259
296.255
296.268
296.261
296.278
296.273
296.289
296.291
296.302
296.311
296.319
296.333
296.341
296.358
296.365
296.387
296.392
296.42
296.422
296.455
296.454
296.492
296.489
296.492
296.488
296.5
296.491
296.51
296.499
296.52
296.515
296.531
296.533
296.547
296.553
296.568
296.575
296.592
296.599
296.622
296.626
296.653
296.654
296.69
296.686
296.727
296.713
296.711
296.72
296.71
296.73
296.715
296.739
296.728
296.748
296.747
296.759
296.768
296.776
296.789
296.797
296.814
296.821
296.843
296.847
296.874
296.877
296.909
296.908
296.945
296.922
296.927
296.92
296.937
296.92
296.947
296.929
296.956
296.945
296.965
296.965
296.98
296.985
297
297.007
297.024
297.03
297.052
297.056
297.083
297.085
297.117
297.116
297.154
297.123
297.121
297.131
297.119
297.141
297.124
297.15
297.137
297.159
297.155
297.169
297.176
297.185
297.198
297.205
297.222
297.229
297.25
297.254
297.281
297.284
297.313
297.313
297.35
297.311
297.315
297.308
297.325
297.309
297.335
297.317
297.344
297.333
297.353
297.352
297.367
297.371
297.386
297.392
297.41
297.416
297.437
297.441
297.468
297.468
297.502
297.499
297.536
297.491
297.488
297.498
297.488
297.507
297.493
297.516
297.505
297.524
297.523
297.535
297.542
297.55
297.564
297.57
297.587
297.593
297.614
297.618
297.643
297.646
297.676
297.675
297.711
297.658
297.663
297.656
297.672
297.658
297.681
297.666
297.689
297.681
297.699
297.699
297.713
297.718
297.732
297.737
297.755
297.76
297.781
297.785
297.812
297.812
297.843
297.841
297.877
297.82
297.818
297.825
297.818
297.833
297.824
297.841
297.836
297.85
297.852
297.862
297.87
297.877
297.89
297.896
297.914
297.918
297.94
297.943
297.968
297.97
298
297.999
298.033
297.97
297.973
297.969
297.98
297.972
297.988
297.981
297.997
297.993
298.008
298.009
298.022
298.027
298.041
298.046
298.064
298.069
298.088
298.092
298.119
298.119
298.148
298.147
298.181
298.114
298.113
298.117
298.116
298.124
298.122
298.132
298.133
298.141
298.147
298.154
298.164
298.169
298.183
298.188
298.205
298.209
298.231
298.234
298.257
298.259
298.289
298.287
298.32
298.248
298.251
298.249
298.256
298.253
298.263
298.261
298.272
298.272
298.283
298.287
298.299
298.303
298.318
298.322
298.339
298.344
298.363
298.366
298.393
298.393
298.42
298.42
298.452
298.377
298.377
298.379
298.38
298.385
298.386
298.392
298.396
298.402
298.409
298.415
298.426
298.43
298.445
298.448
298.465
298.468
298.492
298.492
298.516
298.516
298.548
298.544
298.577
298.497
298.499
298.498
298.503
298.502
298.51
298.51
298.519
298.52
298.531
298.534
298.546
298.55
298.565
298.567
298.585
298.59
298.608
298.611
298.636
298.637
298.663
298.663
298.694
298.611
298.612
298.613
298.615
298.618
298.622
298.625
298.631
298.635
298.644
298.648
298.659
298.663
298.678
298.68
298.697
298.7
298.722
298.724
298.747
298.747
298.777
298.773
298.805
298.719
298.72
298.72
298.723
298.725
298.73
298.732
298.739
298.742
298.751
298.754
298.766
298.769
298.784
298.786
298.804
298.808
298.827
298.829
298.853
298.854
298.88
298.879
298.909
298.82
298.821
298.822
298.825
298.826
298.831
298.833
298.841
298.842
298.852
298.854
298.867
298.87
298.884
298.887
298.904
298.907
298.927
298.929
298.953
298.952
298.981
298.977
299.008
298.915
298.916
298.917
298.919
298.922
298.925
298.929
298.935
298.939
298.947
298.95
298.961
298.964
298.979
298.982
298.999
299.001
299.021
299.023
299.046
299.046
299.073
299.072
299.1
299.005
299.006
299.007
299.01
299.011
299.016
299.018
299.025
299.027
299.037
299.039
299.051
299.054
299.068
299.071
299.087
299.09
299.109
299.111
299.135
299.134
299.161
299.158
299.188
299.09
299.091
299.092
299.095
299.095
299.101
299.102
299.11
299.112
299.121
299.123
299.135
299.138
299.151
299.155
299.171
299.172
299.194
299.195
299.217
299.217
299.243
299.242
299.269
299.17
299.17
299.172
299.173
299.177
299.178
299.184
299.187
299.192
299.199
299.203
299.214
299.217
299.23
299.233
299.25
299.252
299.27
299.272
299.295
299.294
299.321
299.318
299.347
299.244
299.245
299.245
299.25
299.248
299.257
299.254
299.265
299.264
299.275
299.276
299.288
299.291
299.304
299.307
299.323
299.324
299.345
299.345
299.368
299.368
299.393
299.391
299.418
299.314
299.314
299.318
299.315
299.324
299.32
299.33
299.329
299.338
299.342
299.347
299.356
299.36
299.373
299.376
299.392
299.394
299.412
299.414
299.436
299.436