/*--------------------------------*- C++ -*----------------------------------*\
  =========                 |
  \\      /  F ield         | OpenFOAM: The Open Source CFD Toolbox
   \\    /   O peration     | Website:  https://openfoam.org
    \\  /    A nd           | Version:  10
     \\/     M anipulation  |
\*---------------------------------------------------------------------------*/
FoamFile
{
    format      ascii;
    class       volVectorField;
    location    "0.28";
    object      U;
}
// * * * * * * * * * * * * * * * * * * * * * * * * * * * * * * * * * * * * * //

dimensions      [0 1 -1 0 0 0 0];

internalField   nonuniform List<vector> 
4176
(
(497.488 -0.0142622 -4.69688e-09)
(497.474 0.0639405 1.48309e-09)
(497.449 0.00117337 -4.53306e-10)
(497.4 0.0906759 7.44862e-11)
(497.346 0.0506901 4.73851e-11)
(497.271 0.0898824 -4.6285e-10)
(497.18 0.125502 -5.02131e-10)
(497.087 0.0609172 1.87022e-12)
(496.954 0.224881 3.65678e-10)
(496.848 0.00530018 4.5369e-10)
(496.672 0.343935 3.63411e-10)
(496.549 -0.0686257 4.10883e-10)
(496.338 0.469317 2.71356e-10)
(496.191 -0.138956 -1.04465e-10)
(495.956 0.567318 -3.1894e-10)
(495.773 -0.134988 -2.6401e-10)
(495.536 0.527937 -2.59004e-10)
(495.286 0.0242419 -6.32536e-11)
(495.073 0.334398 3.00528e-10)
(494.73 0.323721 2.0615e-10)
(494.576 -0.0175561 -1.09043e-10)
(494.097 0.772485 -1.7574e-10)
(494.066 -0.516809 5.29163e-11)
(493.444 1.44315 1.52032e-10)
(497.47 0.00480565 -4.69636e-09)
(497.455 0.114759 1.48357e-09)
(497.43 0.0762128 -4.53436e-10)
(497.379 0.203576 7.38445e-11)
(497.325 0.185935 4.74171e-11)
(497.247 0.264596 -4.6283e-10)
(497.156 0.321403 -5.0294e-10)
(497.059 0.296009 1.90592e-12)
(496.924 0.481837 3.66356e-10)
(496.814 0.298431 4.53955e-10)
(496.635 0.662451 3.63104e-10)
(496.508 0.279202 4.10903e-10)
(496.293 0.849897 2.6982e-10)
(496.141 0.258924 -1.04421e-10)
(495.901 1.01201 -3.18822e-10)
(495.713 0.302683 -2.63561e-10)
(495.47 1.04169 -2.60188e-10)
(495.215 0.511269 -6.33138e-11)
(494.996 0.913938 2.99552e-10)
(494.646 0.855885 2.05754e-10)
(494.491 0.6279 -1.09064e-10)
(493.992 1.33166 -1.78096e-10)
(493.955 0.124734 5.36773e-11)
(493.269 1.99334 1.51618e-10)
(497.413 0.0231516 -4.70037e-09)
(497.398 0.161409 1.48295e-09)
(497.375 0.14738 -4.55387e-10)
(497.324 0.307909 7.49466e-11)
(497.272 0.313529 4.70869e-11)
(497.194 0.426781 -4.63832e-10)
(497.108 0.505518 -5.00459e-10)
(497.01 0.515241 3.62098e-12)
(496.881 0.722555 3.68363e-10)
(496.772 0.573093 4.54318e-10)
(496.599 0.96023 3.62366e-10)
(496.473 0.606607 4.10247e-10)
(496.263 1.20569 2.71512e-10)
(496.116 0.634515 -1.04385e-10)
(495.877 1.42823 -3.19162e-10)
(495.697 0.714431 -2.62429e-10)
(495.454 1.52219 -2.62959e-10)
(495.208 0.966502 -6.49015e-11)
(494.993 1.45675 3.0028e-10)
(494.652 1.34457 2.05335e-10)
(494.506 1.24715 -1.10088e-10)
(494.015 1.8828 -1.75496e-10)
(493.98 0.838348 5.39586e-11)
(493.271 2.60951 1.52555e-10)
(497.309 0.0418828 -4.69895e-09)
(497.294 0.20891 1.48736e-09)
(497.271 0.219868 -4.5628e-10)
(497.22 0.414219 7.80978e-11)
(497.168 0.44349 4.63401e-11)
(497.09 0.592134 -4.68374e-10)
(497.004 0.693072 -5.00601e-10)
(496.907 0.738871 9.95516e-13)
(496.777 0.967764 3.61655e-10)
(496.668 0.853404 4.57885e-10)
(496.494 1.26356 3.63501e-10)
(496.37 0.940968 4.0873e-10)
(496.157 1.56837 2.73133e-10)
(496.012 1.01872 -1.05989e-10)
(495.771 1.85312 -3.26403e-10)
(495.593 1.13592 -2.63759e-10)
(495.346 2.01664 -2.60596e-10)
(495.096 1.42704 -6.51993e-11)
(494.891 2.00891 3.02627e-10)
(494.54 1.84149 2.04734e-10)
(494.399 1.85769 -1.12968e-10)
(493.915 2.42059 -1.76372e-10)
(493.885 1.52539 5.21751e-11)
(493.205 3.20627 1.43035e-10)
(497.157 0.0602113 -4.70118e-09)
(497.143 0.255429 1.49398e-09)
(497.119 0.290781 -4.52443e-10)
(497.069 0.5184 7.81868e-11)
(497.018 0.570619 4.96334e-11)
(496.941 0.754301 -4.63286e-10)
(496.855 0.876539 -5.02773e-10)
(496.759 0.958418 3.03687e-12)
(496.631 1.20764 3.67186e-10)
(496.524 1.12888 4.56027e-10)
(496.351 1.56035 3.63901e-10)
(496.229 1.26977 4.11792e-10)
(496.017 1.92364 2.69795e-10)
(495.876 1.39648 -1.07043e-10)
(495.634 2.27085 -3.24593e-10)
(495.461 1.55062 -2.66424e-10)
(495.21 2.51198 -2.61749e-10)
(494.966 1.87022 -6.43544e-11)
(494.764 2.55394 2.97221e-10)
(494.41 2.33939 2.10525e-10)
(494.271 2.45215 -1.05316e-10)
(493.793 2.9464 -1.73467e-10)
(493.762 2.16799 5.57571e-11)
(493.103 3.7641 1.53815e-10)
(496.956 0.078533 -4.71394e-09)
(496.942 0.301654 1.49151e-09)
(496.919 0.361543 -4.50946e-10)
(496.869 0.621998 7.36176e-11)
(496.819 0.697446 3.8491e-11)
(496.742 0.915613 -4.68497e-10)
(496.657 1.05958 -5.00694e-10)
(496.561 1.17692 -9.26867e-13)
(496.435 1.44693 3.67828e-10)
(496.327 1.40328 4.6166e-10)
(496.157 1.85625 3.64409e-10)
(496.034 1.59774 4.06307e-10)
(495.825 2.2773 2.67177e-10)
(495.684 1.77414 -1.0472e-10)
(495.443 2.68528 -3.27766e-10)
(495.274 1.96959 -2.63965e-10)
(495.018 3.00263 -2.51296e-10)
(494.786 2.31313 -6.14242e-11)
(494.57 3.10345 3.07106e-10)
(494.229 2.83619 2.12682e-10)
(494.084 3.04836 -1.09629e-10)
(493.61 3.47438 -1.84254e-10)
(493.574 2.81488 5.25075e-11)
(492.913 4.32097 1.54053e-10)
(496.708 0.0966783 -4.71403e-09)
(496.693 0.347218 1.48893e-09)
(496.671 0.431517 -4.66994e-10)
(496.62 0.724161 7.37869e-11)
(496.572 0.822821 5.31881e-11)
(496.495 1.07471 -4.67882e-10)
(496.412 1.24051 -5.12374e-10)
(496.316 1.39247 3.60669e-12)
(496.192 1.68347 3.74471e-10)
(496.084 1.67418 4.57078e-10)
(495.916 2.14871 3.61794e-10)
(495.795 1.92191 4.17512e-10)
(495.587 2.62656 2.83023e-10)
(495.448 2.14815 -1.0287e-10)
(495.208 3.09362 -3.23451e-10)
(495.043 2.3869 -2.60806e-10)
(494.784 3.48226 -2.6084e-10)
(494.564 2.75785 -6.69956e-11)
(494.337 3.65085 3.01671e-10)
(494.009 3.32108 2.10233e-10)
(493.859 3.64348 -1.11134e-10)
(493.392 4.00192 -1.84425e-10)
(493.352 3.47145 5.48027e-11)
(492.692 4.88314 1.59101e-10)
(496.41 0.114688 -4.72985e-09)
(496.396 0.392318 1.49933e-09)
(496.374 0.500872 -4.46705e-10)
(496.324 0.825307 7.73389e-11)
(496.275 0.947029 4.03402e-11)
(496.199 1.23221 -4.65266e-10)
(496.117 1.41969 -4.96178e-10)
(496.022 1.60588 2.3669e-12)
(495.899 1.91768 3.56418e-10)
(495.793 1.94247 4.54775e-10)
(495.626 2.43824 3.72884e-10)
(495.506 2.2432 4.12024e-10)
(495.3 2.97222 2.57504e-10)
(495.163 2.51919 -1.11638e-10)
(494.924 3.49745 -3.16587e-10)
(494.763 2.80171 -2.69034e-10)
(494.503 3.95449 -2.57299e-10)
(494.292 3.20016 -5.03593e-11)
(494.059 4.19357 3.05595e-10)
(493.742 3.80149 1.95506e-10)
(493.586 4.23682 -1.11381e-10)
(493.126 4.52468 -1.68379e-10)
(493.082 4.12268 5.22748e-11)
(492.431 5.43808 1.35902e-10)
(496.065 0.132517 -4.74017e-09)
(496.05 0.436865 1.48592e-09)
(496.028 0.569447 -4.68409e-10)
(495.979 0.92523 6.52139e-11)
(495.931 1.06978 4.0195e-11)
(495.855 1.38778 -4.73933e-10)
(495.775 1.5967 -5.11826e-10)
(495.68 1.81664 -8.69335e-13)
(495.559 2.14897 3.63186e-10)
(495.453 2.20747 4.5194e-10)
(495.289 2.72409 3.61316e-10)
(495.17 2.56072 4.10693e-10)
(494.966 3.31341 2.65953e-10)
(494.832 2.88624 -1.10497e-10)
(494.594 3.89584 -3.235e-10)
(494.436 3.21268 -2.6611e-10)
(494.176 4.41823 -2.61686e-10)
(493.973 3.6395 -6.13438e-11)
(493.734 4.72947 3.02234e-10)
(493.43 4.27522 2.02379e-10)
(493.268 4.82764 -1.13454e-10)
(492.817 5.04273 -1.79531e-10)
(492.77 4.7695 5.40294e-11)
(492.127 5.98641 1.52269e-10)
(495.67 0.150163 -4.72404e-09)
(495.656 0.480869 1.51509e-09)
(495.635 0.637238 -4.49692e-10)
(495.585 1.02395 8.8459e-11)
(495.538 1.19108 5.86743e-11)
(495.463 1.54145 -4.57271e-10)
(495.383 1.77153 -4.95216e-10)
(495.29 2.02478 1.65242e-11)
(495.17 2.3773 3.81827e-10)
(495.066 2.46914 4.68929e-10)
(494.903 3.00617 3.79883e-10)
(494.786 2.87434 4.26782e-10)
(494.584 3.65002 2.84537e-10)
(494.452 3.24904 -9.79821e-11)
(494.216 4.28871 -3.10059e-10)
(494.062 3.61951 -2.55564e-10)
(493.802 4.87384 -2.47969e-10)
(493.607 4.07506 -5.03187e-11)
(493.364 5.25788 3.16206e-10)
(493.071 4.74262 2.13954e-10)
(492.903 5.41389 -1.01439e-10)
(492.463 5.55422 -1.67448e-10)
(492.412 5.41001 6.34907e-11)
(491.779 6.52643 1.61444e-10)
(495.228 0.167599 -4.74474e-09)
(495.214 0.524273 1.50406e-09)
(495.192 0.704147 -4.59445e-10)
(495.143 1.12135 8.10804e-11)
(495.097 1.31076 5.17717e-11)
(495.023 1.69305 -4.6556e-10)
(494.944 1.94398 -5.00653e-10)
(494.852 2.23008 1.47195e-11)
(494.733 2.60242 3.8037e-10)
(494.631 2.7272 4.67539e-10)
(494.469 3.28414 3.80472e-10)
(494.355 3.18363 4.29528e-10)
(494.155 3.98157 2.87205e-10)
(494.025 3.60702 -9.64391e-11)
(493.791 4.67555 -3.0564e-10)
(493.641 4.02149 -2.49714e-10)
(493.382 5.32119 -2.40525e-10)
(493.193 4.50632 -4.40244e-11)
(492.947 5.77794 3.26755e-10)
(492.666 5.2041 2.24697e-10)
(492.492 5.99305 -1.13248e-10)
(492.065 6.05722 -2.01427e-10)
(492.009 6.04461 3.43048e-11)
(491.386 7.05769 1.30344e-10)
(494.737 0.184803 -4.75302e-09)
(494.723 0.567033 1.50718e-09)
(494.702 0.770096 -4.62837e-10)
(494.653 1.21733 7.57784e-11)
(494.608 1.42871 4.654e-11)
(494.534 1.84247 -4.71951e-10)
(494.456 2.11391 -5.09096e-10)
(494.365 2.43242 4.8798e-12)
(494.248 2.82416 3.7083e-10)
(494.147 2.98148 4.58445e-10)
(493.988 3.55779 3.70272e-10)
(493.875 3.48835 4.20546e-10)
(493.677 4.30778 2.76261e-10)
(493.551 3.95978 -1.06355e-10)
(493.318 5.05599 -3.20451e-10)
(493.172 4.418 -2.63574e-10)
(492.914 5.76034 -2.57721e-10)
(492.733 4.93292 -5.72933e-11)
(492.483 6.28904 3.08409e-10)
(492.214 5.65847 2.06218e-10)
(492.035 6.56431 -1.08452e-10)
(491.62 6.55119 -1.72195e-10)
(491.561 6.67169 6.03141e-11)
(490.949 7.57954 1.56881e-10)
(494.197 0.201745 -4.76197e-09)
(494.183 0.60909 1.50723e-09)
(494.162 0.834982 -4.69216e-10)
(494.114 1.31177 7.00146e-11)
(494.07 1.54477 3.8058e-11)
(493.996 1.98953 -4.84749e-10)
(493.92 2.28111 -5.23982e-10)
(493.83 2.63157 -1.15817e-11)
(493.715 3.04231 3.54424e-10)
(493.615 3.23175 4.40139e-10)
(493.458 3.82688 3.44366e-10)
(493.348 3.7882 3.94688e-10)
(493.152 4.62834 2.43387e-10)
(493.028 4.30687 -1.12162e-10)
(492.798 5.42957 -2.96844e-10)
(492.656 4.80836 -2.46384e-10)
(492.4 6.19115 -2.39666e-10)
(492.225 5.35449 -4.47995e-11)
(491.973 6.79049 3.21081e-10)
(491.715 6.10506 2.16531e-10)
(491.532 7.12684 -1.0045e-10)
(491.13 7.03524 -1.67097e-10)
(491.067 7.29007 6.57082e-11)
(490.468 8.0915 1.601e-10)
(493.608 0.218402 -4.76296e-09)
(493.594 0.65039 1.53216e-09)
(493.574 0.898714 -4.70589e-10)
(493.526 1.40455 5.06584e-11)
(493.483 1.65876 3.48872e-11)
(493.41 2.13403 -4.76419e-10)
(493.336 2.44535 -5.03358e-10)
(493.247 2.82732 2.59158e-11)
(493.133 3.25661 3.74391e-10)
(493.036 3.47776 4.41149e-10)
(492.88 4.09114 3.57792e-10)
(492.772 4.0829 4.18424e-10)
(492.579 4.94295 2.85673e-10)
(492.458 4.64794 -9.32461e-11)
(492.23 5.79595 -3.30292e-10)
(492.093 5.19207 -2.87474e-10)
(491.838 6.61321 -2.76101e-10)
(491.67 5.77042 -6.33083e-11)
(491.416 7.28184 3.15493e-10)
(491.17 6.54341 2.22209e-10)
(490.983 7.67999 -1.12963e-10)
(490.593 7.50837 -1.96024e-10)
(490.528 7.89838 4.89493e-11)
(489.941 8.59303 1.57423e-10)
(492.97 0.23475 -4.78705e-09)
(492.956 0.690882 1.49427e-09)
(492.936 0.961201 -4.62252e-10)
(492.889 1.49554 1.07226e-10)
(492.847 1.77052 6.06001e-11)
(492.775 2.27577 -4.74222e-10)
(492.702 2.60639 -5.2391e-10)
(492.615 3.01938 -1.97064e-11)
(492.503 3.46675 3.7223e-10)
(492.407 3.71918 4.83827e-10)
(492.254 4.35027 3.79028e-10)
(492.149 4.37213 4.12963e-10)
(491.958 5.25132 2.51283e-10)
(491.841 4.98266 -1.15086e-10)
(491.615 6.15478 -3.06506e-10)
(491.482 5.56864 -2.58507e-10)
(491.229 7.02607 -2.65917e-10)
(491.068 6.17999 -7.45937e-11)
(490.813 7.76248 2.7501e-10)
(490.578 6.97321 1.93086e-10)
(490.387 8.22337 -1.00167e-10)
(490.011 7.96973 -1.71841e-10)
(489.944 8.49538 4.92077e-11)
(489.37 9.0836 1.3221e-10)
(492.283 0.250766 -4.78174e-09)
(492.269 0.73052 1.54629e-09)
(492.25 1.02236 -4.7017e-10)
(492.203 1.58462 4.76067e-11)
(492.162 1.87989 3.30964e-11)
(492.092 2.41456 -4.75496e-10)
(492.02 2.76399 -4.96498e-10)
(491.934 3.20745 3.39732e-11)
(491.824 3.67241 3.77084e-10)
(491.73 3.95566 4.43715e-10)
(491.58 4.60389 3.65283e-10)
(491.477 4.65552 4.27156e-10)
(491.289 5.55311 2.95737e-10)
(491.175 5.31065 -1.18975e-10)
(490.952 6.50575 -3.63321e-10)
(490.824 5.93766 -2.84058e-10)
(490.573 7.42937 -2.66314e-10)
(490.418 6.58238 -4.95582e-11)
(490.164 8.23164 3.31198e-10)
(489.94 7.39419 1.99581e-10)
(489.745 8.75631 -1.39313e-10)
(489.383 8.41901 -1.85141e-10)
(489.312 9.08049 6.26943e-11)
(488.753 9.5625 1.69888e-10)
(491.546 0.266431 -4.80686e-09)
(491.533 0.769259 1.51152e-09)
(491.514 1.08212 -4.89127e-10)
(491.468 1.67168 4.38962e-11)
(491.427 1.98671 4.38483e-11)
(491.358 2.55019 -4.49803e-10)
(491.288 2.91788 -4.93492e-10)
(491.204 3.39126 1.58807e-11)
(491.097 3.87323 3.74733e-10)
(491.005 4.18681 4.55849e-10)
(490.857 4.85158 3.54627e-10)
(490.757 4.93263 3.95997e-10)
(490.572 5.84788 2.76363e-10)
(490.461 5.63149 -8.87049e-11)
(490.241 6.84851 -3.13125e-10)
(490.118 6.29872 -2.60881e-10)
(489.869 7.82287 -2.62767e-10)
(489.722 6.97676 -6.58324e-11)
(489.467 8.6885 2.89284e-10)
(489.255 7.80601 1.76413e-10)
(489.057 9.2773 -1.51113e-10)
(488.71 8.85689 -1.82005e-10)
(488.634 9.65414 8.07443e-11)
(488.09 10.0284 1.66778e-10)
(490.76 0.281718 -4.8101e-09)
(490.746 0.807045 1.53906e-09)
(490.728 1.14039 -4.56233e-10)
(490.683 1.75661 9.86267e-11)
(490.643 2.09083 6.71208e-11)
(490.576 2.68247 -4.55198e-10)
(490.507 3.06782 -4.86499e-10)
(490.425 3.57049 4.04531e-11)
(490.32 4.06888 4.16242e-10)
(490.23 4.41224 4.68697e-10)
(490.086 5.09292 3.39188e-10)
(489.988 5.20297 3.92997e-10)
(489.806 6.13516 2.43624e-10)
(489.7 5.94468 -1.40858e-10)
(489.483 7.18262 -3.55716e-10)
(489.364 6.65141 -2.8635e-10)
(489.119 8.2063 -2.79907e-10)
(488.977 7.36238 -6.91307e-11)
(488.724 9.1324 3.02717e-10)
(488.523 8.20838 2.04813e-10)
(488.322 9.78591 -1.07774e-10)
(487.99 9.28292 -1.67791e-10)
(487.91 10.2155 6.97434e-11)
(487.382 10.4809 1.70975e-10)
(489.923 0.2966 -4.82828e-09)
(489.91 0.843815 1.52898e-09)
(489.892 1.19706 -4.77772e-10)
(489.848 1.83927 7.24821e-11)
(489.81 2.19206 3.43336e-11)
(489.743 2.81118 -4.99469e-10)
(489.677 3.21356 -5.33237e-10)
(489.596 3.74487 -9.17673e-12)
(489.494 4.259 3.5876e-10)
(489.407 4.63155 4.45375e-10)
(489.265 5.32745 3.52827e-10)
(489.171 5.46605 3.97886e-10)
(488.992 6.41444 2.39533e-10)
(488.89 6.24967 -1.49496e-10)
(488.676 7.50756 -3.7431e-10)
(488.563 6.99516 -3.09529e-10)
(488.32 8.57921 -2.67434e-10)
(488.186 7.73871 -2.80752e-11)
(487.934 9.56289 3.42992e-10)
(487.745 8.60089 2.31128e-10)
(487.541 10.2817 -8.71854e-11)
(487.223 9.6968 -1.56677e-10)
(487.139 10.7639 7.81036e-11)
(486.628 10.9195 1.75363e-10)
(489.037 0.311041 -4.85613e-09)
(489.024 0.879491 1.54376e-09)
(489.007 1.25201 -4.49683e-10)
(488.963 1.91948 7.75252e-11)
(488.926 2.2902 6.00844e-11)
(488.861 2.93611 -4.51319e-10)
(488.796 3.35484 -5.12467e-10)
(488.718 3.91411 -1.28918e-11)
(488.618 4.44327 3.77811e-10)
(488.534 4.84439 4.85425e-10)
(488.395 5.55477 3.67222e-10)
(488.304 5.72141 4.2828e-10)
(488.129 6.6852 2.89708e-10)
(488.031 6.54586 -1.29955e-10)
(487.822 7.82274 -3.29802e-10)
(487.713 7.32934 -2.50193e-10)
(487.474 8.94108 -2.72563e-10)
(487.347 8.1052 -9.02843e-11)
(487.097 9.97957 2.93819e-10)
(486.919 8.98312 2.04144e-10)
(486.712 10.764 -1.40782e-10)
(486.41 10.0982 -1.84882e-10)
(486.322 11.2988 6.58151e-11)
(485.828 11.3436 1.38913e-10)
(488.1 0.325003 -4.84836e-09)
(488.087 0.913984 1.55923e-09)
(488.071 1.30509 -4.5122e-10)
(488.028 1.99707 1.12168e-10)
(487.992 2.38503 7.82685e-11)
(487.929 3.05699 -4.90556e-10)
(487.866 3.49138 -5.59397e-10)
(487.79 4.0779 -2.145e-11)
(487.693 4.62137 3.60738e-10)
(487.611 5.05039 4.55334e-10)
(487.476 5.77448 3.68198e-10)
(487.389 5.9686 4.2484e-10)
(487.218 6.94696 2.80664e-10)
(487.124 6.8327 -1.05079e-10)
(486.918 8.12759 -3.1195e-10)
(486.816 7.65329 -2.465e-10)
(486.58 9.2913 -2.34691e-10)
(486.46 8.46116 -6.55644e-11)
(486.212 10.3821 2.66164e-10)
(486.045 9.35472 1.71806e-10)
(485.837 11.2323 -1.41364e-10)
(485.55 10.4868 -1.97739e-10)
(485.458 11.8197 3.95116e-11)
(484.981 11.7529 1.47913e-10)
(487.113 0.338446 -4.88041e-09)
(487.1 0.947204 1.51596e-09)
(487.084 1.35618 -4.75984e-10)
(487.042 2.07184 1.12699e-10)
(487.008 2.47632 5.47928e-11)
(486.946 3.17354 -4.92172e-10)
(486.886 3.62287 -5.36843e-10)
(486.812 4.23593 2.26146e-11)
(486.717 4.79296 4.25147e-10)
(486.639 5.24923 4.94555e-10)
(486.507 5.98621 3.83883e-10)
(486.424 6.20723 4.12122e-10)
(486.257 7.19926 2.36691e-10)
(486.167 7.10969 -1.28422e-10)
(485.966 8.42156 -3.18027e-10)
(485.869 7.96635 -2.68882e-10)
(485.638 9.62924 -2.80047e-10)
(485.525 8.80577 -8.69178e-11)
(485.28 10.7701 3.1188e-10)
(485.124 9.71532 2.27406e-10)
(484.914 11.6856 -1.0792e-10)
(484.644 10.8622 -1.89506e-10)
(484.548 12.3259 2.58443e-11)
(484.088 12.147 1.5283e-10)
(486.074 0.351332 -4.89749e-09)
(486.062 0.979064 1.52149e-09)
(486.046 1.40511 -4.77681e-10)
(486.006 2.1436 1.18532e-10)
(485.973 2.56381 6.47384e-11)
(485.913 3.28551 -4.88467e-10)
(485.855 3.749 -5.38087e-10)
(485.783 4.38786 -2.67997e-11)
(485.692 4.95768 3.76783e-10)
(485.617 5.44052 5.01069e-10)
(485.489 6.1896 3.95145e-10)
(485.409 6.43692 4.22811e-10)
(485.246 7.44172 2.47263e-10)
(485.162 7.37637 -1.20065e-10)
(484.965 8.70414 -3.08766e-10)
(484.874 8.26791 -2.64829e-10)
(484.647 9.95425 -2.75404e-10)
(484.542 9.13818 -7.7798e-11)
(484.301 11.1432 3.23168e-10)
(484.155 10.0645 2.36678e-10)
(483.944 12.123 -9.82653e-11)
(483.69 11.2237 -1.80973e-10)
(483.59 12.8171 4.07824e-11)
(483.149 12.5255 1.2583e-10)
(484.985 0.363631 -4.92011e-09)
(484.973 1.00949 1.56741e-09)
(484.958 1.45179 -4.54035e-10)
(484.919 2.21218 7.52516e-11)
(484.887 2.64731 8.9052e-12)
(484.829 3.39262 -5.06273e-10)
(484.774 3.86947 -5.13683e-10)
(484.705 4.53336 -1.04274e-11)
(484.617 5.11518 3.83522e-10)
(484.545 5.62391 4.92602e-10)
(484.42 6.38424 3.70078e-10)
(484.345 6.65728 4.38894e-10)
(484.186 7.67393 3.05952e-10)
(484.107 7.63235 -1.25885e-10)
(483.915 8.97493 -3.79258e-10)
(483.83 8.55749 -2.89157e-10)
(483.608 10.2658 -2.59825e-10)
(483.51 9.4577 -7.29516e-11)
(483.273 11.501 3.18813e-10)
(483.138 10.4017 2.23271e-10)
(482.927 12.5435 -1.25065e-10)
(482.689 11.5707 -1.67401e-10)
(482.585 13.2921 9.19573e-11)
(482.164 12.8878 1.59535e-10)
(483.845 0.375319 -4.90467e-09)
(483.833 1.03844 1.59693e-09)
(483.819 1.49611 -4.40153e-10)
(483.78 2.27747 8.6848e-11)
(483.751 2.72662 1.40224e-11)
(483.695 3.49465 -5.08373e-10)
(483.641 3.984 -5.20271e-10)
(483.575 4.67211 3.35189e-11)
(483.491 5.26508 4.22978e-10)
(483.422 5.79899 4.7343e-10)
(483.302 6.56974 3.44013e-10)
(483.231 6.8679 4.09104e-10)
(483.076 7.89548 2.68124e-10)
(483.002 7.87721 -1.16853e-10)
(482.815 9.23351 -3.19876e-10)
(482.737 8.83467 -2.40388e-10)
(482.519 10.5635 -2.71245e-10)
(482.43 9.7638 -9.20532e-11)
(482.196 11.8428 2.92184e-10)
(482.072 10.7262 1.95075e-10)
(481.861 12.9463 -1.09301e-10)
(481.64 11.902 -1.5809e-10)
(481.534 13.7498 9.77436e-11)
(481.132 13.2334 1.60029e-10)
(482.653 0.386382 -4.91552e-09)
(482.641 1.06587 1.57215e-09)
(482.628 1.53802 -5.01117e-10)
(482.591 2.33935 9.9037e-11)
(482.563 2.80162 4.08521e-11)
(482.509 3.59142 -5.16083e-10)
(482.458 4.09236 -5.05177e-10)
(482.395 4.80382 1.21733e-11)
(482.314 5.40704 3.63879e-10)
(482.249 5.96541 4.91609e-10)
(482.133 6.74569 3.84325e-10)
(482.066 7.06837 4.10324e-10)
(481.917 8.10596 2.91107e-10)
(481.848 8.11057 -1.28236e-10)
(481.666 9.47949 -3.72579e-10)
(481.594 9.09903 -2.71492e-10)
(481.381 10.847 -2.82991e-10)
(481.3 10.056 -8.19074e-11)
(481.071 12.1683 3.22091e-10)
(480.957 11.0373 1.90462e-10)
(480.747 13.3311 -1.49625e-10)
(480.543 12.2171 -1.78249e-10)
(480.434 14.1889 3.81508e-11)
(480.052 13.5618 1.25254e-10)
(481.411 0.39681 -4.99076e-09)
(481.399 1.09175 1.55287e-09)
(481.387 1.57747 -5.03069e-10)
(481.351 2.39777 6.97782e-11)
(481.324 2.87222 4.1009e-11)
(481.272 3.6828 -4.94798e-10)
(481.224 4.19436 -5.17792e-10)
(481.164 4.92826 3.03652e-11)
(481.086 5.54078 4.11368e-10)
(481.025 6.1228 5.04744e-10)
(480.913 6.91167 4.20278e-10)
(480.851 7.25827 4.17141e-10)
(480.707 8.30492 2.62485e-10)
(480.643 8.33197 -1.34816e-10)
(480.467 9.71245 -3.50738e-10)
(480.401 9.35017 -2.77314e-10)
(480.194 11.1158 -2.65978e-10)
(480.12 10.3338 -4.55769e-11)
(479.896 12.4772 3.35188e-10)
(479.793 11.3344 2.21171e-10)
(479.585 13.697 -1.50396e-10)
(479.397 12.5155 -2.04068e-10)
(479.286 14.6089 3.87543e-11)
(478.924 13.8729 1.41371e-10)
(480.117 0.406591 -4.96684e-09)
(480.105 1.11607 1.61152e-09)
(480.094 1.61443 -4.47961e-10)
(480.059 2.45268 8.25984e-11)
(480.034 2.93833 6.69808e-12)
(479.984 3.76868 -5.26863e-10)
(479.939 4.28988 -5.36498e-10)
(479.882 5.04526 2.52024e-11)
(479.807 5.66607 4.1321e-10)
(479.75 6.27091 5.18258e-10)
(479.643 7.06737 3.86278e-10)
(479.586 7.4372 3.95599e-10)
(479.446 8.49192 2.50947e-10)
(479.389 8.54095 -1.4146e-10)
(479.217 9.93195 -3.46316e-10)
(479.158 9.58765 -2.61709e-10)
(478.957 11.3696 -2.36511e-10)
(478.892 10.597 -8.0963e-12)
(478.672 12.7691 3.24752e-10)
(478.58 11.6164 1.6931e-10)
(478.374 14.0429 -1.39004e-10)
(478.203 12.7977 -1.83512e-10)
(478.089 15.0106 7.42844e-11)
(477.747 14.1669 1.89792e-10)
(478.771 0.415714 -4.97155e-09)
(478.76 1.13879 1.58515e-09)
(478.749 1.64885 -5.25606e-10)
(478.716 2.504 7.65751e-11)
(478.693 2.99988 7.72206e-11)
(478.645 3.84899 -4.91853e-10)
(478.603 4.37881 -5.49927e-10)
(478.548 5.1547 2.60907e-11)
(478.478 5.78276 3.79222e-10)
(478.424 6.40951 4.42858e-10)
(478.321 7.2125 3.87592e-10)
(478.269 7.60482 4.66834e-10)
(478.135 8.66655 2.76039e-10)
(478.083 8.73708 -1.54011e-10)
(477.918 10.1375 -3.41706e-10)
(477.866 9.81099 -2.39958e-10)
(477.67 11.6079 -2.61737e-10)
(477.613 10.8449 -7.32445e-11)
(477.399 13.0438 3.38926e-10)
(477.317 11.8826 1.96402e-10)
(477.114 14.3678 -1.58377e-10)
(476.96 13.0633 -1.8931e-10)
(476.843 15.393 8.67099e-11)
(476.522 14.4426 1.63222e-10)
(477.374 0.424163 -5.05001e-09)
(477.363 1.15988 1.56446e-09)
(477.354 1.68068 -5.15518e-10)
(477.321 2.55167 6.40741e-11)
(477.3 3.0568 2.92309e-11)
(477.254 3.92364 -5.19118e-10)
(477.215 4.46107 -5.39336e-10)
(477.163 5.25648 1.45233e-11)
(477.096 5.89073 3.9358e-10)
(477.047 6.53849 4.81173e-10)
(476.949 7.34688 3.9512e-10)
(476.902 7.76093 4.50407e-10)
(476.772 8.82851 2.89293e-10)
(476.727 8.91997 -1.20119e-10)
(476.567 10.3287 -3.36806e-10)
(476.522 10.0197 -2.63368e-10)
(476.333 11.8304 -2.55723e-10)
(476.284 11.0771 -3.92655e-11)
(476.076 13.3008 3.47036e-10)
(476.004 12.1327 2.29881e-10)
(475.805 14.6711 -8.93362e-11)
(475.668 13.312 -2.11785e-10)
(475.548 15.7551 2.50712e-11)
(475.249 14.6993 1.35885e-10)
(475.926 0.431919 -4.99365e-09)
(475.915 1.1793 1.63445e-09)
(475.906 1.70986 -4.75312e-10)
(475.875 2.59562 1.04222e-10)
(475.856 3.109 5.99726e-11)
(475.812 3.99253 -4.9543e-10)
(475.775 4.53656 -5.2224e-10)
(475.727 5.35053 2.81259e-11)
(475.664 5.9899 4.0201e-10)
(475.619 6.65778 4.83102e-10)
(475.525 7.47042 3.90145e-10)
(475.483 7.90539 4.33496e-10)
(475.359 8.97759 2.64319e-10)
(475.319 9.08935 -1.45266e-10)
(475.165 10.5051 -3.77038e-10)
(475.128 10.2133 -3.10948e-10)
(474.945 12.0364 -3.08516e-10)
(474.905 11.2932 -2.73873e-11)
(474.702 13.5398 3.491e-10)
(474.641 12.3663 2.19292e-10)
(474.446 14.9524 -1.02556e-10)
(474.325 13.5434 -1.73128e-10)
(474.204 16.0958 6.3576e-11)
(473.927 14.9362 1.64865e-10)
(474.426 0.438971 -5.03021e-09)
(474.415 1.19702 1.61311e-09)
(474.407 1.73635 -5.14761e-10)
(474.377 2.63578 1.04624e-10)
(474.36 3.15641 4.75952e-11)
(474.319 4.05558 -5.24142e-10)
(474.285 4.60519 -5.11151e-10)
(474.24 5.43675 2.26581e-11)
(474.18 6.08018 3.84793e-10)
(474.139 6.76729 5.10679e-10)
(474.049 7.58306 3.98025e-10)
(474.012 8.03815 4.28677e-10)
(473.894 9.11369 3.03918e-10)
(473.86 9.2451 -1.27984e-10)
(473.712 10.6664 -3.72282e-10)
(473.683 10.3915 -2.63796e-10)
(473.505 12.2255 -2.76225e-10)
(473.474 11.4924 -7.38796e-11)
(473.278 13.7603 3.50908e-10)
(473.228 12.5827 2.08202e-10)
(473.037 15.212 -1.42998e-10)
(472.932 13.7573 -1.61988e-10)
(472.809 16.4142 6.44321e-11)
(472.555 15.153 1.42562e-10)
(472.874 0.445308 -5.1012e-09)
(472.864 1.21302 1.61984e-09)
(472.857 1.7601 -4.78987e-10)
(472.828 2.6721 6.4289e-11)
(472.813 3.19896 5.39729e-11)
(472.774 4.11272 -4.79178e-10)
(472.742 4.66688 -5.51483e-10)
(472.7 5.51506 3.01396e-11)
(472.645 6.16151 4.32538e-10)
(472.607 6.86698 4.73826e-10)
(472.523 7.68472 4.05949e-10)
(472.491 8.1592 4.81131e-10)
(472.377 9.23677 2.71468e-10)
(472.35 9.38719 -1.229e-10)
(472.208 10.8126 -3.20261e-10)
(472.186 10.554 -2.95037e-10)
(472.015 12.3974 -2.70312e-10)
(471.993 11.6744 -2.57078e-11)
(471.802 13.9616 3.18745e-10)
(471.764 12.7809 2.14535e-10)
(471.578 15.4501 -8.96142e-11)
(471.488 13.9546 -1.91598e-10)
(471.364 16.7095 7.16247e-11)
(471.132 15.3493 1.90262e-10)
(471.271 0.45093 -5.08398e-09)
(471.261 1.2273 1.66421e-09)
(471.254 1.78113 -4.48931e-10)
(471.227 2.70458 9.98267e-11)
(471.214 3.23663 1.52989e-11)
(471.176 4.1639 -5.22522e-10)
(471.148 4.72158 -5.20382e-10)
(471.109 5.58538 5.7924e-11)
(471.057 6.23378 4.61348e-10)
(471.024 6.95675 5.09062e-10)
(470.944 7.77535 3.67103e-10)
(470.917 8.26848 4.37546e-10)
(470.809 9.34682 2.99101e-10)
(470.788 9.51565 -9.8541e-11)
(470.652 10.9436 -3.01338e-10)
(470.637 10.701 -2.77262e-10)
(470.472 12.5518 -3.19517e-10)
(470.459 11.8387 -6.80722e-11)
(470.276 14.1433 3.34312e-10)
(470.248 12.9603 2.27217e-10)
(470.068 15.6662 -6.94992e-11)
(469.992 14.135 -1.80569e-10)
(469.867 16.981 1.74341e-11)
(469.659 15.5243 1.43129e-10)
(469.616 0.455845 -5.16417e-09)
(469.606 1.23988 1.59671e-09)
(469.6 1.79946 -5.35758e-10)
(469.574 2.73323 5.10379e-11)
(469.562 3.26944 1.51937e-11)
(469.528 4.20915 -5.45765e-10)
(469.502 4.76928 -5.68695e-10)
(469.466 5.64769 -9.50636e-12)
(469.418 6.29694 3.76182e-10)
(469.389 7.03653 4.64056e-10)
(469.314 7.85484 3.68493e-10)
(469.292 8.36591 4.19315e-10)
(469.189 9.44376 2.519e-10)
(469.174 9.63047 -1.64412e-10)
(469.044 11.0595 -3.928e-10)
(469.036 10.8324 -3.1616e-10)
(468.878 12.689 -3.13479e-10)
(468.874 11.9855 -8.63989e-11)
(468.697 14.3052 2.94145e-10)
(468.68 13.1202 1.72996e-10)
(468.506 15.8596 -1.61173e-10)
(468.445 14.2982 -2.17462e-10)
(468.32 17.2283 2.47802e-11)
(468.135 15.6779 1.31736e-10)
(467.908 0.460062 -5.11986e-09)
(467.899 1.25078 1.64282e-09)
(467.894 1.81512 -5.25214e-10)
(467.869 2.75811 1.1596e-10)
(467.859 3.29746 5.52908e-11)
(467.827 4.2485 -5.27142e-10)
(467.804 4.81001 -5.02939e-10)
(467.771 5.70201 3.99295e-11)
(467.727 6.35099 4.05566e-10)
(467.702 7.10627 5.41164e-10)
(467.631 7.92311 4.25198e-10)
(467.614 8.4514 4.47704e-10)
(467.517 9.52747 3.28984e-10)
(467.508 9.73156 -1.13133e-10)
(467.384 11.1602 -3.59431e-10)
(467.384 10.9484 -3.04143e-10)
(467.231 12.8088 -3.21511e-10)
(467.237 12.1148 -4.83101e-11)
(467.066 14.4475 3.1755e-10)
(467.06 13.2607 1.73581e-10)
(466.892 16.0302 -1.12095e-10)
(466.846 14.4429 -1.93676e-10)
(466.722 17.4503 2.52098e-11)
(466.559 15.81 1.75616e-10)
(466.149 0.463595 -5.13441e-09)
(466.14 1.26002 1.65835e-09)
(466.136 1.82817 -5.21212e-10)
(466.112 2.77927 1.23927e-10)
(466.104 3.32075 6.21253e-11)
(466.073 4.28205 -5.22628e-10)
(466.053 4.84387 -4.97741e-10)
(466.024 5.7484 4.79979e-11)
(465.983 6.39597 4.14485e-10)
(465.962 7.166 4.8136e-10)
(465.896 7.98014 3.64088e-10)
(465.884 8.52486 4.62967e-10)
(465.793 9.59783 2.73583e-10)
(465.79 9.81878 -1.67471e-10)
(465.671 11.2456 -3.47109e-10)
(465.679 11.0488 -2.92071e-10)
(465.533 12.9115 -3.08512e-10)
(465.548 12.2269 -3.50929e-11)
(465.382 14.5703 3.34178e-10)
(465.388 13.3818 1.86697e-10)
(465.225 16.1782 -9.87198e-11)
(465.193 14.5677 -1.82229e-10)
(465.073 17.6454 4.67822e-11)
(464.933 15.9205 1.95265e-10)
(464.338 0.466454 -5.17504e-09)
(464.329 1.26764 1.71297e-09)
(464.326 1.83864 -4.96477e-10)
(464.303 2.79677 6.57631e-11)
(464.297 3.33939 6.20222e-11)
(464.268 4.30987 -4.67353e-10)
(464.251 4.87094 -5.26983e-10)
(464.224 5.78697 -6.53722e-13)
(464.187 6.43197 4.23614e-10)
(464.17 7.21577 5.46486e-10)
(464.109 8.02594 4.14957e-10)
(464.102 8.58628 4.30317e-10)
(464.016 9.65473 2.95589e-10)
(464.02 9.892 -9.45588e-11)
(463.907 11.3155 -3.62933e-10)
(463.923 11.1334 -3.19421e-10)
(463.783 12.9967 -2.80687e-10)
(463.806 12.3217 -2.16797e-11)
(463.647 14.6739 3.36521e-10)
(463.664 13.4841 1.7461e-10)
(463.506 16.3046 -1.28874e-10)
(463.488 14.6719 -1.64079e-10)
(463.371 17.812 5.46085e-11)
(463.254 16.0093 1.27119e-10)
(462.474 0.468643 -5.225e-09)
(462.465 1.27365 1.65032e-09)
(462.463 1.84656 -5.32684e-10)
(462.442 2.81065 5.09701e-11)
(462.437 3.35343 -1.32307e-14)
(462.41 4.33203 -5.7893e-10)
(462.396 4.8913 -5.35885e-10)
(462.372 5.8178 9.35092e-11)
(462.339 6.45909 4.75265e-10)
(462.326 7.25571 5.55989e-10)
(462.269 8.06062 4.45109e-10)
(462.267 8.63573 4.80562e-10)
(462.186 9.6982 3.03617e-10)
(462.196 9.95115 -1.29593e-10)
(462.09 11.3696 -3.71804e-10)
(462.113 11.2021 -3.0705e-10)
(461.979 13.0641 -3.10918e-10)
(462.012 12.399 -8.68246e-11)
(461.86 14.7579 2.87008e-10)
(461.887 13.5675 1.55804e-10)
(461.735 16.4093 -1.22748e-10)
(461.731 14.7561 -1.32729e-10)
(461.617 17.9502 1.14359e-10)
(461.522 16.0758 2.03881e-10)
(460.558 0.470165 -5.27574e-09)
(460.549 1.27805 1.66614e-09)
(460.548 1.85194 -5.00965e-10)
(460.527 2.82092 4.40012e-11)
(460.525 3.36289 2.036e-11)
(460.5 4.34855 -5.29941e-10)
(460.488 4.90501 -5.30937e-10)
(460.467 5.84097 5.86228e-11)
(460.438 6.47742 3.92624e-10)
(460.429 7.2859 5.0136e-10)
(460.376 8.08426 4.25437e-10)
(460.38 8.67332 4.19342e-10)
(460.304 9.7283 2.68118e-10)
(460.32 9.99631 -1.37584e-10)
(460.219 11.408 -3.51739e-10)
(460.251 11.2547 -2.60812e-10)
(460.123 13.1135 -3.04457e-10)
(460.166 12.4582 -5.35598e-11)
(460.019 14.8219 3.55828e-10)
(460.058 13.6317 1.69113e-10)
(459.912 16.4925 -1.54036e-10)
(459.922 14.8206 -1.90953e-10)
(459.811 18.061 7.75083e-11)
(459.737 16.1203 1.918e-10)
(458.589 0.471017 -5.22885e-09)
(458.58 1.28084 1.69815e-09)
(458.58 1.85479 -5.24091e-10)
(458.561 2.82757 5.94389e-11)
(458.559 3.36778 6.30444e-12)
(458.537 4.35945 -5.10194e-10)
(458.528 4.91207 -5.54076e-10)