/*--------------------------------*- C++ -*----------------------------------*\
  =========                 |
  \\      /  F ield         | OpenFOAM: The Open Source CFD Toolbox
   \\    /   O peration     | Website:  https://openfoam.org
    \\  /    A nd           | Version:  10
     \\/     M anipulation  |
\*---------------------------------------------------------------------------*/
FoamFile
{
    format      ascii;
    class       surfaceScalarField;
    location    "0.31";
    object      phi;
}
// * * * * * * * * * * * * * * * * * * * * * * * * * * * * * * * * * * * * * //

dimensions      [1 0 -1 0 0 0 0];

internalField   nonuniform List<scalar> 
8154
(
-5.78963e-09
-2.19702e-08
-5.66573e-08
-9.15809e-08
-1.71403e-07
-2.25823e-07
-3.70008e-07
-4.54264e-07
-6.74552e-07
-8.13896e-07
-1.10419e-06
-1.33689e-06
-1.66789e-06
-2.0276e-06
-2.36122e-06
-2.86709e-06
-3.25632e-06
-3.98697e-06
-4.56808e-06
-5.5099e-06
-6.82595e-06
-7.25215e-06
-6.85128e-06
-0.000277438
-0.000832368
2.40702e-08
-0.00138746
9.63963e-08
-0.00194288
2.13592e-07
-0.00249867
3.78373e-07
-0.00305503
5.77499e-07
-0.00361202
8.23637e-07
-0.00416972
1.08841e-06
-0.00472846
1.39763e-06
-0.0052879
1.71078e-06
-0.00584877
2.05604e-06
-0.00641057
2.40288e-06
-0.00697376
2.74838e-06
-0.00753865
3.12044e-06
-0.00810416
3.43633e-06
-0.0086731
3.85009e-06
-0.00924022
4.12598e-06
-0.00981489
4.57418e-06
-0.0103833
4.92396e-06
-0.0109645
5.1375e-06
-0.0115338
5.27796e-06
-0.0121235
5.114e-06
-0.0126947
4.02646e-06
-0.013293
2.4474e-06
-0.000277462
-0.00083244
2.63895e-08
-0.00138758
1.0496e-07
-0.00194305
2.35043e-07
-0.00249887
4.1054e-07
-0.00305527
6.3551e-07
-0.00361229
8.89744e-07
-0.00417003
1.19462e-06
-0.00472877
1.50095e-06
-0.00528825
1.86659e-06
-0.00584912
2.19051e-06
-0.00641092
2.59324e-06
-0.00697414
2.89286e-06
-0.00753897
3.29894e-06
-0.00810457
3.53936e-06
-0.00867338
3.90458e-06
-0.00924067
4.10534e-06
-0.00981524
4.39142e-06
-0.0103835
5.00181e-06
-0.0109647
4.66443e-06
-0.0115336
5.22992e-06
-0.0121224
5.32847e-06
-0.0126932
5.03989e-06
-0.0132905
4.22593e-06
-0.000277488
-0.000832519
2.1331e-08
-0.00138771
8.50919e-08
-0.00194322
1.88418e-07
-0.00249909
3.30934e-07
-0.00305553
5.02248e-07
-0.00361259
7.07537e-07
-0.00417034
9.22634e-07
-0.00472914
1.16623e-06
-0.00528857
1.39364e-06
-0.00584952
1.64162e-06
-0.00641122
1.84618e-06
-0.00697454
2.04971e-06
-0.00753921
2.19713e-06
-0.00810494
2.28382e-06
-0.00867358
2.35411e-06
-0.00924095
2.20738e-06
-0.00981585
2.34546e-06
-0.0103832
1.89929e-06
-0.0109652
1.77915e-06
-0.0115337
1.3912e-06
-0.0121221
1.15574e-06
-0.0126924
7.19139e-07
-0.0132863
5.09506e-07
-0.00027751
-0.000832582
2.55675e-08
-0.00138781
1.02059e-07
-0.00194337
2.26411e-07
-0.00249927
3.98257e-07
-0.00305574
6.06036e-07
-0.00361281
8.55899e-07
-0.00417058
1.11948e-06
-0.00472936
1.42037e-06
-0.00528882
1.70203e-06
-0.00584973
2.01669e-06
-0.00641142
2.27199e-06
-0.00697469
2.54823e-06
-0.0075393
2.73324e-06
-0.00810501
2.89476e-06
-0.00867343
2.98542e-06
-0.00924109
2.89849e-06
-0.0098154
2.97646e-06
-0.010383
2.28322e-06
-0.0109649
2.51503e-06
-0.0115335
1.72469e-06
-0.0121217
1.20908e-06
-0.0126922
3.78893e-07
-0.0132858
-1.7713e-07
-0.000277535
-0.000832659
3.3681e-08
-0.00138794
1.34423e-07
-0.00194354
2.99567e-07
-0.00249947
5.26934e-07
-0.00305599
8.08416e-07
-0.00361307
1.14198e-06
-0.00417089
1.512e-06
-0.00472965
1.91895e-06
-0.00528914
2.33861e-06
-0.00584998
2.77321e-06
-0.0064117
3.19413e-06
-0.00697488
3.5959e-06
-0.00753946
3.96366e-06
-0.0081051
4.25811e-06
-0.00867335
4.52171e-06
-0.00924117
4.6154e-06
-0.00981471
4.73213e-06
-0.0103833
4.40102e-06
-0.0109641
4.36388e-06
-0.011533
3.67275e-06
-0.0121209
3.21896e-06
-0.0126916
2.27056e-06
-0.013286
1.34424e-06
-0.000277569
-0.000832759
3.76013e-08
-0.0013881
1.50083e-07
-0.00194377
3.34766e-07
-0.00249975
5.88976e-07
-0.00305632
9.04898e-07
-0.00361344
1.27873e-06
-0.00417129
1.69628e-06
-0.00473006
2.15377e-06
-0.00528957
2.6306e-06
-0.0058504
3.12093e-06
-0.0064121
3.6025e-06
-0.00697524
4.05822e-06
-0.00753975
4.4812e-06
-0.00810536
4.82075e-06
-0.00867344
5.12317e-06
-0.00924128
5.24942e-06
-0.00981438
5.37001e-06
-0.0103832
5.08217e-06
-0.0109634
4.96309e-06
-0.0115325
4.21627e-06
-0.0121199
3.68963e-06
-0.0126907
2.64132e-06
-0.0132846
1.60913e-06
-0.000277606
-0.000832872
4.14308e-08
-0.00138829
1.65385e-07
-0.00194402
3.69037e-07
-0.00250007
6.49459e-07
-0.00305669
9.9842e-07
-0.00361386
1.41167e-06
-0.00417175
1.87421e-06
-0.00473054
2.38177e-06
-0.00529006
2.91209e-06
-0.00585088
3.45906e-06
-0.00641255
3.99672e-06
-0.00697567
4.50918e-06
-0.00754009
4.98203e-06
-0.00810567
5.36997e-06
-0.00867357
5.7061e-06
-0.0092414
5.86168e-06
-0.00981409
5.99702e-06
-0.0103831
5.71788e-06
-0.0109626
5.59215e-06
-0.011532
4.81105e-06
-0.0121189
4.21714e-06
-0.0126897
2.99368e-06
-0.013283
1.79239e-06
-0.000277648
-0.000832995
4.51203e-08
-0.00138849
1.80107e-07
-0.0019443
4.01974e-07
-0.00250042
7.07395e-07
-0.00305711
1.08786e-06
-0.00361432
1.53822e-06
-0.00417226
2.04339e-06
-0.00473107
2.59748e-06
-0.00529061
3.17857e-06
-0.00585142
3.77781e-06
-0.00641307
4.36956e-06
-0.00697614
4.93416e-06
-0.00754048
5.45616e-06
-0.008106
5.88777e-06
-0.00867372
6.25676e-06
-0.00924153
6.44021e-06
-0.00981381
6.5809e-06
-0.010383
6.32734e-06
-0.0109618
6.17084e-06
-0.0115314
5.36925e-06
-0.0121176
4.85245e-06
-0.0126885
3.36195e-06
-0.0132812
2.013e-06
-0.000277693
-0.00083313
4.87585e-08
-0.00138871
1.94615e-07
-0.00194461
4.34378e-07
-0.0025008
7.64299e-07
-0.00305756
1.17544e-06
-0.00361483
1.66182e-06
-0.00417281
2.20793e-06
-0.00473165
2.80666e-06
-0.00529121
3.43584e-06
-0.00585201
4.08498e-06
-0.00641363
4.72783e-06
-0.00697667
5.34272e-06
-0.00754091
5.91175e-06
-0.00810637
6.38599e-06
-0.00867391
6.78654e-06
-0.00924167
6.99535e-06
-0.00981356
7.13699e-06
-0.0103829
6.9031e-06
-0.010961
6.72368e-06
-0.0115308
5.90509e-06
-0.0121162
4.86511e-06
-0.0126871
3.71005e-06
-0.0132792
2.2087e-06
-0.000277742
-0.000833276
5.23444e-08
-0.00138895
2.08909e-07
-0.00194493
4.66288e-07
-0.00250121
8.2029e-07
-0.00305805
1.26147e-06
-0.00361537
1.78298e-06
-0.00417341
2.36871e-06
-0.00473228
3.01032e-06
-0.00529186
3.68521e-06
-0.00585265
4.38146e-06
-0.00641425
5.07222e-06
-0.00697724
5.7344e-06
-0.00754138
6.34795e-06
-0.00810677
6.8631e-06
-0.00867412
7.29467e-06
-0.00924181
7.52699e-06
-0.00981332
7.66804e-06
-0.0103827
7.45101e-06
-0.0109602
7.25109e-06
-0.01153
6.39336e-06
-0.0121148
5.58792e-06
-0.0126857
4.03658e-06
-0.013277
2.40629e-06
-0.000277794
-0.000833433
5.58935e-08
-0.00138921
2.2306e-07
-0.00194529
4.97889e-07
-0.00250165
8.75761e-07
-0.00305857
1.3467e-06
-0.00361596
1.90296e-06
-0.00417406
2.52765e-06
-0.00473295
3.21117e-06
-0.00529255
3.93014e-06
-0.00585335
4.67139e-06
-0.00641491
5.40717e-06
-0.00697785
6.11358e-06
-0.0075419
6.76849e-06
-0.0081072
7.32222e-06
-0.00867435
7.78403e-06
-0.00924195
8.04112e-06
-0.0098131
8.18854e-06
-0.0103825
7.97266e-06
-0.0109593
7.74374e-06
-0.0115292
6.85814e-06
-0.0121132
6.00622e-06
-0.012684
4.35839e-06
-0.0132746
2.59016e-06
-0.00027785
-0.0008336
5.93992e-08
-0.00138948
2.37046e-07
-0.00194567
5.29147e-07
-0.00250212
9.30701e-07
-0.00305913
1.4312e-06
-0.00361658
2.02202e-06
-0.00417474
2.68538e-06
-0.00473367
3.41035e-06
-0.00529329
4.17249e-06
-0.00585408
4.95726e-06
-0.00641561
5.73573e-06
-0.00697851
6.48338e-06
-0.00754245
7.17605e-06
-0.00810767
7.7648e-06
-0.00867461
8.25397e-06
-0.0092421
8.53411e-06
-0.00981288
8.68839e-06
-0.0103823
8.47035e-06
-0.0109585
8.20711e-06
-0.0115284
7.28314e-06
-0.0121115
6.37181e-06
-0.0126823
4.6539e-06
-0.013272
2.76166e-06
-0.000277909
-0.000833777
6.28623e-08
-0.00138977
2.50866e-07
-0.00194607
5.6006e-07
-0.00250262
9.851e-07
-0.00305972
1.51498e-06
-0.00361725
2.14025e-06
-0.00417547
2.84221e-06
-0.00473443
3.60854e-06
-0.00529408
4.41355e-06
-0.00585486
5.24116e-06
-0.00641636
6.06094e-06
-0.0069792
6.84761e-06
-0.00754304
7.57485e-06
-0.00810815
8.19486e-06
-0.00867489
8.70768e-06
-0.00924225
9.00771e-06
-0.00981267
9.1664e-06
-0.010382
8.94877e-06
-0.0109575
8.64539e-06
-0.0115275
7.6765e-06
-0.0121098
6.70358e-06
-0.0126804
4.89837e-06
-0.0132692
2.90935e-06
-0.000277972
-0.000833965
6.6286e-08
-0.00139008
2.64527e-07
-0.00194649
5.9062e-07
-0.00250315
1.0389e-06
-0.00306034
1.59789e-06
-0.00361795
2.25738e-06
-0.00417623
2.99776e-06
-0.00473524
3.8054e-06
-0.0052949
4.65325e-06
-0.00585568
5.52359e-06
-0.00641715
6.38416e-06
-0.00697993
7.20867e-06
-0.00754366
7.96826e-06
-0.00810867
8.61619e-06
-0.00867519
9.14856e-06
-0.00924241
9.46435e-06
-0.00981245
9.62574e-06
-0.0103817
9.41045e-06
-0.0109566
9.06501e-06
-0.0115265
8.05128e-06
-0.012108
7.0085e-06
-0.0126784
5.05775e-06
-0.0132663
3.03554e-06
-0.000278038
-0.000834164
6.96785e-08
-0.00139041
2.78053e-07
-0.00194694
6.20851e-07
-0.00250371
1.09207e-06
-0.003061
1.67977e-06
-0.00361869
2.37303e-06
-0.00417704
3.15138e-06
-0.00473609
4.00002e-06
-0.00529577
4.89055e-06
-0.00585654
5.80365e-06
-0.00641797
6.70511e-06
-0.00698069
7.56728e-06
-0.00754431
8.35848e-06
-0.0081092
9.03233e-06
-0.0086755
9.58076e-06
-0.00924257
9.90734e-06
-0.00981223
1.00673e-05
-0.0103813
9.85191e-06
-0.0109556
9.46541e-06
-0.0115255
8.41351e-06
-0.0121061
7.30808e-06
-0.0126764
5.28044e-06
-0.0132632
3.16759e-06
-0.000278108
-0.000834372
7.30431e-08
-0.00139075
2.91459e-07
-0.00194741
6.50761e-07
-0.0025043
1.14457e-06
-0.0030617
1.76043e-06
-0.00361947
2.48674e-06
-0.00417789
3.30224e-06
-0.00473698
4.19107e-06
-0.00529669
5.12365e-06
-0.00585744
6.0792e-06
-0.00641883
7.02165e-06
-0.00698149
7.92185e-06
-0.00754498
8.74515e-06
-0.00810974
9.4448e-06
-0.00867583
1.00081e-05
-0.00924273
1.0342e-05
-0.00981202
1.0494e-05
-0.010381
1.02657e-05
-0.0109545
9.84521e-06
-0.0115244
8.75615e-06
-0.012104
7.5891e-06
-0.0126743
5.49859e-06
-0.0132601
3.28989e-06
-0.000278181
-0.000834591
7.6371e-08
-0.00139111
3.04703e-07
-0.00194791
6.80248e-07
-0.00250491
1.19619e-06
-0.00306242
1.8395e-06
-0.00362028
2.59787e-06
-0.00417878
3.44928e-06
-0.00473791
4.37694e-06
-0.00529764
5.35026e-06
-0.00585838
6.34725e-06
-0.00641973
7.33021e-06
-0.00698231
8.26859e-06
-0.00754568
9.12487e-06
-0.0081103
9.85146e-06
-0.00867616
1.04309e-05
-0.00924288
1.07723e-05
-0.00981179
1.09149e-05
-0.0103805
1.06701e-05
-0.0109534
1.02148e-05
-0.0115232
9.08912e-06
-0.0121019
7.86009e-06
-0.0126721
5.69857e-06
-0.0132568
3.40403e-06
-0.000278258
-0.000834819
7.96359e-08
-0.00139149
3.17682e-07
-0.00194842
7.09094e-07
-0.00250556
1.24656e-06
-0.00306318
1.91644e-06
-0.00362113
2.70567e-06
-0.00417971
3.59145e-06
-0.00473888
4.55615e-06
-0.00529864
5.56828e-06
-0.00585937
6.6049e-06
-0.00642067
7.62699e-06
-0.00698317
8.60289e-06
-0.00754641
9.49255e-06
-0.00811088
1.02473e-05
-0.00867651
1.0845e-05
-0.00924302
1.11962e-05
-0.00981154
1.13315e-05
-0.0103801
1.10722e-05
-0.0109523
1.05781e-05
-0.011522
9.41873e-06
-0.0120998
8.1268e-06
-0.0126698
5.89274e-06
-0.0132534
3.51328e-06
-0.000278337
-0.000835057
8.27797e-08
-0.00139188
3.30174e-07
-0.00194896
7.36836e-07
-0.00250622
1.29496e-06
-0.00306397
1.99023e-06
-0.00362202
2.80885e-06
-0.00418067
3.72717e-06
-0.00473989
4.72677e-06
-0.00529968
5.77526e-06
-0.00586039
6.84898e-06
-0.00642165
7.90783e-06
-0.00698406
8.91941e-06
-0.00754716
9.84165e-06
-0.00811147
1.06251e-05
-0.00867686
1.12432e-05
-0.00924315
1.16071e-05
-0.00981128
1.1739e-05
-0.0103796
1.14681e-05
-0.0109512
1.09347e-05
-0.0115207
9.74791e-06
-0.0120975
8.39545e-06
-0.0126674
6.08638e-06
-0.0132499
3.62137e-06
-0.00027842
-0.000835304
8.57247e-08
-0.00139228
3.4188e-07
-0.00194952
7.62849e-07
-0.00250692
1.34036e-06
-0.00306479
2.0595e-06
-0.00362294
2.90569e-06
-0.00418167
3.85448e-06
-0.00474094
4.88656e-06
-0.00530075
5.9687e-06
-0.00586145
7.0765e-06
-0.00642266
8.16898e-06
-0.00698498
9.21326e-06
-0.00754795
1.01658e-05
-0.00811209
1.09767e-05
-0.00867723
1.1616e-05
-0.00924328
1.19953e-05
-0.00981101
1.21291e-05
-0.0103791
1.18512e-05
-0.01095
1.12827e-05
-0.0115193
1.00763e-05
-0.0120952
8.66767e-06
-0.0126649
6.28607e-06
-0.0132462
3.73294e-06
-0.000278506
-0.000835561
8.83815e-08
-0.00139271
3.52451e-07
-0.0019501
7.86386e-07
-0.00250764
1.38155e-06
-0.00306563
2.1225e-06
-0.00362389
2.99401e-06
-0.00418271
3.97079e-06
-0.00474202
5.0327e-06
-0.00530186
6.14555e-06
-0.00586254
7.28418e-06
-0.0064237
8.40672e-06
-0.00698593
9.47994e-06
-0.00754876
1.04592e-05
-0.00811272
1.12945e-05
-0.00867761
1.19535e-05
-0.00924342
1.23488e-05
-0.00981074
1.24888e-05
-0.0103785
1.22114e-05
-0.0109488
1.1622e-05
-0.0115179
1.03959e-05
-0.0120928
8.93612e-06
-0.0126624
6.49242e-06
-0.0132425
3.85069e-06
-0.000278594
-0.000835825
9.0663e-08
-0.00139314
3.61545e-07
-0.00195069
8.06695e-07
-0.00250838
1.41723e-06
-0.00306651
2.17734e-06
-0.00362486
3.07126e-06
-0.00418377
4.07303e-06
-0.00474314
5.16166e-06
-0.005303
6.30202e-06
-0.00586366
7.46807e-06
-0.00642478
8.61696e-06
-0.00698691
9.71503e-06
-0.0075496
1.07166e-05
-0.00811337
1.15721e-05
-0.00867801
1.22472e-05
-0.00924355
1.2656e-05
-0.00981046
1.28022e-05
-0.0103779
1.25292e-05
-0.0109476
1.19303e-05
-0.0115165
1.06859e-05
-0.0120904
9.18263e-06
-0.0126597
6.69545e-06
-0.0132387
3.97045e-06
-0.000278685
-0.000836096
9.24984e-08
-0.00139358
3.68875e-07
-0.0019513
8.23119e-07
-0.00250914
1.44623e-06
-0.0030674
2.22218e-06
-0.00362586
3.13486e-06
-0.00418486
4.15782e-06
-0.00474428
5.26937e-06
-0.00530416
6.43349e-06
-0.00586481
7.62324e-06
-0.00642587
8.79464e-06
-0.00698792
9.91343e-06
-0.00755045
1.09329e-05
-0.00811405
1.18037e-05
-0.00867842
1.249e-05
-0.0092437
1.29079e-05
-0.00981018
1.30572e-05
-0.0103773
1.27868e-05
-0.0109463
1.21779e-05
-0.011515
1.0923e-05
-0.0120879
9.38252e-06
-0.012657
6.86924e-06
-0.0132347
4.07466e-06
-0.000278777
-0.000836372
9.3839e-08
-0.00139404
3.74236e-07
-0.00195192
8.3517e-07
-0.00250991
1.4676e-06
-0.00306831
2.25543e-06
-0.00362689
3.18242e-06
-0.00418597
4.22182e-06
-0.00474544
5.3515e-06
-0.00530535
6.53473e-06
-0.00586598
7.74376e-06
-0.00642699
8.93344e-06
-0.00698893
1.00688e-05
-0.00755132
1.11018e-05
-0.00811473
1.19831e-05
-0.00867884
1.26755e-05
-0.00924384
1.30972e-05
-0.00980991
1.32449e-05
-0.0103767
1.29732e-05
-0.0109451
1.23526e-05
-0.0115134
1.10919e-05
-0.0120854
9.51084e-06
-0.0126542
6.97019e-06
-0.0132307
4.12986e-06
-0.000278871
-0.000836652
9.46726e-08
-0.0013945
3.77571e-07
-0.00195256
8.42674e-07
-0.0025107
1.48095e-06
-0.00306924
2.27631e-06
-0.00362793
3.21257e-06
-0.0041871
4.26286e-06
-0.00474662
5.40501e-06
-0.00530656
6.6017e-06
-0.00586717
7.82491e-06
-0.00642813
9.02808e-06
-0.00698997
1.0176e-05
-0.00755221
1.12185e-05
-0.00811542
1.21068e-05
-0.00867926
1.28004e-05
-0.00924399
1.32217e-05
-0.00980964
1.33617e-05
-0.0103761
1.30845e-05
-0.0109438
1.24505e-05
-0.0115119
1.11875e-05
-0.0120828
9.55604e-06
-0.0126513
6.96354e-06
-0.0132265
4.1108e-06
-0.000278966
-0.000836935
9.53789e-08
-0.00139496
3.80387e-07
-0.00195319
8.48994e-07
-0.0025115
1.49217e-06
-0.00307018
2.29388e-06
-0.00362898
3.23806e-06
-0.00418825
4.29796e-06
-0.00474782
5.45153e-06
-0.00530779
6.66136e-06
-0.00586838
7.89937e-06
-0.00642927
9.11825e-06
-0.00699101
1.02824e-05
-0.0075531
1.13399e-05
-0.00811611
1.22416e-05
-0.00867969
1.29446e-05
-0.00924412
1.33728e-05
-0.00980936
1.35136e-05
-0.0103754
1.32375e-05
-0.0109426
1.25982e-05
-0.0115102
1.13375e-05
-0.0120802
9.68064e-06
-0.0126485
7.05929e-06
-0.0132224
4.21025e-06
-0.000279061
-0.00083722
9.56895e-08
-0.00139543
3.81614e-07
-0.00195384
8.51719e-07
-0.0025123
1.49696e-06
-0.00307112
2.30137e-06
-0.00363004
3.24902e-06
-0.0041894
4.3134e-06
-0.00474903
5.47275e-06
-0.00530903
6.68994e-06
-0.00586959
7.93713e-06
-0.00643044
9.167e-06
-0.00699206
1.03436e-05
-0.007554
1.14145e-05
-0.00811681
1.23288e-05
-0.00868012
1.30427e-05
-0.00924426
1.34789e-05
-0.00980908
1.36226e-05
-0.0103748
1.33478e-05
-0.0109413
1.27033e-05
-0.0115086
1.14404e-05
-0.0120776
9.77941e-06
-0.0126456
7.14226e-06
-0.0132182
4.4202e-06
-0.000279157
-0.000837506
9.54934e-08
-0.0013959
3.80811e-07
-0.00195448
8.49876e-07
-0.0025131
1.49363e-06
-0.00307207
2.29617e-06
-0.0036311
3.24172e-06
-0.00419056
4.30401e-06
-0.00475025
5.46169e-06
-0.00531027
6.67805e-06
-0.00587082
7.92587e-06
-0.00643161
9.15824e-06
-0.00699313
1.03396e-05
-0.00755491
1.14174e-05
-0.00811752
1.23401e-05
-0.00868056
1.30622e-05
-0.0092444
1.35057e-05
-0.00980881
1.36524e-05
-0.0103741
1.33781e-05
-0.0109401
1.27281e-05
-0.0115069
1.14678e-05
-0.0120749
9.80095e-06
-0.0126428
7.18973e-06
-0.0132139
3.97363e-06
-0.000279252
-0.000837791
9.4827e-08
-0.00139637
3.78135e-07
-0.00195513
8.43848e-07
-0.0025139
1.48294e-06
-0.00307302
2.27959e-06
-0.00363216
3.21823e-06
-0.00419172
4.27279e-06
-0.00475146
5.42235e-06
-0.00531152
6.63063e-06
-0.00587206
7.87119e-06
-0.00643279
9.09784e-06
-0.00699421
1.0276e-05
-0.00755584
1.13537e-05
-0.00811824
1.22795e-05
-0.008681
1.30075e-05
-0.00924455
1.34587e-05
-0.00980853
1.36114e-05
-0.0103735
1.33411e-05
-0.0109388
1.26876e-05
-0.0115053
1.14307e-05
-0.0120723
9.75379e-06
-0.0126398
7.16452e-06
-0.0132097
3.93564e-06
-0.000279347
-0.000838074
9.37158e-08
-0.00139683
3.73694e-07
-0.00195576
8.33924e-07
-0.0025147
1.46548e-06
-0.00307396
2.25272e-06
-0.00363322
3.18033e-06
-0.00419287
4.22249e-06
-0.00475267
5.35866e-06
-0.00531276
6.55293e-06
-0.00587328
7.77962e-06
-0.00643397
8.99325e-06
-0.00699529
1.01606e-05
-0.00755676
1.12305e-05
-0.00811897
1.21532e-05
-0.00868146
1.28829e-05
-0.0092447
1.33413e-05
-0.00980827
1.35041e-05
-0.0103728
1.32457e-05
-0.0109376
1.2598e-05
-0.0115036
1.13453e-05
-0.0120697
9.65087e-06
-0.0126368
7.08982e-06
-0.0132056
4.1914e-06
-0.00027944
-0.000838354
9.21863e-08
-0.00139729
3.67602e-07
-0.0019564
8.20366e-07
-0.00251549
1.44177e-06
-0.00307488
2.21645e-06
-0.00363426
3.12949e-06
-0.00419401
4.15539e-06
-0.00475386
5.27403e-06
-0.00531399
6.44981e-06
-0.0058745
7.65765e-06
-0.00643514
8.85261e-06
-0.00699636
1.00027e-05
-0.00755769
1.10577e-05
-0.0081197
1.19703e-05
-0.00868192
1.26957e-05
-0.00924486
1.31578e-05
-0.00980801
1.33318e-05
-0.0103721
1.30919e-05
-0.0109363
1.24642e-05
-0.0115019
1.12333e-05
-0.0120671
9.54481e-06
-0.012634
7.01852e-06
-0.0132013
4.16581e-06
-0.000279532
-0.000838629
9.02776e-08
-0.00139775
3.60012e-07
-0.00195702
8.03517e-07
-0.00251626
1.4124e-06
-0.0030758
2.17171e-06
-0.00363529
3.06706e-06
-0.00419513
4.07346e-06
-0.00475504
5.17125e-06
-0.0053152
6.32525e-06
-0.00587569
7.51086e-06
-0.00643629
8.68342e-06
-0.00699741
9.81197e-06
-0.0075586
1.08469e-05
-0.00812043
1.1743e-05
-0.00868238
1.24573e-05
-0.00924504
1.2917e-05
-0.00980778
1.30982e-05
-0.0103715
1.28775e-05
-0.0109351
1.22785e-05
-0.0115002
1.10871e-05
-0.0120646
9.43585e-06
-0.0126311
6.93952e-06
-0.0131972
4.11848e-06
-0.000279623
-0.000838899
8.80474e-08
-0.00139819
3.51149e-07
-0.00195763
7.83854e-07
-0.00251702
1.37816e-06
-0.00307669
2.11964e-06
-0.00363629
2.99455e-06
-0.00419623
3.97855e-06
-0.00475619
5.05271e-06
-0.00531638
6.18236e-06
-0.00587686
7.34344e-06
-0.00643742
8.49151e-06
-0.00699844
9.59633e-06
-0.0075595
1.06084e-05
-0.00812114
1.14845e-05
-0.00868284
1.21824e-05
-0.00924522
1.2633e-05
-0.00980756
1.28142e-05
-0.0103709
1.26077e-05
-0.0109339
1.20377e-05
-0.0114985
1.0893e-05
-0.0120621
9.29193e-06
-0.0126283
6.85937e-06
-0.0131931
4.06395e-06
-0.000279711
-0.000839162
8.55696e-08
-0.00139862
3.41301e-07
-0.00195822
7.62e-07
-0.00251776
1.34007e-06
-0.00307757
2.06167e-06
-0.00363728
2.91376e-06
-0.0041973
3.8728e-06
-0.00475732
4.92073e-06
-0.00531754
6.02372e-06
-0.00587801
7.15839e-06
-0.00643852
8.28066e-06
-0.00699946
9.36106e-06
-0.00756038
1.03499e-05
-0.00812184
1.12055e-05
-0.00868328
1.1885e-05
-0.0092454
1.23225e-05
-0.00980736
1.24967e-05
-0.0103703
1.22958e-05
-0.0109328
1.17471e-05
-0.0114969
1.06472e-05
-0.0120597
9.11003e-06
-0.0126255
6.7774e-06
-0.013189
4.00484e-06
-0.000279796
-0.000839417
8.29266e-08
-0.00139904
3.30792e-07
-0.0019588
7.38648e-07
-0.00251848
1.29931e-06
-0.00307842
1.99947e-06
-0.00363823
2.82684e-06
-0.00419835
3.75868e-06
-0.00475842
4.778e-06
-0.00531868
5.85196e-06
-0.00587913
6.95815e-06
-0.0064396
8.05324e-06
-0.00700045
9.10878e-06
-0.00756124
1.00752e-05
-0.00812252
1.09117e-05
-0.00868372
1.15747e-05
-0.00924557
1.19997e-05
-0.00980715
1.21644e-05
-0.0103698
1.19625e-05
-0.0109317
1.14231e-05
-0.0114954
1.03538e-05
-0.0120573
8.8755e-06
-0.0126227
6.65151e-06
-0.013185
3.92842e-06
-0.000279879
-0.000839665
8.0195e-08
-0.00139945
3.19921e-07
-0.00195936
7.14468e-07
-0.00251918
1.25701e-06
-0.00307925
1.93473e-06
-0.00363917
2.736e-06
-0.00419937
3.63891e-06
-0.0047595
4.6275e-06
-0.00531978
5.67004e-06
-0.00588023
6.74537e-06
-0.00644066
7.81119e-06
-0.00700141
8.84062e-06
-0.00756207
9.78483e-06
-0.00812318
1.0604e-05
-0.00868414
1.1254e-05
-0.00924574
1.16707e-05
-0.00980695
1.183e-05
-0.0103692
1.16278e-05
-0.0109306
1.10923e-05
-0.0114939
1.00395e-05
-0.0120551
8.59307e-06
-0.01262
6.42444e-06
-0.013181
3.8184e-06
-0.000279959
-0.000839905
7.74331e-08
-0.00139985
3.08925e-07
-0.0019599
6.89978e-07
-0.00251986
1.21408e-06
-0.00308005
1.86884e-06
-0.00364007
2.64321e-06
-0.00420036
3.51598e-06
-0.00476054
4.47221e-06
-0.00532086
5.48118e-06
-0.00588129
6.52305e-06
-0.00644168
7.55689e-06
-0.00700236
8.55768e-06
-0.00756289
9.47805e-06
-0.00812383
1.02798e-05
-0.00868456
1.09192e-05
-0.0092459
1.13323e-05
-0.00980674
1.14938e-05
-0.0103687
1.1299e-05
-0.0109295
1.07742e-05
-0.0114925
9.73864e-06
-0.0120529
8.3142e-06
-0.0126174
6.1924e-06
-0.0131772
3.67608e-06
-0.000280037
-0.000840137
7.46736e-08
-0.00140023
2.97932e-07
-0.00196043
6.65481e-07
-0.00252052
1.17108e-06
-0.00308082
1.8027e-06
-0.00364094
2.54977e-06
-0.00420131
3.3917e-06
-0.00476155
4.31444e-06
-0.0053219
5.28814e-06
-0.00588233
6.29421e-06
-0.00644269
7.29309e-06
-0.00700328
8.26184e-06
-0.0075637
9.15487e-06
-0.00812447
9.93621e-06
-0.00868497
1.0564e-05
-0.00924606
1.09746e-05
-0.00980654
1.11448e-05
-0.0103682
1.09664e-05
-0.0109285
1.04663e-05
-0.0114911
9.45831e-06
-0.0120508
8.06032e-06
-0.0126149
5.9754e-06
-0.0131735
3.49067e-06
-0.000280111
-0.00084036
7.19171e-08
-0.00140059
2.86949e-07
-0.00196093
6.40993e-07
-0.00252115
1.12807e-06
-0.00308157
1.73643e-06
-0.00364178
2.45598e-06
-0.00420224
3.2666e-06
-0.00476252
4.15506e-06
-0.00532291
5.09226e-06
-0.00588332
6.06063e-06
-0.00644365
7.02181e-06
-0.00700417
7.95489e-06
-0.00756448
8.8161e-06
-0.0081251
9.57184e-06
-0.00868538
1.0183e-05
-0.00924624
1.05875e-05
-0.00980635
1.07666e-05
-0.0103677
1.06089e-05
-0.0109275
1.01474e-05
-0.0114897
9.18424e-06
-0.0120487
7.8386e-06
-0.0126124
5.79488e-06
-0.0131701
3.3176e-06
-0.000280183
-0.000840575
6.91425e-08
-0.00140095
2.75892e-07
-0.00196142
6.16337e-07
-0.00252176
1.08472e-06
-0.00308229
1.66961e-06
-0.00364259
2.36126e-06
-0.00420313
3.14009e-06
-0.00476346
3.99352e-06
-0.00532387
4.89318e-06
-0.00588429
5.8223e-06
-0.00644459
6.7436e-06
-0.00700503
7.63779e-06
-0.00756523
8.46277e-06
-0.00812571
9.18685e-06
-0.00868579
9.7744e-06
-0.00924642
1.01645e-05
-0.00980618
1.03459e-05
-0.0103672
1.02035e-05
-0.0109265
9.78396e-06
-0.0114883
8.87395e-06
-0.0120467
7.61273e-06
-0.0126099
5.64841e-06
-0.0131667
3.29351e-06
-0.000280252
-0.000840782
6.63014e-08
-0.00140129
2.64572e-07
-0.00196189
5.91079e-07
-0.00252234
1.04029e-06
-0.00308298
1.60106e-06
-0.00364337
2.26405e-06
-0.00420398
3.01012e-06
-0.00476435
3.82736e-06
-0.0053248
4.6881e-06
-0.00588521
5.57627e-06
-0.00644548
6.45571e-06
-0.00700586
7.30817e-06
-0.00756596
8.09311e-06
-0.0081263
8.78e-06
-0.00868618
9.33686e-06
-0.0092466
9.70341e-06
-0.00980603
9.87613e-06
-0.0103668
9.73652e-06
-0.0109256
9.3482e-06
-0.0114871
8.48156e-06
-0.0120447
7.3094e-06
-0.0126076
5.4361e-06
-0.0131635
3.22883e-06
-0.000280319
-0.00084098
6.33258e-08
-0.00140161
2.52703e-07
-0.00196234
5.64585e-07
-0.0025229
9.93654e-07
-0.00308365
1.52907e-06
-0.00364412
2.16189e-06
-0.0042048
2.8734e-06
-0.00476521
3.65245e-06
-0.00532569
4.47194e-06
-0.00588609
5.31688e-06
-0.00644634
6.15161e-06
-0.00700664
6.95974e-06
-0.00756665
7.70029e-06
-0.00812686
8.3463e-06
-0.00868655
8.86506e-06
-0.00924677
9.20224e-06
-0.00980589
9.35181e-06
-0.0103664
9.20484e-06
-0.0109247
8.82401e-06
-0.0114859
7.9879e-06
-0.0120429
6.88252e-06
-0.0126053
5.10124e-06
-0.0131602
3.04609e-06
-0.000280382
-0.00084117
6.04698e-08
-0.00140193
2.41299e-07
-0.00196277
5.39121e-07
-0.00252344
9.48868e-07
-0.00308428
1.45999e-06
-0.00364483
2.06397e-06
-0.00420557
2.74249e-06
-0.00476603
3.48529e-06
-0.00532654
4.26564e-06
-0.00588692
5.07019e-06
-0.00644714
5.86323e-06
-0.00700739
6.63111e-06
-0.00756729
7.33071e-06
-0.00812737
7.94123e-06
-0.00868689
8.42547e-06
-0.00924692
8.73969e-06
-0.00980574
8.8654e-06
-0.0103661
8.7143e-06
-0.0109239
8.32942e-06
-0.0114848
7.52134e-06
-0.0120411
6.45821e-06
-0.0126033
4.75898e-06
-0.0131572
2.81897e-06
-0.000280443
-0.000841351
5.79422e-08
-0.00140222
2.31214e-07
-0.00196318
5.16633e-07
-0.00252395
9.09389e-07
-0.00308488
1.39926e-06
-0.00364551
1.97815e-06
-0.00420632
2.62824e-06
-0.00476681
3.33991e-06
-0.00532734
4.08742e-06
-0.00588772
4.85827e-06
-0.00644791
5.61834e-06
-0.00700809
6.35416e-06
-0.00756791
7.02439e-06
-0.00812785
7.60899e-06
-0.0086872
8.07533e-06
-0.00924705
8.37742e-06
-0.0098056
8.49982e-06
-0.0103657
8.35087e-06
-0.0109231
7.98314e-06
-0.0114837
7.19888e-06
-0.0120394
6.19729e-06
-0.0126013
4.55469e-06
-0.0131544
2.74119e-06
-0.000280501
-0.000841525
5.52104e-08
-0.00140251
2.20315e-07
-0.00196357
4.92317e-07
-0.00252444
8.66714e-07
-0.00308546
1.33363e-06
-0.00364616
1.88544e-06
-0.00420703
2.50478e-06
-0.00476756
3.18277e-06
-0.00532811
3.89477e-06
-0.00588848
4.62914e-06
-0.00644865
5.35361e-06
-0.00700876
6.05447e-06
-0.0075685
6.6927e-06
-0.00812831
7.24886e-06
-0.0086875
7.69659e-06
-0.00924717
7.98613e-06
-0.00980546
8.10623e-06
-0.0103653
7.95906e-06
-0.0109223
7.61116e-06
-0.0114827
6.84691e-06
-0.0120377
5.89493e-06
-0.0125995
4.30383e-06
-0.0131516
2.65828e-06
-0.000280556
-0.00084169
5.22458e-08
-0.00140278
2.08486e-07
-0.00196394
4.65935e-07
-0.0025249
8.20425e-07
-0.00308601
1.26248e-06
-0.00364678
1.785e-06
-0.00420771
2.37113e-06
-0.00476827
3.01267e-06
-0.00532884
3.68634e-06
-0.0058892
4.38141e-06
-0.00644935
5.06754e-06
-0.0070094
5.73053e-06
-0.00756906
6.33388e-06
-0.00812876
6.85891e-06
-0.00868779
7.28631e-06
-0.00924729
7.5621e-06
-0.00980533
7.67949e-06
-0.0103649
7.53543e-06
-0.0109215
7.21722e-06
-0.0114817
6.47811e-06
-0.0120361
5.5708e-06
-0.0125979
4.01179e-06
-0.013149
2.45626e-06
-0.000280609
-0.000841847
4.90256e-08
-0.00140304
1.95641e-07
-0.0019643
4.37296e-07
-0.00252534
7.70217e-07
-0.00308653
1.18536e-06
-0.00364736
1.67621e-06
-0.00420835
2.22646e-06
-0.00476894
2.82871e-06
-0.00532954
3.46119e-06
-0.00588989
4.11408e-06
-0.00645001
4.75927e-06
-0.00701001
5.38151e-06
-0.00756959
5.94762e-06
-0.00812918
6.43869e-06
-0.00868805
6.84424e-06
-0.00924741
7.10338e-06
-0.0098052
7.21585e-06
-0.0103646
7.07255e-06
-0.0109208
6.79268e-06
-0.0114808
6.08793e-06
-0.0120346
5.25804e-06
-0.0125963
4.06067e-06
-0.0131465
2.29188e-06
-0.000280658
-0.000841994
4.55306e-08
-0.00140328
1.81707e-07
-0.00196463
4.06249e-07
-0.00252576
7.15813e-07
-0.00308702
1.10185e-06
-0.00364791
1.55847e-06
-0.00420895
2.07e-06
-0.00476958
2.62986e-06
-0.00533019
3.2182e-06
-0.00589053
3.8259e-06
-0.00645064
4.42753e-06
-0.00701058
5.0061e-06
-0.00757008
5.53308e-06
-0.00812958
5.98759e-06
-0.00868829
6.37051e-06
-0.00924753
6.60985e-06
-0.00980507
6.71598e-06
-0.0103643
6.56751e-06
-0.0109201
6.31969e-06
-0.01148
5.64932e-06
-0.0120331
4.96822e-06
-0.0125948
3.64659e-06
-0.0131442
2.16275e-06
-0.000280703
-0.00084213
4.17521e-08
-0.00140351
1.66648e-07
-0.00196494
3.72703e-07
-0.00252614
6.57045e-07
-0.00308748
1.01165e-06
-0.00364842
1.43136e-06
-0.00420951
1.90113e-06
-0.00477016
2.41534e-06
-0.0053308
2.95636e-06
-0.00589113
3.51561e-06
-0.00645122
4.07093e-06
-0.00701112
4.60259e-06
-0.00757054
5.08893e-06
-0.00812995
5.50413e-06
-0.00868852
5.86433e-06
-0.00924765
6.08081e-06
-0.00980492
6.18493e-06
-0.0103641
6.02916e-06
-0.0109194
5.81273e-06
-0.0114794
5.15256e-06
-0.0120318
4.60352e-06
-0.0125934
3.33693e-06
-0.0131421
1.98563e-06
-0.000280745
-0.000842256
3.7699e-08
-0.00140371
1.50487e-07
-0.00196522
3.36679e-07
-0.0025265
5.93886e-07
-0.0030879
9.14695e-07
-0.00364889
1.29472e-06
-0.00421003
1.71963e-06
-0.00477071
2.18476e-06
-0.00533136
2.67516e-06
-0.00589168
3.18235e-06
-0.00645175
3.68838e-06
-0.00701161
4.16939e-06
-0.00757097
4.6139e-06
-0.0081303
4.98643e-06
-0.00868871
5.3244e-06
-0.00924776
5.51307e-06
-0.00980476
5.62156e-06
-0.0103639
5.4576e-06
-0.0109187
5.29866e-06
-0.0114788
5.05327e-06
-0.0120305
4.07557e-06
-0.012592
3.02406e-06
-0.0131401
1.79236e-06
-0.000280783
-0.000842369
3.33955e-08
-0.0014039
1.33298e-07
-0.00196548
2.98294e-07
-0.00252682
5.2651e-07
-0.00308828
8.11138e-07
-0.00364932
1.14877e-06
-0.00421049
1.52579e-06
-0.0047712
1.93847e-06
-0.00533186
2.3748e-06
-0.00589219
2.82592e-06
-0.00645223
3.27959e-06
-0.00701206
3.70572e-06
-0.00757134
4.10777e-06
-0.00813063
4.43305e-06
-0.00868889
4.75171e-06
-0.00924789
4.90574e-06
-0.00980458
5.02514e-06
-0.0103637
4.83749e-06
-0.0109182
4.81298e-06
-0.0114782
4.36727e-06
-0.0120294
3.66842e-06
-0.0125908
2.72202e-06
-0.0131383
1.60593e-06
-0.000280817
-0.000842469
2.88577e-08
-0.00140406
1.15156e-07
-0.00196571
2.57707e-07
-0.0025271
4.55166e-07
-0.00308861
7.01347e-07
-0.0036497
9.94067e-07
-0.00421091
1.32047e-06
-0.00477163
1.67752e-06
-0.00533231
2.05642e-06
-0.00589264
2.44709e-06
-0.00645266
2.84585e-06
-0.00701247
3.21197e-06
-0.00757167
3.5728e-06
-0.00813094
3.84364e-06
-0.00868904
4.15043e-06
-0.00924802
4.26033e-06
-0.0098044
4.4068e-06
-0.0103637
4.56491e-06
-0.0109176
4.12588e-06
-0.0114775
3.75926e-06
-0.0120285
3.20573e-06
-0.0125897
2.38849e-06
-0.0131367
1.40823e-06
-0.000280846
-0.000842556
2.40507e-08
-0.00140421
9.60764e-08
-0.0019659
2.15075e-07
-0.00252734
3.80273e-07
-0.00308891
5.86056e-07
-0.00365002
8.31637e-07
-0.00421127
1.10495e-06
-0.00477201