/*--------------------------------*- C++ -*----------------------------------*\
  =========                 |
  \\      /  F ield         | OpenFOAM: The Open Source CFD Toolbox
   \\    /   O peration     | Website:  https://openfoam.org
    \\  /    A nd           | Version:  10
     \\/     M anipulation  |
\*---------------------------------------------------------------------------*/
FoamFile
{
    format      ascii;
    class       volScalarField;
    location    "0.31";
    object      rho;
}
// * * * * * * * * * * * * * * * * * * * * * * * * * * * * * * * * * * * * * //

dimensions      [1 -3 0 0 0 0 0];

internalField   nonuniform List<scalar> 
4176
(
0.0308487
0.0308517
0.030858
0.0308683
0.0308815
0.0308977
0.0309187
0.0309401
0.0309694
0.0309955
0.0310323
0.0310648
0.0311068
0.0311475
0.0311925
0.0312439
0.031287
0.0313549
0.0313934
0.0314789
0.0315108
0.031616
0.031636
0.0317506
0.0308567
0.0308595
0.0308649
0.0308747
0.0308858
0.0309015
0.0309192
0.0309398
0.030965
0.0309899
0.031022
0.0310523
0.0310899
0.031127
0.0311682
0.0312142
0.0312541
0.0313144
0.03135
0.0314266
0.0314539
0.0315541
0.0315747
0.0317038
0.030876
0.0308789
0.0308845
0.0308946
0.0309063
0.0309223
0.030941
0.0309621
0.0309885
0.031014
0.0310477
0.0310787
0.0311182
0.0311562
0.0311996
0.0312468
0.0312891
0.031352
0.0313878
0.031468
0.0314956
0.0315945
0.0316132
0.0317345
0.0309047
0.0309076
0.030913
0.0309228
0.0309342
0.0309498
0.0309679
0.0309883
0.0310143
0.0310387
0.031072
0.0311016
0.0311408
0.031177
0.0312201
0.0312655
0.0313074
0.0313703
0.0314015
0.0314841
0.0315093
0.0316069
0.0316245
0.0317368
0.0309441
0.030947
0.0309524
0.0309623
0.0309735
0.0309893
0.0310073
0.0310279
0.0310535
0.0310784
0.0311112
0.0311413
0.0311801
0.0312165
0.0312597
0.0313045
0.0313483
0.0314082
0.031443
0.0315235
0.0315503
0.0316475
0.0316665
0.0317805
0.0309936
0.0309965
0.0310018
0.0310116
0.0310226
0.0310382
0.0310558
0.0310763
0.0311014
0.0311261
0.0311583
0.0311881
0.0312263
0.0312623
0.031305
0.0313489
0.0313931
0.03145
0.0314881
0.0315647
0.0315924
0.0316884
0.0317083
0.0318237
0.0310535
0.0310564
0.0310616
0.0310714
0.0310822
0.0310978
0.0311152
0.0311355
0.0311604
0.0311848
0.0312168
0.0312463
0.0312842
0.0313197
0.0313624
0.0314054
0.0314499
0.0315051
0.0315442
0.0316188
0.0316478
0.0317422
0.0317624
0.0318759
0.0311237
0.0311265
0.0311316
0.0311414
0.031152
0.0311674
0.0311846
0.0312047
0.0312292
0.0312534
0.0312849
0.0313141
0.0313515
0.0313865
0.0314289
0.031471
0.0315155
0.0315689
0.0316092
0.0316811
0.0317113
0.0318039
0.0318247
0.0319369
0.0312042
0.031207
0.031212
0.0312217
0.0312322
0.0312475
0.0312644
0.0312843
0.0313085
0.0313324
0.0313635
0.0313922
0.0314293
0.0314637
0.0315058
0.031547
0.0315915
0.0316432
0.0316843
0.0317539
0.0317851
0.0318756
0.031897
0.0320073
0.031295
0.0312978
0.0313028
0.0313124
0.0313227
0.0313378
0.0313545
0.0313742
0.031398
0.0314216
0.0314523
0.0314805
0.0315172
0.0315509
0.0315926
0.0316329
0.0316773
0.0317274
0.0317692
0.0318363
0.0318687
0.0319565
0.0319785
0.032087
0.0313963
0.031399
0.0314039
0.0314134
0.0314236
0.0314386
0.0314549
0.0314744
0.0314978
0.031521
0.0315513
0.0315791
0.0316153
0.0316483
0.0316896
0.031729
0.0317732
0.0318217
0.031864
0.0319288
0.0319616
0.0320476
0.0320698
0.0321763
0.031508
0.0315108
0.0315156
0.031525
0.0315349
0.0315497
0.0315657
0.031585
0.031608
0.0316309
0.0316607
0.031688
0.0317236
0.031756
0.0317967
0.0318352
0.031879
0.0319261
0.0319688
0.0320311
0.0320648
0.032148
0.0321706
0.032275
0.0316303
0.031633
0.0316377
0.031647
0.0316567
0.0316714
0.0316871
0.031706
0.0317286
0.0317511
0.0317805
0.0318072
0.0318423
0.0318739
0.0319142
0.0319516
0.031995
0.0320407
0.0320836
0.0321435
0.0321778
0.0322584
0.0322812
0.0323833
0.0317632
0.0317659
0.0317705
0.0317797
0.0317892
0.0318036
0.0318189
0.0318375
0.0318597
0.0318818
0.0319106
0.0319368
0.0319713
0.0320022
0.0320418
0.0320782
0.0321212
0.0321653
0.0322084
0.032266
0.0323006
0.0323789
0.0324016
0.0325013
0.0319068
0.0319095
0.031914
0.031923
0.0319323
0.0319464
0.0319615
0.0319797
0.0320014
0.032023
0.0320513
0.0320768
0.0321108
0.0321408
0.0321799
0.0322152
0.0322576
0.0323003
0.0323433
0.0323984
0.0324337
0.0325091
0.0325319
0.0326291
0.0320612
0.0320639
0.0320682
0.0320772
0.0320861
0.0321001
0.0321147
0.0321326
0.0321538
0.0321748
0.0322025
0.0322274
0.0322607
0.0322899
0.0323283
0.0323625
0.0324044
0.0324455
0.0324883
0.0325411
0.0325767
0.0326492
0.0326725
0.0327668
0.0322265
0.0322291
0.0322334
0.0322421
0.0322509
0.0322645
0.0322787
0.0322962
0.0323168
0.0323373
0.0323644
0.0323886
0.0324212
0.0324495
0.0324871
0.0325203
0.0325615
0.0326011
0.0326435
0.0326939
0.0327299
0.0327995
0.0328232
0.0329144
0.0324028
0.0324054
0.0324095
0.0324181
0.0324265
0.0324399
0.0324537
0.0324707
0.0324908
0.0325107
0.0325371
0.0325605
0.0325923
0.0326197
0.0326565
0.0326885
0.032729
0.0327671
0.0328091
0.0328571
0.0328934
0.0329599
0.0329839
0.0330722
0.0325901
0.0325927
0.0325966
0.0326051
0.0326132
0.0326263
0.0326396
0.0326562
0.0326757
0.0326949
0.0327206
0.0327432
0.0327742
0.0328006
0.0328365
0.0328674
0.032907
0.0329436
0.032985
0.0330306
0.033067
0.0331307
0.033155
0.03324
0.0327887
0.0327912
0.032795
0.0328033
0.0328111
0.0328238
0.0328366
0.0328527
0.0328716
0.0328902
0.0329151
0.0329368
0.032967
0.0329923
0.0330273
0.0330569
0.0330957
0.0331306
0.0331714
0.0332146
0.0332513
0.0333116
0.0333363
0.0334181
0.0329986
0.0330011
0.0330047
0.0330128
0.0330202
0.0330326
0.0330449
0.0330604
0.0330786
0.0330965
0.0331206
0.0331415
0.0331707
0.033195
0.033229
0.0332573
0.033295
0.0333283
0.0333684
0.0334092
0.0334458
0.0335032
0.0335281
0.0336065
0.0332198
0.0332223
0.0332258
0.0332336
0.0332407
0.0332527
0.0332644
0.0332794
0.0332969
0.0333141
0.0333373
0.0333573
0.0333856
0.0334087
0.0334416
0.0334686
0.0335053
0.0335368
0.033576
0.0336146
0.0336511
0.033705
0.0337303
0.0338054
0.0334526
0.0334551
0.0334583
0.0334659
0.0334726
0.0334842
0.0334954
0.0335098
0.0335265
0.0335429
0.0335653
0.0335843
0.0336116
0.0336336
0.0336654
0.0336909
0.0337265
0.0337563
0.0337946
0.0338308
0.033867
0.0339177
0.033943
0.0340146
0.033697
0.0336994
0.0337025
0.0337099
0.0337161
0.0337273
0.0337378
0.0337516
0.0337676
0.0337832
0.0338047
0.0338226
0.0338489
0.0338697
0.0339003
0.0339244
0.0339589
0.0339869
0.0340241
0.034058
0.0340939
0.0341411
0.0341664
0.0342344
0.0339531
0.0339555
0.0339583
0.0339655
0.0339713
0.033982
0.0339919
0.0340051
0.0340202
0.034035
0.0340555
0.0340724
0.0340976
0.0341171
0.0341466
0.0341692
0.0342025
0.0342286
0.0342647
0.0342962
0.0343316
0.0343756
0.0344007
0.034465
0.034221
0.0342232
0.0342259
0.0342328
0.0342382
0.0342485
0.0342578
0.0342703
0.0342845
0.0342984
0.0343179
0.0343338
0.0343578
0.0343761
0.0344043
0.0344254
0.0344574
0.0344817
0.0345167
0.0345458
0.0345806
0.0346212
0.0346462
0.0347064
0.0345006
0.0345029
0.0345053
0.034512
0.034517
0.0345268
0.0345354
0.0345472
0.0345607
0.0345736
0.0345921
0.0346069
0.0346297
0.0346466
0.0346736
0.0346931
0.0347238
0.0347463
0.03478
0.0348068
0.0348407
0.0348779
0.0349029
0.0349592
0.0347923
0.0347945
0.0347967
0.0348031
0.0348077
0.034817
0.0348249
0.0348361
0.0348487
0.0348607
0.0348782
0.0348917
0.0349134
0.0349289
0.0349546
0.0349725
0.0350018
0.0350223
0.0350548
0.0350792
0.0351122
0.0351458
0.0351711
0.035223
0.0350959
0.0350981
0.0351001
0.0351062
0.0351103
0.0351192
0.0351265
0.035137
0.0351486
0.0351598
0.0351762
0.0351886
0.035209
0.0352231
0.0352474
0.0352636
0.0352915
0.0353101
0.0353412
0.0353633
0.0353952
0.0354253
0.0354506
0.035498
0.0354117
0.0354138
0.0354156
0.0354215
0.0354251
0.0354335
0.0354401
0.0354499
0.0354607
0.0354709
0.0354862
0.0354974
0.0355166
0.0355293
0.0355522
0.0355667
0.0355932
0.0356098
0.0356394
0.0356591
0.03569
0.0357165
0.0357414
0.035785
0.0357397
0.0357417
0.0357433
0.0357489
0.0357521
0.03576
0.0357659
0.035775
0.0357849
0.0357942
0.0358084
0.0358185
0.0358364
0.0358476
0.0358691
0.0358819
0.0359069
0.0359214
0.0359495
0.0359668
0.0359965
0.0360197
0.0360442
0.0360835
0.03608
0.036082
0.0360834
0.0360887
0.0360914
0.0360988
0.036104
0.0361124
0.0361214
0.0361297
0.0361429
0.0361517
0.0361685
0.0361782
0.0361983
0.0362093
0.0362328
0.0362452
0.0362718
0.0362866
0.036315
0.0363348
0.0363594
0.0363937
0.0364327
0.0364346
0.0364358
0.0364408
0.0364431
0.03645
0.0364545
0.0364622
0.0364703
0.0364777
0.0364897
0.0364974
0.0365129
0.0365211
0.0365399
0.0365491
0.0365711
0.0365814
0.0366064
0.0366187
0.0366455
0.0366624
0.0366864
0.0367163
0.0367978
0.0367997
0.0368007
0.0368054
0.0368072
0.0368137
0.0368175
0.0368244
0.0368316
0.036838
0.036849
0.0368555
0.0368697
0.0368765
0.0368939
0.0369014
0.0369219
0.0369301
0.0369535
0.0369632
0.0369887
0.037002
0.0370258
0.037051
0.0371755
0.0371774
0.0371781
0.0371826
0.0371839
0.0371899
0.037193
0.0371993
0.0372056
0.037211
0.0372209
0.0372262
0.0372391
0.0372445
0.0372605
0.0372662
0.0372853
0.0372913
0.0373133
0.0373204
0.0373443
0.0373544
0.0373777
0.0373979
0.0375659
0.0375677
0.0375682
0.0375725
0.0375733
0.0375788
0.0375813
0.0375868
0.0375922
0.0375968
0.0376056
0.0376096
0.0376213
0.0376252
0.0376398
0.0376436
0.0376613
0.0376652
0.0376857
0.0376903
0.0377128
0.0377196
0.0377418
0.0377575
0.037969
0.0379707
0.037971
0.0379751
0.0379755
0.0379805
0.0379823
0.0379872
0.0379917
0.0379953
0.038003
0.0380058
0.0380163
0.0380186
0.0380318
0.0380339
0.0380501
0.0380518
0.0380709
0.0380729
0.0380941
0.0380978
0.0381188
0.0381297
0.0383849
0.0383867
0.0383867
0.0383906
0.0383905
0.0383951
0.0383963
0.0384005
0.0384041
0.0384067
0.0384134
0.038415
0.0384242
0.0384251
0.0384369
0.0384371
0.0384518
0.0384513
0.038469
0.0384683
0.0384883
0.0384887
0.0385088
0.0385148
0.0388139
0.0388156
0.0388154
0.038819
0.0388186
0.0388227
0.0388232
0.0388267
0.0388295
0.0388312
0.0388369
0.0388373
0.0388452
0.0388446
0.038855
0.0388534
0.0388666
0.0388638
0.0388801
0.0388767
0.0388953
0.0388927
0.0389118
0.038913
0.0392559
0.0392576
0.0392573
0.0392606
0.0392597
0.0392634
0.0392632
0.0392661
0.039268
0.0392689
0.0392734
0.0392727
0.0392794
0.0392773
0.0392864
0.0392829
0.0392946
0.0392895
0.0393044
0.0392982
0.0393154
0.0393096
0.0393276
0.0393247
0.0397112
0.0397128
0.0397123
0.0397154
0.0397141
0.0397174
0.0397165
0.0397187
0.0397197
0.0397197
0.0397232
0.0397213
0.0397268
0.0397233
0.039731
0.0397257
0.039736
0.0397286
0.039742
0.039733
0.0397488
0.0397397
0.0397564
0.0397498
0.0401798
0.0401814
0.0401807
0.0401836
0.0401818
0.0401846
0.0401831
0.0401847
0.0401848
0.0401839
0.0401864
0.0401833
0.0401876
0.0401826
0.0401889
0.0401818
0.0401908
0.0401811
0.0401932
0.0401813
0.0401958
0.0401831
0.0401987
0.0401878
0.040662
0.0406635
0.0406626
0.0406652
0.040663
0.0406654
0.0406632
0.0406641
0.0406634
0.0406615
0.0406629
0.0406587
0.0406618
0.0406553
0.0406603
0.0406514
0.040659
0.040647
0.0406579
0.0406431
0.0406564
0.0406402
0.0406548
0.0406392
0.0411577
0.0411592
0.041158
0.0411605
0.0411578
0.0411597
0.0411568
0.0411571
0.0411555
0.0411527
0.041153
0.0411476
0.0411495
0.0411415
0.0411452
0.0411345
0.0411408
0.0411265
0.0411361
0.0411185
0.0411308
0.0411108
0.0411248
0.0411045
0.041667
0.0416685
0.0416672
0.0416694
0.0416662
0.0416677
0.0416641
0.0416637
0.0416612
0.0416575
0.0416568
0.0416502
0.0416508
0.0416414
0.0416437
0.0416312
0.0416361
0.0416196
0.0416279
0.0416075
0.0416186
0.0415951
0.0416085
0.0415838
0.0421902
0.0421916
0.0421901
0.042192
0.0421884
0.0421895
0.0421852
0.0421841
0.0421807
0.0421761
0.0421743
0.0421665
0.0421659
0.042155
0.0421559
0.0421416
0.0421452
0.0421263
0.0421334
0.0421101
0.0421204
0.0420929
0.0421062
0.0420764
0.0427271
0.0427286
0.0427268
0.0427285
0.0427244
0.042725
0.0427201
0.0427183
0.042714
0.0427084
0.0427055
0.0426965
0.0426947
0.0426823
0.0426819
0.0426657
0.042668
0.0426469
0.0426526
0.0426263
0.0426358
0.0426044
0.042618
0.0425827
0.0432779
0.0432793
0.0432773
0.0432788
0.0432742
0.0432744
0.0432688
0.0432663
0.0432611
0.0432546
0.0432506
0.0432404
0.0432374
0.0432235
0.0432218
0.0432036
0.0432047
0.0431812
0.0431858
0.0431562
0.0431653
0.0431294
0.0431436
0.0431032
0.0438425
0.0438439
0.0438417
0.0438429
0.0438379
0.0438377
0.0438313
0.0438282
0.0438221
0.0438146
0.0438096
0.0437982
0.043794
0.0437785
0.0437756
0.0437554
0.0437553
0.0437293
0.043733
0.0436999
0.0437088
0.0436687
0.0436828
0.0436376
0.044421
0.0444223
0.0444199
0.0444209
0.0444154
0.0444148
0.0444077
0.0444039
0.0443969
0.0443885
0.0443825
0.0443698
0.0443645
0.0443474
0.0443433
0.0443211
0.04432
0.0442912
0.0442943
0.0442575
0.0442668
0.0442215
0.044236
0.044186
0.0450132
0.0450145
0.0450119
0.0450127
0.0450067
0.0450056
0.0449979
0.0449934
0.0449856
0.0449762
0.0449692
0.0449553
0.0449489
0.0449302
0.044925
0.0449006
0.0448986
0.0448668
0.0448697
0.044829
0.044839
0.0447886
0.0448032
0.0447485
0.045619
0.0456203
0.0456175
0.0456181
0.0456117
0.0456102
0.0456018
0.0455967
0.045588
0.0455777
0.0455698
0.0455545
0.0455472
0.0455268
0.0455207
0.045494
0.0454914
0.0454564
0.0454594
0.0454149
0.0454242
0.0453705
0.0453844
0.0453254
0.0462385
0.0462397
0.0462368
0.0462371
0.0462302
0.0462284
0.0462193
0.0462136
0.0462041
0.0461929
0.0461841
0.0461675
0.0461593
0.0461371
0.0461303
0.0461012
0.0460982
0.0460598
0.0460636
0.0460144
0.0460237
0.0459663
0.0459797
0.0459165
0.0468713
0.0468726
0.0468694
0.0468696
0.0468623
0.0468601
0.0468503
0.046844
0.0468338
0.0468217
0.0468121
0.0467941
0.0467853
0.0467609
0.0467541
0.0467221
0.0467193
0.0466776
0.0466805
0.0466286
0.0466372
0.0465766
0.0465892
0.0465219
0.0475174
0.0475186
0.0475153
0.0475153
0.0475076
0.0475051
0.0474947
0.0474878
0.0474769
0.0474638
0.0474537
0.0474341
0.0474251
0.0473983
0.0473919
0.0473566
0.0473544
0.0473088
0.0473117
0.0472573
0.0472644
0.047201
0.0472128
0.0471416
0.0481765
0.0481778
0.0481742
0.0481741
0.048166
0.0481632
0.0481523
0.0481448
0.0481334
0.0481191
0.0481089
0.0480872
0.0480787
0.048049
0.0480433
0.0480046
0.0480025
0.0479549
0.0479565
0.0478998
0.0479058
0.0478395
0.0478507
0.0477756
0.0488484
0.0488498
0.0488459
0.0488458
0.0488372
0.0488343
0.0488228
0.0488147
0.0488031
0.0487873
0.0487776
0.0487534
0.0487456
0.0487138
0.048707
0.0486676
0.0486637
0.0486149
0.0486148
0.0485563
0.0485612
0.0484923
0.0485025
0.0484239
0.0495329
0.0495344
0.0495301
0.0495303
0.0495211
0.0495182
0.0495061
0.0494973
0.0494859
0.0494685
0.0494588
0.0494336
0.0494247
0.0493922
0.0493843
0.0493438
0.0493385
0.0492882
0.0492872
0.0492266
0.0492303
0.0491589
0.0491685
0.0490864
0.0502298
0.0502314
0.0502269
0.0502272
0.0502173
0.0502147
0.0502018
0.050193
0.0501807
0.0501631
0.0501526
0.0501267
0.0501169
0.0500836
0.0500747
0.0500331
0.0500268
0.0499752
0.0499729
0.0499106
0.0499134
0.0498396
0.0498483
0.049763
0.050939
0.0509405
0.050936
0.0509361
0.0509262
0.0509232
0.0509096
0.0509015
0.0508879
0.0508703
0.0508589
0.0508325
0.050822
0.050788
0.050778
0.0507356
0.050728
0.0506756
0.0506719
0.0506082
0.0506096
0.0505339
0.0505419
0.0504535
0.05166
0.0516617
0.0516572
0.0516571
0.0516471
0.0516439
0.05163
0.051622
0.0516069
0.0515903
0.0515774
0.0515509
0.0515397
0.0515049
0.0514942
0.0514509
0.0514423
0.0513887
0.0513843
0.0513189
0.0513196
0.0512416
0.0512489
0.0511576
0.052393
0.0523946
0.0523902
0.05239
0.0523799
0.0523766
0.0523624
0.0523544
0.0523383
0.0523224
0.0523076
0.0522821
0.0522696
0.0522343
0.0522229
0.0521787
0.0521694
0.0521151
0.0521091
0.0520429
0.0520423
0.0519627
0.0519693
0.0518753
0.0531377
0.0531394
0.0531349
0.0531347
0.0531245
0.0531212
0.0531067
0.0530986
0.0530819
0.0530663
0.0530504
0.0530254
0.0530113
0.0529762
0.052964
0.0529191
0.0529088
0.0528534
0.0528469
0.0527794
0.052778
0.0526966
0.0527025
0.0526061
0.0538941
0.0538958
0.0538913
0.0538912
0.0538807
0.0538774
0.0538627
0.0538546
0.0538374
0.053822
0.0538051
0.0537804
0.0537648
0.0537304
0.053717
0.0536713
0.0536605
0.0536043
0.0535965
0.0535283
0.0535258
0.0534432
0.0534483
0.0533497
0.0546622
0.0546639
0.0546593
0.0546593
0.0546487
0.0546454
0.0546303
0.0546223
0.0546046
0.0545893
0.0545715
0.0545471
0.0545306
0.0544959
0.0544815
0.0544356
0.0544239
0.0543667
0.0543584
0.0542892
0.0542858
0.0542018
0.0542062
0.0541057
0.0554419
0.0554437
0.055439
0.055439
0.0554283
0.055425
0.0554096
0.0554015
0.0553833
0.0553682
0.0553495
0.0553252
0.0553078
0.0552727
0.0552575
0.0552113
0.0551989
0.0551408
0.0551316
0.0550616
0.0550573
0.0549722
0.054976
0.0548736
0.0562333
0.0562352
0.0562304
0.0562305
0.0562195
0.0562161
0.0562004
0.0561921
0.0561735
0.0561583
0.0561387
0.0561144
0.0560959
0.0560608
0.0560445
0.0559981
0.0559849
0.0559259
0.0559161
0.0558451
0.0558401
0.055754
0.0557569
0.0556532
0.0570364
0.0570384
0.0570334
0.0570335
0.0570221
0.0570187
0.0570025
0.056994
0.0569748
0.0569594
0.0569387
0.0569145
0.0568949
0.0568596
0.0568424
0.0567954
0.0567816
0.0567219
0.0567113
0.0566393
0.0566334
0.0565466
0.056549
0.0564439
0.0578509
0.057853
0.0578478
0.0578478
0.057836
0.0578323
0.0578156
0.0578068
0.0577868
0.0577711
0.0577493
0.0577253
0.0577042
0.0576689
0.0576505
0.0576031
0.0575885
0.0575283
0.057517
0.0574439
0.0574375
0.0573499
0.0573516
0.0572456
0.0586763
0.0586784
0.058673
0.0586727
0.0586606
0.0586565
0.0586392
0.0586298
0.0586092
0.058593
0.05857
0.0585461
0.0585232
0.0584885
0.0584687
0.0584207
0.0584053
0.0583448
0.0583326
0.0582589
0.0582516
0.0581636
0.0581647
0.0580578
0.0595114
0.0595135
0.059508
0.0595074
0.0594949
0.0594903
0.0594725
0.0594626
0.0594412
0.0594244
0.0594005
0.0593766
0.0593519
0.0593178
0.059296
0.0592485
0.0592314
0.0591709
0.0591583
0.0590839
0.0590762
0.0589876
0.0589879
0.0588806
0.0603547
0.0603568
0.0603512
0.0603504
0.0603377
0.0603327
0.0603145
0.0603041
0.0602821
0.0602648
0.0602401
0.060216
0.0601897
0.0601565
0.0601321
0.0600862
0.0600669
0.0600069
0.0599934
0.0599193
0.0599104
0.0598218
0.0598217
0.0597139
0.0612042
0.0612063
0.0612008
0.0611999
0.0611871
0.061182
0.0611637
0.061153
0.0611308
0.0611132
0.061088
0.0610639
0.0610366
0.061004
0.0609777
0.0609333
0.0609123
0.0608523
0.060838
0.0607646
0.060755
0.0606663
0.0606658
0.060558
0.0620576
0.0620598
0.0620544
0.0620537
0.0620412
0.0620364
0.0620183
0.0620079
0.0619859
0.0619686
0.0619436
0.0619198
0.0618919
0.0618603
0.0618326
0.0617896
0.0617665
0.0617089
0.0616919
0.0616204
0.0616097
0.0615215
0.0615208
0.0614131
0.062913
0.0629153
0.0629103
0.0629101
0.0628983
0.0628942
0.0628769
0.0628674
0.0628463
0.0628299
0.0628057
0.0627829
0.0627554
0.062725
0.0626967
0.0626556
0.0626306
0.0625753
0.062557
0.0624861
0.0624755
0.0623876
0.0623867
0.0622795
0.0637695
0.0637721
0.0637676
0.0637682
0.0637573
0.0637544
0.0637384
0.0637304
0.0637109
0.0636962
0.0636735
0.0636525
0.0636262
0.0635976
0.06357
0.063531
0.0635057
0.0634524
0.0634335
0.0633625
0.0633524
0.0632648
0.0632641
0.0631571
0.0646281
0.0646309
0.0646271
0.0646286
0.0646188
0.0646174
0.0646031
0.064597
0.0645795
0.064567
0.0645464
0.0645278
0.0645037
0.0644776
0.0644516
0.0644154
0.0643905
0.0643405
0.0643205
0.0642522
0.0642415
0.0641537
0.0641531
0.0640462
0.0654919
0.0654951
0.0654918
0.0654943
0.0654855
0.0654856
0.0654728
0.0654687
0.0654532
0.065443
0.0654248
0.065409
0.0653873
0.0653641
0.0653408
0.0653074
0.0652847
0.0652378
0.0652189
0.0651534
0.0651433
0.0650556
0.0650553
0.0649473
0.0663666
0.0663703
0.066367
0.0663706
0.0663621
0.0663637
0.0663516
0.0663493
0.0663349
0.066327
0.0663106
0.0662972
0.0662776
0.0662572
0.0662372
0.0662057
0.0661876
0.0661412
0.0661281
0.0660626
0.0660572
0.0659704
0.0659712
0.0658627
0.06726
0.0672645
0.0672604
0.0672653
0.0672555
0.067259
0.0672453
0.0672454
0.0672295
0.067224
0.0672072
0.0671958
0.0671771
0.0671582
0.0671422
0.0671083
0.0670994
0.067048
0.0670452
0.0669774
0.0669787
0.0668944
0.0668989
0.066796
0.0681814
0.0681854
0.0681821
0.0681851
0.0681764
0.0681771
0.0681647
0.0681615
0.068147
0.0681387
0.0681223
0.0681098
0.0680904
0.0680733
0.0680547
0.0680236
0.0680146
0.0679644
0.0679639
0.0678978
0.0679028
0.0678202
0.0678294
0.0677343
0.0691391
0.0691428
0.0691389
0.069141
0.0691307
0.0691298
0.0691151
0.0691097
0.0690925
0.0690815
0.0690624
0.0690471
0.069025
0.0690061
0.0689826
0.0689547
0.0689383
0.0688921
0.0688893
0.0688225
0.0688295
0.0687454
0.0687579
0.0686631
0.0701396
0.070143
0.0701382
0.070139
0.0701267
0.0701234
0.0701056
0.0700969
0.0700757
0.0700604
0.0700367
0.0700165
0.0699894
0.0699656
0.0699362
0.0699052
0.0698817
0.0698355
0.0698255
0.0697567
0.0697639
0.0696744
0.0696893
0.0695904
0.0711861
0.0711899
0.0711835
0.0711833
0.0711685
0.0711629
0.0711415
0.0711292
0.0711031
0.0710832
0.0710531
0.0710272
0.0709927
0.0709621
0.0709245
0.0708864
0.0708548
0.070801
0.070785
0.070707
0.0707116
0.0706137
0.0706293
0.070522
0.0722789
0.0722832
0.072275
0.0722744
0.072257
0.0722497
0.0722243
0.0722096
0.0721774
0.0721548
0.0721163
0.0720867
0.0720423
0.0720051
0.071958
0.0719102
0.0718701
0.0718008
0.0717785
0.0716866
0.0716838
0.0715723
0.0715855
0.0714645
0.0734146
0.073418
0.0734107
0.0734077
0.0733902
0.0733798
0.0733536
0.0733342
0.0733011
0.0732714
0.0732317
0.0731931
0.0731453
0.0730992
0.0730435
0.0729895
0.0729318
0.0728583
0.0728175
0.0727133
0.0726957
0.0725657
0.0725706
0.0724276
0.0745864
0.0745897
0.0745823
0.0745788
0.0745604
0.0745491
0.0745214
0.0745005
0.0744653
0.0744332
0.0743905
0.0743484
0.0742966
0.0742456
0.0741841
0.0741234
0.0740543
0.0739799
0.0739118
0.0738094
0.0737655
0.0736179
0.0736062
0.0734301
0.0757865
0.0757897
0.0757824
0.0757788
0.0757602
0.0757486
0.0757206
0.0756991
0.0756632
0.0756303
0.0755865
0.0755431
0.0754896
0.0754365
0.0753726
0.0753087
0.0752357
0.0751573
0.0750787
0.0749782
0.0749046
0.0747601
0.0747213
0.0745075
0.0770062
0.0770094
0.0770023
0.076999
0.0769807
0.0769695
0.0769417
0.0769207
0.0768852
0.0768527
0.0768094
0.0767664
0.0767135
0.0766607
0.0765972
0.0765338
0.076461
0.0763829
0.0763034
0.0762046
0.0761252
0.0759887
0.0759324
0.0757069
0.0782367
0.0782402
0.0782334
0.0782307
0.0782128
0.0782026
0.0781756
0.0781558
0.0781213
0.0780903
0.0780484
0.0780072
0.077956
0.0779054
0.0778441
0.0777832
0.0777129
0.0776378
0.0775639
0.0774656
0.0773984
0.0772604
0.0772205
0.0770223
0.0794702
0.079474
0.0794675
0.0794655
0.0794485
0.0794394
0.0794135
0.0793953
0.0793624
0.0793334
0.0792936
0.0792549
0.0792063
0.0791586
0.0791005
0.0790433
0.0789768
0.0789065
0.0788367
0.0787446
0.078683
0.0785525
0.0785156
0.078332
0.0806994
0.0807035
0.0806976
0.0806964
0.0806802
0.0806725
0.0806479
0.0806316
0.0806005
0.0805739
0.0805364
0.0805007
0.0804549
0.080411
0.0803563
0.0803034
0.080241
0.080176
0.0801111
0.0800253
0.0799683
0.0798477
0.0798131
0.0796433
0.0819184
0.0819232
0.0819173
0.0819173
0.0819017
0.0818957
0.0818723
0.0818582
0.0818288
0.0818051
0.0817698
0.0817376
0.0816945
0.0816547
0.0816035
0.0815552
0.0814974
0.081438
0.0813771
0.0812985
0.0812465
0.0811351
0.081103
0.0809469
0.0831223
0.0831276
0.0831214
0.0831231
0.0831077
0.0831039
0.0830811
0.0830701
0.0830416
0.0830218
0.0829875
0.0829603
0.0829186
0.0828846
0.0828354
0.0827931
0.0827387
0.0826853
0.0826292
0.0825575
0.0825091
0.082408
0.082378
0.0822357
0.0843068
0.0843122
0.0843064
0.0843092
0.0842942
0.0842926
0.0842704
0.0842624
0.0842346
0.084219
0.0841855
0.0841636
0.0841227
0.0840952
0.084047
0.0840123
0.0839597
0.0839129
0.0838617
0.083796
0.083752
0.0836607
0.0836329
0.083504
0.0854682
0.0854735
0.0854687
0.0854715
0.0854586
0.0854568
0.0854379
0.0854298
0.0854063
0.0853908
0.0853624
0.0853412
0.0853057
0.0852801
0.085237
0.0852059
0.0851578
0.0851172
0.0850691
0.0850103
0.0849707
0.0848892
0.0848631
0.0847473
0.0866039
0.0866091
0.0866049
0.0866081
0.0865966
0.0865956
0.0865787
0.0865717
0.0865511
0.0865368
0.0865124
0.0864925
0.086462
0.0864379
0.0864007
0.0863718
0.0863294
0.0862933
0.086248
0.086199
0.0861622
0.0860895
0.0860654
0.0859622
0.0877111
0.0877166
0.0877129
0.0877165
0.087706
0.0877061
0.0876908
0.0876853
0.087667
0.0876546
0.0876332
0.0876154
0.0875888
0.0875672
0.0875344
0.0875089
0.087471
0.0874394
0.0873987
0.0873578
0.0873219
0.0872591
0.0872368
0.0871459
0.0887883
0.0887939
0.0887906
0.0887948
0.0887852
0.0887864
0.0887725
0.0887686
0.0887523
0.0887418
0.0887231
0.0887077
0.0886844
0.0886656
0.0886368
0.0886146
0.0885813
0.0885542
0.0885175
0.088483
0.0884488
0.0883957
0.0883757
0.0882963
0.0898343
0.0898397
0.0898367
0.0898416
0.0898327
0.089835
0.0898222
0.08982
0.0898054
0.0897969
0.0897807
0.0897676
0.0897474
0.0897313
0.0897062
0.0896874
0.089658
0.089635
0.0896029
0.0895737
0.0895423
0.0894979
0.0894801
0.0894115
0.0908474
0.0908528
0.0908503
0.0908554
0.0908476
0.0908505
0.0908393
0.0908382
0.0908256
0.0908188
0.0908048
0.090794
0.0907766
0.0907633
0.0907416
0.0907259
0.0907004
0.0906814
0.0906529
0.090629
0.090601
0.0905651
0.0905479
0.0904904
0.0918271
0.0918326
0.09183
0.0918363
0.0918281
0.0918332
0.0918219
0.0918231
0.0918114
0.0918068
0.0917948
0.0917861
0.0917714
0.0917606
0.091742
0.0917293
0.0917074
0.0916919
0.0916678
0.0916482
0.0916235
0.0915956
0.0915792
0.0915315
0.092773
0.0927781
0.0927767
0.0927816
0.0927766
0.0927796
0.0927722
0.0927722
0.0927638
0.0927597
0.0927502
0.0927433
0.0927311
0.0927227
0.0927071
0.0926973
0.0926787
0.0926669
0.0926458
0.0926307
0.0926098
0.0925879
0.0925734
0.0925344
0.0936844
0.0936901
0.0936872
0.0936957
0.0936867
0.0936958
0.0936841
0.0936898
0.0936793
0.0936789
0.0936701
0.0936656
0.0936555
0.0936494
0.0936365
0.0936293
0.0936139
0.093605
0.0935879
0.0935766
0.093559
0.0935423
0.0935296
0.0934991
0.0945619
0.0945664
0.0945667
0.0945699
0.0945693
0.09457
0.0945682
0.0945672
0.0945639
0.0945611
0.0945561
0.0945523
0.0945447
0.0945405
0.0945302
0.0945255
0.0945129
0.0945074
0.0944929
0.0944853
0.0944711
0.0944593
0.0944477
0.0944255
0.0954047
0.0954106
0.0954071
0.0954179
0.0954074
0.0954209
0.0954078
0.0954184
0.095408
0.0954121
0.0954053
0.0954048
0.0953984
0.0953965
0.0953884
0.095386
0.095376
0.0953729
0.0953617
0.0953575
0.0953458
0.0953382
0.0953295
0.0953139
0.0962143
0.0962179
0.0962203
0.0962211
0.0962255
0.0962225
0.0962273
0.0962237
0.0962261
0.0962233
0.0962228
0.0962213
0.0962178
0.0962172
0.0962114
0.0962111
0.0962035
0.0962033
0.0961943
0.0961931
0.0961844
0.0961806
0.096174
0.0961647
0.0969896
0.0969956
0.0969916
0.0970041
0.0969927
0.0970094
0.0969953
0.09701
0.0969995
0.0970076
0.0970022
0.0970054
0.097002
0.0970036
0.0969996
0.0970013
0.0969959
0.0969978
0.0969916
0.0969935
0.0969869
0.096987
0.0969828
0.0969785
0.097733
0.0977358
0.0977397
0.0977389
0.0977465
0.0977416
0.0977508
0.0977455
0.0977526
0.0977497
0.0977531
0.0977534
0.0977533
0.0977557
0.0977538
0.0977571
0.0977539
0.0977581
0.0977539
0.0977582
0.0977542
0.0977577
0.0977552
0.097756
0.0984429
0.0984487
0.0984453
0.0984571
0.0984477
0.0984637
0.098452
0.0984673
0.0984587
0.0984689
0.0984653
0.0984713
0.0984704
0.098475
0.0984744
0.0984794
0.0984778
0.0984839
0.0984817
0.0984888
0.0984865
0.0984931
0.0984924
0.0984975
0.0991227
0.099125
0.0991292
0.0991289
0.0991362
0.0991332
0.0991424
0.0991389
0.0991474
0.0991461
0.0991515
0.0991539
0.0991564
0.0991613
0.0991624
0.0991688
0.0991689
0.0991768
0.0991764
0.0991853
0.0991848
0.0991944
0.0991946
0.0992042
0.0997702
0.0997754
0.0997735
0.0997828
0.0997779
0.0997897
0.0997838
0.0997958
0.0997919
0.0998014
0.0998008
0.0998081
0.0998096
0.0998165
0.0998185
0.0998263
0.0998277
0.0998372
0.0998381
0.0998495
0.0998501
0.0998622
0.0998637
0.0998768
0.10039
0.100392
0.100396
0.100397
0.100402
0.100403
0.100409
0.10041
0.100417
0.100419
0.100424
0.100429
0.100433
0.100441
0.100444
0.100453
0.100455
0.100466
0.100469
0.100481
0.100484
0.100498
0.1005
0.100517
0.100978
0.100983
0.100983
0.100989
0.100988
0.100996
0.100996
0.101004
0.101005
0.101013
0.101016
0.101023
0.101027
0.101035
0.10104
0.101049
0.101053
0.101065
0.101069
0.101083
0.101086
0.101103
0.101106
0.101125
0.101541
0.101543
0.101547
0.101548
0.101553
0.101555
0.101561
0.101564
0.10157
0.101575
0.10158
0.101587
0.101592
0.101601
0.101606
0.101617
0.101622
0.101635
0.101639
0.101655
0.101659
0.101678
0.101681
0.101703
0.102075
0.102079
0.102079
0.102085
0.102086
0.102092
0.102094
0.102101
0.102105
0.102112
0.102117
0.102125
0.10213
0.10214
0.102146
0.102157
0.102163
0.102177
0.102182
0.102199
0.102204
0.102224
0.102228
0.102251
0.102585
0.102587
0.10259
0.102592
0.102597
0.102599
0.102605
0.10261
0.102615
0.102622
0.102627
0.102636
0.102642
0.102652
0.102658
0.102671
0.102677
0.102692
0.102698
0.102716
0.102721
0.102743
0.102747
0.102773
0.103069
0.103071
0.103073
0.103078
0.103079
0.103086
0.103088
0.103095
0.103099
0.103107
0.103112
0.103121
0.103128
0.103139
0.103146
0.103158
0.103165
0.103181
0.103187
0.103206
0.103213
0.103235
0.10324
0.103267
0.103529
0.103531
0.103534
0.103536
0.103541
0.103544
0.103549
0.103554
0.103561
0.103567
0.103574
0.103583
0.10359
0.103601
0.103608
0.103622
0.103629
0.103645
0.103652
0.103672
0.103679
0.103702
0.103707
0.103736
0.103966
0.103968
0.10397
0.103974
0.103977
0.103982
0.103986
0.103993
0.103997
0.104006
0.104011
0.104021
0.104028
0.10404
0.104048
0.104062
0.104069
0.104086
0.104094
0.104114
0.104121
0.104146
0.104151
0.104181
0.104382
0.104384
0.104385
0.10439
0.104391
0.104398
0.104401
0.104408
0.104413
0.104421
0.104428
0.104437
0.104445
0.104457
0.104465
0.104479
0.104487
0.104505
0.104512
0.104534
0.104541
0.104566
0.104572
0.104603
0.104776
0.104778
0.104781
0.104782
0.104788
0.104789
0.104797
0.104801
0.104808
0.104816
0.104823
0.104832
0.10484
0.104852
0.104861
0.104875
0.104883
0.104901
0.10491
0.104931
0.104939
0.104964
0.104971
0.105002
0.10515
0.105153
0.105153
0.105159
0.105159
0.105168
0.105168
0.105178
0.105181
0.105191
0.105197
0.105208
0.105215
0.105227
0.105236
0.105251
0.105259
0.105277
0.105286
0.105308
0.105315
0.105342
0.105348
0.105381
0.105506
0.105507
0.10551
0.105511
0.105517
0.105518
0.105527
0.10553
0.105539
0.105545
0.105553
0.105562
0.105571
0.105583
0.105592
0.105607
0.105615
0.105634
0.105642
0.105664
0.105672
0.105699
0.105706
0.105739
0.105843
0.105845
0.105845
0.105851
0.105851
0.105859
0.10586
0.10587
0.105873
0.105884
0.105889
0.1059
0.105907
0.10592
0.105929
0.105944
0.105953