/*--------------------------------*- C++ -*----------------------------------*\
  =========                 |
  \\      /  F ield         | OpenFOAM: The Open Source CFD Toolbox
   \\    /   O peration     | Website:  https://openfoam.org
    \\  /    A nd           | Version:  10
     \\/     M anipulation  |
\*---------------------------------------------------------------------------*/
FoamFile
{
    format      ascii;
    class       volScalarField;
    location    "0.31";
    object      T;
}
// * * * * * * * * * * * * * * * * * * * * * * * * * * * * * * * * * * * * * //

dimensions      [0 0 0 1 0 0 0];

internalField   nonuniform List<scalar> 
4176
(
180.347
180.352
180.372
180.383
180.426
180.445
180.506
180.538
180.613
180.661
180.749
180.809
180.913
180.985
181.1
181.192
181.307
181.43
181.534
181.703
181.777
182.011
182.026
182.325
180.356
180.361
180.382
180.393
180.436
180.457
180.518
180.552
180.628
180.678
180.767
180.829
180.935
181.01
181.127
181.221
181.34
181.465
181.571
181.744
181.819
182.062
182.08
182.41
180.384
180.389
180.409
180.42
180.462
180.483
180.542
180.576
180.649
180.698
180.785
180.846
180.95
181.022
181.138
181.229
181.347
181.468
181.572
181.74
181.811
182.049
182.067
182.408
180.436
180.44
180.461
180.472
180.514
180.534
180.594
180.627
180.7
180.749
180.837
180.897
181.002
181.073
181.19
181.28
181.399
181.522
181.622
181.795
181.863
182.097
182.113
182.439
180.511
180.515
180.536
180.546
180.588
180.608
180.667
180.7
180.772
180.82
180.907
180.966
181.07
181.14
181.257
181.344
181.465
181.586
181.683
181.857
181.925
182.156
182.172
182.487
180.61
180.615
180.635
180.645
180.686
180.706
180.765
180.798
180.868
180.917
181.002
181.062
181.164
181.234
181.35
181.436
181.558
181.673
181.776
181.945
182.015
182.244
182.263
182.578
180.733
180.738
180.757
180.768
180.808
180.828
180.886
180.918
180.988
181.037
181.12
181.18
181.281
181.35
181.465
181.548
181.672
181.782
181.889
182.052
182.123
182.349
182.37
182.683
180.88
180.884
180.904
180.914
180.955
180.974
181.031
181.063
181.132
181.18
181.263
181.321
181.421
181.489
181.603
181.685
181.808
181.914
182.024
182.181
182.255
182.478
182.5
182.809
181.051
181.055
181.074
181.084
181.124
181.144
181.2
181.231
181.3
181.347
181.428
181.486
181.585
181.652
181.764
181.845
181.967
182.07
182.181
182.333
182.408
182.627
182.65
182.954
181.245
181.249
181.269
181.278
181.318
181.337
181.392
181.423
181.491
181.537
181.618
181.674
181.771
181.837
181.949
182.027
182.149
182.248
182.36
182.507
182.583
182.799
182.823
183.122
181.463
181.468
181.487
181.496
181.535
181.553
181.608
181.639
181.705
181.751
181.83
181.886
181.981
182.046
182.156
182.233
182.353
182.449
182.562
182.703
182.784
182.989
183.016
183.31
181.705
181.709
181.728
181.737
181.776
181.794
181.848
181.878
181.943
181.988
182.066
182.121
182.215
182.278
182.386
182.461
182.58
182.673
182.786
182.923
183.003
183.204
183.231
183.52
181.971
181.975
181.994
182.002
182.041
182.058
182.111
182.14
182.205
182.248
182.325
182.379
182.471
182.533
182.64
182.712
182.83
182.92
183.033
183.164
183.245
183.441
183.468
183.751
182.26
182.264
182.283
182.291
182.329
182.345
182.398
182.426
182.49
182.532
182.608
182.66
182.751
182.811
182.916
182.986
183.102
183.189
183.302
183.428
183.51
183.699
183.727
184.004
182.573
182.577
182.596
182.604
182.641
182.657
182.709
182.736
182.798
182.839
182.913
182.964
183.053
183.112
183.215
183.283
183.397
183.481
183.593
183.714
183.796
183.98
184.007
184.278
182.91
182.914
182.932
182.94
182.976
182.991
183.043
183.069
183.13
183.17
183.242
183.292
183.379
183.436
183.537
183.603
183.715
183.796
183.906
184.022
184.105
184.282
184.309
184.574
183.271
183.275
183.292
183.299
183.336
183.35
183.4
183.425
183.485
183.524
183.594
183.642
183.728
183.783
183.881
183.945
184.055
184.133
184.242
184.353
184.436
184.606
184.634
184.892
183.655
183.659
183.676
183.683
183.718
183.732
183.781
183.805
183.864
183.901
183.97
184.016
184.099
184.152
184.249
184.31
184.418
184.492
184.6
184.705
184.788
184.952
184.98
185.231
184.063
184.067
184.084
184.09
184.125
184.137
184.186
184.208
184.266
184.301
184.369
184.413
184.494
184.545
184.639
184.698
184.803
184.874
184.98
185.08
185.163
185.32
185.348
185.592
184.495
184.498
184.515
184.521
184.555
184.566
184.614
184.635
184.691
184.725
184.79
184.833
184.911
184.96
185.052
185.108
185.21
185.279
185.382
185.477
185.559
185.71
185.738
185.974
184.95
184.954
184.97
184.975
185.009
185.019
185.065
185.085
185.14
185.172
185.235
185.276
185.352
185.398
185.488
185.54
185.64
185.705
185.806
185.897
185.978
186.122
186.15
186.378
185.429
185.433
185.449
185.453
185.486
185.495
185.54
185.559
185.612
185.642
185.704
185.742
185.816
185.86
185.946
185.996
186.093
186.154
186.252
186.338
186.417
186.556
186.583
186.803
185.932
185.935
185.951
185.955
185.987
185.995
186.039
186.056
186.107
186.136
186.195
186.231
186.302
186.344
186.427
186.474
186.568
186.626
186.721
186.802
186.88
187.011
187.039
187.25
186.458
186.461
186.477
186.48
186.511
186.518
186.56
186.576
186.625
186.652
186.709
186.743
186.812
186.85
186.931
186.975
187.066
187.12
187.212
187.288
187.364
187.488
187.516
187.719
187.008
187.011
187.026
187.028
187.058
187.064
187.105
187.119
187.167
187.192
187.247
187.278
187.344
187.38
187.458
187.498
187.586
187.636
187.725
187.797
187.871
187.988
188.014
188.209
187.581
187.584
187.598
187.6
187.629
187.634
187.674
187.686
187.732
187.754
187.807
187.836
187.899
187.932
188.007
188.044
188.128
188.175
188.26
188.327
188.399
188.509
188.534
188.721
188.177
188.18
188.194
188.195
188.223
188.227
188.265
188.275
188.319
188.34
188.39
188.416
188.477
188.507
188.579
188.612
188.694
188.736
188.818
188.88
188.95
189.052
189.075
189.256
188.796
188.798
188.812
188.812
188.84
188.842
188.879
188.888
188.93
188.948
188.996
189.02
189.078
189.105
189.174
189.203
189.281
189.32
189.398
189.456
189.522
189.618
189.639
189.812
189.438
189.44
189.453
189.453
189.479
189.481
189.516
189.523
189.563
189.58
189.625
189.646
189.701
189.725
189.791
189.817
189.891
189.926
190
190.053
190.116
190.205
190.224
190.391
190.102
190.104
190.117
190.116
190.142
190.142
190.176
190.181
190.219
190.233
190.276
190.295
190.347
190.367
190.43
190.452
190.523
190.554
190.625
190.672
190.732
190.814
190.833
190.989
190.789
190.791
190.804
190.802
190.826
190.825
190.858
190.861
190.898
190.91
190.95
190.966
191.015
191.033
191.092
191.111
191.178
191.204
191.272
191.314
191.371
191.446
191.464
191.609
191.498
191.5
191.512
191.51
191.533
191.531
191.562
191.564
191.599
191.608
191.646
191.659
191.706
191.72
191.776
191.791
191.855
191.877
191.94
191.978
192.031
192.1
192.115
192.253
192.23
192.231
192.243
192.24
192.262
192.259
192.289
192.289
192.322
192.329
192.365
192.375
192.419
192.43
192.483
192.494
192.554
192.571
192.631
192.664
192.713
192.775
192.79
192.918
192.983
192.984
192.996
192.991
193.013
193.009
193.037
193.035
193.066
193.071
193.105
193.113
193.154
193.161
193.211
193.219
193.275
193.288
193.345
193.372
193.417
193.474
193.486
193.604
193.758
193.759
193.77
193.765
193.786
193.78
193.807
193.804
193.833
193.836
193.867
193.872
193.91
193.915
193.962
193.966
194.018
194.027
194.08
194.102
194.144
194.193
194.203
194.313
194.554
194.555
194.566
194.56
194.58
194.573
194.599
194.594
194.621
194.622
194.651
194.653
194.689
194.69
194.734
194.734
194.784
194.788
194.837
194.854
194.892
194.936
194.943
195.044
195.371
195.372
195.382
195.376
195.396
195.387
195.412
195.405
195.431
195.43
195.456
195.456
195.489
195.487
195.528
195.525
195.57
195.571
195.616
195.629
195.663
195.7
195.704
195.796
196.21
196.211
196.22
196.214
196.232
196.223
196.246
196.238
196.262
196.258
196.283
196.28
196.31
196.305
196.343
196.336
196.379
196.375
196.417
196.424
196.454
196.487
196.487
196.57
197.069
197.07
197.079
197.072
197.09
197.079
197.101
197.092
197.114
197.108
197.13
197.125
197.153
197.145
197.179
197.169
197.208
197.201
197.239
197.241
197.268
197.294
197.292
197.365
197.949
197.95
197.959
197.951
197.968
197.956
197.977
197.966
197.986
197.979
197.999
197.991
198.016
198.006
198.037
198.023
198.059
198.048
198.081
198.079
198.102
198.123
198.118
198.183
198.85
198.85
198.859
198.85
198.867
198.854
198.874
198.861
198.88
198.87
198.888
198.878
198.901
198.887
198.916
198.898
198.931
198.915
198.946
198.938
198.958
198.972
198.965
199.022
199.77
199.771
199.779
199.77
199.785
199.772
199.79
199.776
199.793
199.782
199.798
199.786
199.806
199.789
199.815
199.794
199.824
199.804
199.831
199.818
199.835
199.843
199.832
199.882
200.711
200.711
200.719
200.71
200.724
200.71
200.727
200.711
200.727
200.714
200.728
200.713
200.731
200.712
200.735
200.71
200.737
200.713
200.737
200.719
200.733
200.734
200.721
200.762
201.672
201.672
201.679
201.669
201.683
201.668
201.684
201.667
201.68
201.666
201.678
201.661
201.676
201.654
201.675
201.646
201.671
201.642
201.663
201.64
201.652
201.646
201.631
201.664
202.652
202.652
202.659
202.648
202.662
202.645
202.66
202.641
202.654
202.637
202.647
202.628
202.641
202.616
202.634
202.602
202.624
202.591
202.61
202.581
202.591
202.578
202.562
202.586
203.651
203.651
203.658
203.647
203.659
203.642
203.656
203.636
203.646
203.628
203.636
203.615
203.625
203.597
203.613
203.578
203.597
203.559
203.576
203.541
203.55
203.531
203.512
203.528
204.67
204.67
204.677
204.664
204.676
204.658
204.67
204.649
204.658
204.638
204.644
204.62
204.629
204.598
204.611
204.573
204.589
204.547
204.562
204.522
204.529
204.503
204.483
204.49
205.707
205.707
205.713
205.701
205.712
205.692
205.704
205.681
205.689
205.667
205.671
205.645
205.651
205.618
205.629
205.587
205.6
205.553
205.568
205.521
205.526
205.494
205.474
205.471
206.763
206.762
206.768
206.755
206.765
206.745
206.755
206.731
206.737
206.714
206.716
206.688
206.692
206.656
206.664
206.619
206.63
206.579
206.591
206.54
206.543
206.501
206.485
206.472
207.836
207.835
207.841
207.827
207.837
207.815
207.825
207.799
207.804
207.779
207.779
207.749
207.751
207.712
207.718
207.67
207.679
207.623
207.633
207.577
207.578
207.53
207.513
207.492
208.926
208.926
208.931
208.917
208.926
208.903
208.912
208.885
208.888
208.861
208.86
208.827
208.827
208.785
208.79
208.738
208.745
208.686
208.694
208.632
208.633
208.576
208.559
208.53
210.033
210.033
210.038
210.023
210.031
210.008
210.015
209.987
209.989
209.961
209.957
209.923
209.921
209.877
209.879
209.824
209.83
209.766
209.772
209.701
209.708
209.641
209.624
209.587
211.157
211.156
211.161
211.145
211.153
211.129
211.135
211.106
211.107
211.077
211.072
211.035
211.032
210.985
210.986
210.926
210.932
210.863
210.868
210.791
210.797
210.724
210.706
210.661
212.295
212.294
212.299
212.283
212.29
212.266
212.271
212.241
212.24
212.209
212.202
212.163
212.159
212.109
212.108
212.044
212.05
211.972
211.985
211.898
211.902
211.824
211.805
211.754
213.449
213.448
213.452
213.436
213.442
213.417
213.421
213.39
213.389
213.355
213.348
213.307
213.301
213.248
213.248
213.178
213.186
213.103
213.112
213.022
213.026
212.941
212.922
212.863
214.616
214.615
214.619
214.603
214.609
214.583
214.586
214.554
214.551
214.517
214.509
214.465
214.46
214.402
214.403
214.329
214.334
214.249
214.256
214.163
214.164
214.076
214.055
213.99
215.797
215.796
215.8
215.783
215.789
215.762
215.765
215.732
215.728
215.692
215.684
215.637
215.633
215.569
215.573
215.493
215.499
215.409
215.416
215.319
215.318
215.225
215.204
215.133
216.99
216.989
216.993
216.976
216.981
216.954
216.956
216.922
216.919
216.88
216.873
216.822
216.818
216.753
216.754
216.673
216.678
216.586
216.589
216.49
216.488
216.391
216.368
216.291
218.195
218.195
218.198
218.181
218.185
218.159
218.16
218.125
218.122
218.081
218.073
218.022
218.016
217.95
217.95
217.867
217.869
217.776
217.777
217.676
217.671
217.571
217.548
217.465
219.412
219.411
219.414
219.397
219.401
219.374
219.374
219.34
219.335
219.294
219.286
219.234
219.227
219.159
219.158
219.074
219.075
218.978
218.979
218.875
218.87
218.766
218.741
218.653
220.638
220.638
220.641
220.624
220.628
220.6
220.6
220.566
220.559
220.519
220.509
220.457
220.448
220.381
220.377
220.293
220.292
220.195
220.193
220.088
220.08
219.973
219.949
219.856
221.875
221.875
221.878
221.861
221.864
221.837
221.836
221.803
221.794
221.755
221.743
221.691
221.681
221.613
221.607
221.524
221.521
221.422
221.421
221.312
221.305
221.194
221.169
221.071
223.122
223.121
223.124
223.107
223.111
223.083
223.082
223.049
223.039
223.001
222.986
222.936
222.923
222.856
222.849
222.765
222.761
222.662
222.658
222.548
222.539
222.426
222.401
222.299
224.377
224.376
224.38
224.362
224.366
224.338
224.337
224.304
224.293
224.256
224.239
224.19
224.177
224.108
224.1
224.017
224.011
223.911
223.907
223.794
223.785
223.67
223.644
223.539
225.64
225.64
225.644
225.626
225.63
225.602
225.6
225.567
225.556
225.52
225.501
225.453
225.437
225.371
225.361
225.277
225.27
225.17
225.164
225.05
225.04
224.923
224.897
224.789
226.913
226.912
226.916
226.898
226.902
226.874
226.873
226.839
226.827
226.792
226.772
226.725
226.707
226.642
226.63
226.545
226.537
226.438
226.431
226.316
226.305
226.186
226.16
226.048
228.193
228.193
228.196
228.179
228.182
228.154
228.152
228.119
228.107
228.071
228.05
228.004
227.985
227.919
227.908
227.82
227.812
227.713
227.704
227.589
227.577
227.457
227.431
227.316
229.481
229.481
229.484
229.467
229.47
229.442
229.44
229.406
229.393
229.358
229.336
229.29
229.269
229.204
229.192
229.103
229.094
228.994
228.985
228.87
228.857
228.735
228.709
228.592
230.777
230.777
230.78
230.762
230.765
230.737
230.734
230.7
230.686
230.651
230.627
230.582
230.559
230.495
230.482
230.392
230.383
230.281
230.271
230.157
230.143
230.02
229.994
229.875
232.079
232.079
232.082
232.064
232.067
232.038
232.034
232
231.985
231.95
231.924
231.88
231.855
231.791
231.774
231.688
231.678
231.573
231.562
231.449
231.434
231.311
231.284
231.164
233.386
233.386
233.389
233.371
233.373
233.344
233.34
233.304
233.289
233.253
233.226
233.182
233.154
233.092
233.072
232.988
232.977
232.871
232.859
232.747
232.73
232.607
232.58
232.459
234.697
234.697
234.7
234.681
234.683
234.653
234.648
234.612
234.596
234.559
234.531
234.487
234.458
234.397
234.374
234.291
234.279
234.172
234.162
234.047
234.031
233.909
233.881
233.76
236.008
236.008
236.011
235.992
235.994
235.963
235.959
235.922
235.906
235.868
235.839
235.796
235.764
235.705
235.679
235.599
235.58
235.483
235.468
235.351
235.336
235.215
235.188
235.066
237.317
237.316
237.32
237.3
237.303
237.272
237.268
237.231
237.215
237.178
237.149
237.106
237.073
237.016
236.987
236.91
236.889
236.792
236.78
236.66
236.647
236.526
236.499
236.377
238.619
238.619
238.623
238.604
238.607
238.577
238.574
238.538
238.523
238.487
238.458
238.417
238.384
238.328
238.299
238.224
238.202
238.107
238.093
237.975
237.962
237.841
237.816
237.694
239.914
239.914
239.918
239.9
239.905
239.876
239.874
239.841
239.827
239.793
239.766
239.727
239.695
239.643
239.612
239.542
239.517
239.427
239.407
239.299
239.283
239.162
239.138
239.017
241.2
241.2
241.206
241.189
241.195
241.168
241.169
241.138
241.127
241.096
241.072
241.036
241.006
240.957
240.929
240.862
240.837
240.751
240.732
240.625
240.61
240.49
240.467
240.346
242.481
242.482
242.488
242.472
242.481
242.456
242.459
242.43
242.422
242.395
242.374
242.342
242.316
242.271
242.246
242.184
242.161
242.079
242.062
241.956
241.944
241.824
241.802
241.68
243.762
243.764
243.771
243.756
243.766
243.743
243.748
243.722
243.717
243.693
243.675
243.647
243.625
243.584
243.563
243.505
243.487
243.409
243.395
243.294
243.284
243.165
243.145
243.023
245.053
245.055
245.062
245.049
245.058
245.037
245.043
245.02
245.015
244.994
244.978
244.954
244.934
244.897
244.881
244.823
244.816
244.734
244.732
244.63
244.629
244.512
244.496
244.376
246.364
246.367
246.373
246.36
246.369
246.349
246.354
246.331
246.326
246.306
246.29
246.267
246.247
246.214
246.199
246.142
246.141
246.061
246.064
245.963
245.969
245.856
245.847
245.736
247.708
247.71
247.717
247.702
247.711
247.687
247.692
247.666
247.66
247.637
247.62
247.595
247.574
247.541
247.522
247.47
247.465
247.388
247.391
247.294
247.305
247.192
247.189
247.084
249.094
249.096
249.102
249.085
249.092
249.066
249.067
249.038
249.028
249
248.979
248.95
248.923
248.887
248.862
248.81
248.796
248.72
248.724
248.622
248.634
248.519
248.522
248.415
250.529
250.53
250.535
250.516
250.521
250.491
250.489
250.454
250.439
250.406
250.377
250.341
250.307
250.264
250.229
250.173
250.148
250.069
250.064
249.956
249.968
249.844
249.85
249.736
252.014
252.015
252.018
251.999
252
251.967
251.96
251.922
251.899
251.861
251.823
251.781
251.736
251.684
251.638
251.571
251.535
251.445
251.429
251.308
251.314
251.177
251.183
251.054
253.546
253.548
253.549
253.528
253.528
253.492
253.481
253.438
253.411
253.367
253.322
253.272
253.218
253.157
253.098
253.022
252.969
252.865
252.836
252.697
252.691
252.533
252.533
252.382
255.119
255.12
255.122
255.099
255.098
255.059
255.047
255
254.97
254.92
254.872
254.815
254.755
254.685
254.617
254.532
254.461
254.353
254.295
254.149
254.117
253.937
253.923
253.736
256.721
256.722
256.724
256.7
256.699
256.659
256.646
256.598
256.566
256.514
256.464
256.403
256.339
256.265
256.19
256.101
256.017
255.907
255.823
255.68
255.613
255.421
255.382
255.149
258.342
258.342
258.345
258.321
258.32
258.28
258.267
258.219
258.187
258.135
258.084
258.023
257.957
257.883
257.806
257.715
257.628
257.516
257.424
257.283
257.191
257.005
256.939
256.67
259.968
259.969
259.972
259.949
259.948
259.909
259.897
259.85
259.819
259.768
259.718
259.659
259.595
259.523
259.448
259.359
259.273
259.165
259.071
258.936
258.844
258.662
258.593
258.327
261.589
261.591
261.594
261.571
261.572
261.534
261.524
261.478
261.449
261.401
261.354
261.298
261.236
261.168
261.096
261.013
260.929
260.828
260.741
260.611
260.528
260.353
260.295
260.052
263.196
263.197
263.201
263.18
263.181
263.145
263.137
263.093
263.067
263.022
262.977
262.926
262.868
262.805
262.737
262.659
262.581
262.488
262.405
262.285
262.209
262.046
261.993
261.771
264.779
264.781
264.786
264.765
264.768
264.734
264.727
264.687
264.662
264.622
264.579
264.533
264.478
264.421
264.357
264.287
264.214
264.129
264.053
263.941
263.873
263.724
263.674
263.471
266.332
266.335
266.34
266.321
266.325
266.293
266.287
266.25
266.228
266.192
266.152
266.111
266.06
266.009
265.949
265.887
265.818
265.742
265.673
265.568
265.508
265.372
265.326
265.141
267.851
267.854
267.859
267.842
267.846
267.817
267.813
267.78
267.759
267.728
267.689
267.655
267.605
267.563
267.505
267.452
267.387
267.32
267.255
267.163
267.106
266.984
266.941
266.775
269.33
269.334
269.339
269.323
269.329
269.301
269.299
269.268
269.251
269.223
269.188
269.159
269.112
269.076
269.022
268.976
268.915
268.857
268.795
268.717
268.662
268.554
268.515
268.366
270.767
270.772
270.778
270.762
270.77
270.743
270.744
270.714
270.701
270.674
270.644
270.617
270.577
270.544
270.496
270.456
270.4
270.35
270.294
270.225
270.171
270.079
270.042
269.91
272.161
272.164
272.172
272.156
272.166
272.14
272.143
272.115
272.105
272.081
272.055
272.031
271.995
271.966
271.924
271.888
271.839
271.796
271.741
271.685
271.637
271.555
271.52
271.404
273.508
273.511
273.519
273.504
273.515
273.49
273.496
273.47
273.462
273.441
273.419
273.397
273.366
273.341
273.303
273.273
273.228
273.192
273.142
273.095
273.05
272.982
272.948
272.848
274.808
274.811
274.82
274.805
274.818
274.793
274.802
274.776
274.772
274.752
274.734
274.716
274.688
274.667
274.634
274.608
274.568
274.538
274.493
274.455
274.411
274.357
274.322
274.238
276.06
276.063
276.072
276.059
276.07
276.05
276.057
276.036
276.032
276.016
276
275.985
275.961
275.943
275.914
275.893
275.858
275.833
275.794
275.763
275.72
275.677
275.647
275.575
277.264
277.267
277.278
277.261
277.28
277.253
277.269
277.243
277.246
277.23
277.217
277.205
277.184
277.17
277.145
277.128
277.097
277.078
277.041
277.018
276.98
276.945
276.918
276.858
278.42
278.424
278.431
278.424
278.429
278.421
278.421
278.411
278.406
278.398
278.385
278.376
278.358
278.347
278.325
278.312
278.285
278.27
278.239
278.221
278.186
278.162
278.135
278.087
279.529
279.531
279.546
279.523
279.554
279.516
279.548
279.514
279.529
279.511
279.506
279.497
279.483
279.475
279.456
279.447
279.423
279.414
279.385
279.373
279.343
279.326
279.3
279.263
280.591
280.596
280.597
280.602
280.594
280.605
280.59
280.599
280.585
280.588
280.574
280.573
280.559
280.555
280.539
280.533
280.513
280.506
280.482
280.476
280.448
280.438
280.414
280.387
281.607
281.607
281.626
281.597
281.639
281.591
281.638
281.595
281.623
281.6
281.605
281.597
281.59
281.586
281.573
281.57
281.553
281.552
281.529
281.527
281.503
281.499
281.476
281.46
282.577
282.584
282.58
282.596
282.575
282.603
282.573
282.6
282.576
282.592
282.576
282.582
282.571
282.572
282.561
282.561
282.546
282.548
282.529
282.532
282.509
282.511
282.49
282.482
283.505
283.503
283.525
283.492
283.541
283.488
283.544
283.495
283.533
283.507
283.52
283.513
283.511
283.511
283.503
283.505
283.494
283.498
283.482
283.488
283.469
283.476
283.456
283.456
284.387
284.396
284.387
284.41
284.383
284.421
284.383
284.422
284.39
284.416
284.398
284.41
284.402
284.407
284.4
284.406
284.396
284.403
284.39
284.4
284.382
284.394
284.377
284.382
285.231
285.228
285.25
285.221
285.266
285.219
285.272
285.227
285.267
285.242
285.259
285.253
285.256
285.259
285.255
285.262
285.255
285.265
285.253
285.266
285.251
285.267
285.251
285.263
286.031
286.04
286.031
286.053
286.03
286.065
286.032
286.07
286.041
286.069
286.054
286.068
286.063
286.071
286.067
286.077
286.071
286.083
286.074
286.09
286.077
286.096
286.082
286.098
286.797
286.794
286.812
286.791
286.824
286.794
286.832
286.803
286.832
286.818
286.832
286.831
286.835
286.842
286.84
286.851
286.847
286.861
286.854
286.872
286.861
286.883
286.871
286.891
287.52
287.528
287.522
287.539
287.524
287.549
287.53
287.556
287.54
287.56
287.553
287.566
287.565
287.575
287.574
287.587
287.584
287.6
287.594
287.615
287.605
287.63
287.619
287.643
288.212
288.211
288.224
288.212
288.234
288.218
288.24
288.229
288.245
288.243
288.251
288.257
288.26
288.27
288.271
288.285
288.284
288.301
288.297
288.318
288.311
288.338
288.327
288.355
288.865
288.872
288.867
288.882
288.872
288.891
288.882
288.897
288.894
288.905
288.907
288.916
288.92
288.931
288.933
288.947
288.947
288.966
288.963
288.986
288.98
289.008
288.999
289.029
289.489
289.489
289.498
289.492
289.508
289.5
289.515
289.513
289.521
289.527
289.532
289.542
289.545
289.558
289.56
289.576
289.577
289.596
289.594
289.619
289.613
289.644
289.633
289.671
290.079
290.084
290.081
290.093
290.086
290.102
290.097
290.109
290.111
290.119
290.125
290.134
290.139
290.152
290.155
290.172
290.174
290.194
290.193
290.218
290.214
290.246
290.239
290.272
290.64
290.641
290.647
290.644
290.656
290.653
290.665
290.665
290.674
290.68
290.686
290.697
290.702
290.715
290.719
290.736
290.739
290.76
290.76
290.787
290.782
290.816
290.809
290.846
291.171
291.174
291.175
291.181
291.181
291.191
291.191
291.201
291.203
291.214
291.218
291.23
291.235
291.249
291.254
291.271
291.275
291.296
291.297
291.324
291.322
291.356
291.349
291.387
291.675
291.677
291.68
291.683
291.687
291.692
291.698
291.702
291.71
291.716
291.724
291.734
291.741
291.755
291.76
291.778
291.782
291.804
291.806
291.834
291.831
291.867
291.859
291.901
292.153
292.154
292.158
292.158
292.167
292.167
292.176
292.18
292.187
292.196
292.202
292.213
292.22
292.234
292.24
292.258
292.263
292.285
292.288
292.316
292.314
292.35
292.344
292.385
292.605
292.608
292.607
292.616
292.612
292.627
292.623
292.636
292.638
292.649
292.655
292.667
292.673
292.688
292.694
292.712
292.718
292.74
292.743
292.773
292.771
292.807
292.8
292.845
293.034
293.035
293.041
293.037
293.051
293.045
293.061
293.058
293.072
293.075
293.086
293.095
293.103
293.118
293.124
293.142
293.149
293.171
293.175
293.203
293.204
293.24
293.234
293.277
293.44
293.443
293.442
293.452
293.447
293.462
293.456
293.474
293.47
293.487
293.489
293.503
293.509
293.525
293.531
293.55
293.556
293.579
293.583
293.612
293.612
293.648
293.643
293.688
293.826
293.826
293.831
293.829
293.841
293.836
293.852
293.848
293.864
293.865
293.878
293.886
293.895
293.909
293.916
293.935
293.942
293.965
293.969
293.998
293.999
294.034
294.03
294.073
294.189
294.193
294.192
294.2
294.197
294.21
294.206
294.222
294.22
294.236
294.238
294.252
294.259
294.274
294.281
294.3
294.306
294.329
294.334
294.363
294.364
294.399
294.394
294.44
294.536
294.535
294.541
294.539
294.55
294.546
294.56
294.559
294.571
294.576
294.586
294.596
294.605
294.619
294.626
294.645
294.652
294.675
294.679
294.708
294.71
294.744
294.741
294.783
294.862
294.865
294.863
294.872
294.868
294.882
294.878
294.892
294.893
294.906
294.911
294.923
294.931
294.945
294.953
294.971
294.978
295.001
295.006
295.035
295.036
295.071
295.066
295.111
295.172
295.172
295.177
295.175
295.186
295.182
295.195
295.196
295.206
295.213
295.221
295.232
295.24
295.254
295.262
295.28
295.287
295.31
295.314
295.343
295.345
295.38
295.376
295.419
295.464
295.467
295.466
295.473
295.472
295.482
295.482
295.493
295.496
295.507
295.513
295.525
295.532
295.547
295.554
295.573
295.579
295.602
295.607
295.636
295.637
295.672
295.668
295.711
295.742
295.743
295.746
295.748
295.753
295.756
295.762
295.767
295.775
295.783
295.79
295.801
295.809
295.823
295.831
295.849
295.856
295.879
295.883
295.911
295.913
295.948
295.944
295.987
296.005
296.006
296.008
296.011
296.014
296.019
296.024
296.031
296.036
296.046
296.052
296.064
296.071
296.085
296.093
296.111
296.118
296.139
296.145
296.173
296.176
296.208
296.206
296.247
296.254
296.255
296.256
296.26
296.262
296.268
296.272
296.279
296.284
296.294
296.3
296.312
296.319
296.333
296.341
296.359
296.365
296.388
296.393
296.419
296.421
296.456
296.452
296.494
296.489
296.491
296.491
296.495
296.497
296.503
296.507
296.514
296.52
296.528
296.535
296.546
296.554
296.567
296.575
296.593
296.599
296.621
296.626
296.654
296.657
296.687
296.686
296.726
296.712
296.713
296.715
296.717
296.721
296.724
296.73
296.736
296.742
296.751
296.757
296.769
296.775
296.789
296.797
296.815
296.82
296.843
296.848
296.873
296.876
296.911
296.906
296.947
296.923
296.924
296.925
296.929
296.931
296.937
296.939
296.947
296.952
296.962
296.967
296.979
296.985
296.999
297.007
297.024
297.03
297.052
297.056
297.084
297.086
297.117
297.115
297.154
297.123
297.124
297.125
297.128
297.13
297.136
297.139
297.146
297.151
297.16
297.166
297.178
297.184
297.198
297.206
297.222
297.228
297.25
297.255
297.28
297.282
297.316
297.311
297.351
297.311
297.313
297.314
297.316
297.32
297.323
297.329
297.334
297.34
297.348
297.354
297.366
297.372
297.386
297.393
297.41
297.416
297.437
297.441
297.467
297.47
297.501
297.499
297.535
297.49
297.491
297.492
297.496
297.497
297.504
297.505
297.514
297.517
297.528
297.532
297.544
297.549
297.564
297.571
297.587
297.593
297.614
297.617
297.644
297.644
297.679
297.674
297.712
297.659
297.66
297.661
297.665
297.666
297.672
297.675
297.682
297.687
297.695
297.701
297.712
297.718
297.732
297.738
297.755
297.76
297.782
297.785
297.81
297.813
297.842
297.841
297.876
297.819
297.82
297.822
297.824
297.827
297.83
297.835
297.841
297.847
297.855
297.86
297.871
297.877
297.891
297.897
297.914
297.919
297.939
297.942
297.969
297.968
298.002
297.998
298.033
297.971
297.972
297.971
297.977
297.976
297.985
297.983
297.995
297.995
298.007
298.01
298.022
298.027
298.041
298.047
298.063
298.067
298.09
298.093
298.117
298.12
298.148
298.147
298.18
298.114
298.114
298.117
298.116
298.123
298.122
298.132
298.132
298.141
298.147
298.154
298.164
298.169
298.183
298.188
298.206
298.21
298.23
298.233
298.259
298.259
298.289
298.287
298.321
298.249
298.251
298.249
298.257
298.251
298.265
298.259
298.274
298.271
298.285
298.286
298.299
298.303
298.317
298.323
298.339
298.342
298.365
298.367
298.391
298.392
298.421
298.42
298.452
298.377
298.376
298.381
298.377
298.388
298.383
298.395
298.393
298.404
298.408
298.416
298.425
298.43
298.444
298.449
298.466
298.469
298.49
298.491
298.518
298.518
298.546
298.545
298.577
298.497
298.499
298.497
298.505
298.499
298.513
298.506
298.522
298.518
298.532
298.533
298.547
298.55
298.564
298.568
298.585
298.588
298.61
298.612
298.635
298.636
298.665
298.664
298.694
298.612
298.611
298.616
298.612
298.622
298.617
298.629
298.628
298.638
298.642
298.649
298.658
298.663
298.677
298.681
298.698
298.701
298.721
298.723
298.748
298.749
298.775
298.774
298.805
298.718
298.72
298.719
298.726
298.721
298.733
298.729
298.742
298.74
298.753
298.753
298.767
298.769
298.784
298.787
298.804
298.806
298.829
298.829
298.853
298.853
298.881
298.88
298.909
298.82
298.82
298.824
298.822
298.829
298.828
298.836
298.838
298.845
298.851
298.856
298.866
298.87
298.885
298.887
298.905
298.908
298.926
298.929
298.952
298.954
298.979
298.979
299.007
298.915
298.917
298.917
298.92
298.921
298.927
298.928
298.936
298.937
298.947
298.95
298.962
298.965
298.979
298.982
298.998
299.001
299.022
299.022
299.046
299.046
299.073
299.071
299.101
299.006
299.006
299.007
299.01
299.011
299.017
299.017
299.026
299.027
299.037
299.04
299.051
299.054
299.069
299.07
299.087
299.09
299.11
299.111
299.134
299.135
299.16
299.16
299.187
299.09
299.09
299.093
299.092
299.099
299.097
299.106
299.106
299.114
299.12
299.124
299.135
299.138
299.152
299.154
299.17
299.174
299.193
299.193
299.217
299.216
299.243
299.241
299.27
299.17
299.172
299.168
299.178
299.17
299.186
299.176
299.193
299.188
299.202
299.201
299.214
299.216
299.231
299.233
299.249
299.252
299.271
299.273
299.294
299.296
299.319
299.32
299.346
299.245
299.243
299.25
299.242
299.258
299.246
299.265
299.256
299.27
299.271
299.278
299.287
299.291
299.304
299.306
299.323
299.326
299.343
299.345
299.368
299.367
299.393
299.392
299.419
299.314
299.317
299.311
299.326
299.311
299.334
299.317
299.341
299.329
299.347
299.344
299.359
299.359
299.373
299.376
299.392
299.393
299.413
299.415
299.435
299.437
299.459
299.46
299.485
299.38
299.378
299.387