/*--------------------------------*- C++ -*----------------------------------*\
  =========                 |
  \\      /  F ield         | OpenFOAM: The Open Source CFD Toolbox
   \\    /   O peration     | Website:  https://openfoam.org
    \\  /    A nd           | Version:  10
     \\/     M anipulation  |
\*---------------------------------------------------------------------------*/
FoamFile
{
    format      ascii;
    class       volVectorField;
    location    "0.31";
    object      U;
}
// * * * * * * * * * * * * * * * * * * * * * * * * * * * * * * * * * * * * * //

dimensions      [0 1 -1 0 0 0 0];

internalField   nonuniform List<vector> 
4176
(
(497.488 -0.0141707 -5.12742e-09)
(497.474 0.0638446 1.60918e-09)
(497.449 0.00136441 -4.96101e-10)
(497.4 0.0905744 6.87379e-11)
(497.346 0.0509036 1.20137e-12)
(497.272 0.0897536 -5.18458e-10)
(497.18 0.125682 -5.0067e-10)
(497.088 0.0607221 5.83338e-11)
(496.954 0.225017 4.44981e-10)
(496.849 0.00507669 5.23769e-10)
(496.672 0.344129 4.11474e-10)
(496.549 -0.0687608 4.18778e-10)
(496.339 0.469543 2.41167e-10)
(496.191 -0.139133 -1.49365e-10)
(495.956 0.56749 -3.56556e-10)
(495.773 -0.135248 -2.78058e-10)
(495.536 0.528152 -2.48858e-10)
(495.286 0.0240601 -4.3445e-11)
(495.073 0.334383 3.09554e-10)
(494.73 0.323421 1.97035e-10)
(494.575 -0.0174502 -1.22978e-10)
(494.097 0.772254 -1.76836e-10)
(494.068 -0.516681 6.86884e-11)
(493.443 1.4427 1.76439e-10)
(497.47 0.00490184 -5.12683e-09)
(497.456 0.114673 1.60936e-09)
(497.43 0.0764243 -4.96283e-10)
(497.38 0.203486 6.8051e-11)
(497.325 0.186168 1.11453e-12)
(497.247 0.264472 -5.18246e-10)
(497.156 0.321588 -5.01451e-10)
(497.059 0.295812 5.83967e-11)
(496.924 0.48197 4.45618e-10)
(496.814 0.298198 5.23991e-10)
(496.636 0.662637 4.11139e-10)
(496.508 0.279058 4.18732e-10)
(496.293 0.850116 2.39592e-10)
(496.142 0.258746 -1.49263e-10)
(495.9 1.01218 -3.5641e-10)
(495.714 0.302437 -2.77609e-10)
(495.47 1.04192 -2.50023e-10)
(495.215 0.511116 -4.35323e-11)
(494.996 0.913946 3.08543e-10)
(494.646 0.855586 1.96628e-10)
(494.491 0.62805 -1.22945e-10)
(493.992 1.33128 -1.79188e-10)
(493.957 0.124764 6.9447e-11)
(493.269 1.99297 1.76024e-10)
(497.413 0.0232533 -5.13053e-09)
(497.399 0.16133 1.60846e-09)
(497.375 0.147608 -4.98346e-10)
(497.324 0.307832 6.91011e-11)
(497.272 0.313778 8.43815e-13)
(497.195 0.426664 -5.192e-10)
(497.108 0.505711 -4.98932e-10)
(497.011 0.51504 6.01682e-11)
(496.881 0.722688 4.47629e-10)
(496.772 0.572856 5.24315e-10)
(496.599 0.960413 4.103e-10)
(496.473 0.606454 4.1798e-10)
(496.263 1.2059 2.41224e-10)
(496.116 0.634323 -1.49225e-10)
(495.877 1.42839 -3.56714e-10)
(495.697 0.714195 -2.76443e-10)
(495.454 1.52244 -2.52759e-10)
(495.209 0.966378 -4.50986e-11)
(494.993 1.45676 3.09225e-10)
(494.653 1.34422 1.96182e-10)
(494.506 1.24728 -1.23941e-10)
(494.016 1.88251 -1.76567e-10)
(493.982 0.838393 6.97389e-11)
(493.27 2.60907 1.76966e-10)
(497.309 0.0419894 -5.12928e-09)
(497.295 0.208836 1.61262e-09)
(497.27 0.220111 -4.99422e-10)
(497.22 0.414153 7.21948e-11)
(497.168 0.443754 6.08664e-14)
(497.091 0.592022 -5.23734e-10)
(497.004 0.693271 -4.99046e-10)
(496.907 0.738669 5.76128e-11)
(496.777 0.9679 4.40923e-10)
(496.668 0.853166 5.27851e-10)
(496.494 1.26375 4.11369e-10)
(496.37 0.940807 4.16353e-10)
(496.158 1.56858 2.42789e-10)
(496.013 1.01851 -1.50804e-10)
(495.77 1.85326 -3.63922e-10)
(495.593 1.13568 -2.77749e-10)
(495.346 2.01689 -2.50357e-10)
(495.097 1.42692 -4.54193e-11)
(494.891 2.00891 3.11528e-10)
(494.54 1.84107 1.95549e-10)
(494.398 1.85793 -1.26788e-10)
(493.915 2.42042 -1.77415e-10)
(493.887 1.52533 6.79702e-11)
(493.205 3.20578 1.67456e-10)
(497.157 0.0603223 -5.13113e-09)
(497.143 0.255359 1.61908e-09)
(497.119 0.291036 -4.95528e-10)
(497.069 0.518342 7.22261e-11)
(497.018 0.570895 3.31935e-12)
(496.942 0.754193 -5.18524e-10)
(496.855 0.876746 -5.01189e-10)
(496.76 0.958215 5.97121e-11)
(496.631 1.20778 4.46459e-10)
(496.524 1.12865 5.25893e-10)
(496.351 1.56054 4.11704e-10)
(496.229 1.2696 4.19352e-10)
(496.018 1.92384 2.39415e-10)
(495.876 1.39626 -1.51846e-10)
(495.633 2.27097 -3.62082e-10)
(495.461 1.55038 -2.80355e-10)
(495.21 2.51221 -2.51473e-10)
(494.966 1.87009 -4.4598e-11)
(494.764 2.55399 3.06084e-10)
(494.411 2.33892 2.01308e-10)
(494.271 2.45247 -1.19095e-10)
(493.793 2.94629 -1.74516e-10)
(493.764 2.16791 7.1565e-11)
(493.102 3.76368 1.78246e-10)
(496.957 0.0786469 -5.14368e-09)
(496.942 0.301585 1.61716e-09)
(496.919 0.361806 -4.94167e-10)
(496.869 0.621943 6.75956e-11)
(496.819 0.697733 -7.86802e-12)
(496.742 0.915508 -5.23841e-10)
(496.657 1.05979 -4.98926e-10)
(496.562 1.17671 5.57833e-11)
(496.435 1.44707 4.4711e-10)
(496.327 1.40305 5.31518e-10)
(496.157 1.85645 4.1215e-10)
(496.035 1.59757 4.13749e-10)
(495.825 2.27749 2.36736e-10)
(495.684 1.7739 -1.49534e-10)
(495.442 2.68539 -3.65226e-10)
(495.274 1.96933 -2.77857e-10)
(495.018 3.00282 -2.40974e-10)
(494.787 2.31297 -4.16894e-11)
(494.57 3.10355 3.15934e-10)
(494.229 2.83566 2.03431e-10)
(494.084 3.04879 -1.23389e-10)
(493.611 3.47437 -1.85289e-10)
(493.576 2.81477 6.83301e-11)
(492.913 4.32064 1.78502e-10)
(496.708 0.0967935 -5.1438e-09)
(496.694 0.347146 1.61428e-09)
(496.671 0.431784 -5.10372e-10)
(496.621 0.724105 6.76905e-11)
(496.571 0.823113 6.79488e-12)
(496.495 1.07461 -5.23139e-10)
(496.412 1.24073 -5.10505e-10)
(496.317 1.39227 6.03903e-11)
(496.191 1.68362 4.53773e-10)
(496.084 1.67395 5.26944e-10)
(495.916 2.14891 4.09564e-10)
(495.795 1.92174 4.24851e-10)
(495.588 2.62675 2.52511e-10)
(495.448 2.14791 -1.47721e-10)
(495.207 3.09372 -3.60939e-10)
(495.043 2.38662 -2.74657e-10)
(494.785 3.48242 -2.50468e-10)
(494.565 2.75763 -4.72778e-11)
(494.337 3.65098 3.10465e-10)
(494.01 3.32049 2.00944e-10)
(493.859 3.64401 -1.2488e-10)
(493.392 4.00202 -1.85444e-10)
(493.354 3.47135 7.06453e-11)
(492.692 4.88292 1.83575e-10)
(496.411 0.114802 -5.15997e-09)
(496.396 0.392239 1.62461e-09)
(496.374 0.501137 -4.90193e-10)
(496.324 0.825244 7.11811e-11)
(496.275 0.947323 -6.08901e-12)
(496.2 1.23211 -5.20494e-10)
(496.117 1.41992 -4.94196e-10)
(496.023 1.60568 5.92461e-11)
(495.899 1.91784 4.35747e-10)
(495.793 1.94224 5.24684e-10)
(495.626 2.43844 4.20636e-10)
(495.506 2.24303 4.19313e-10)
(495.301 2.97241 2.26911e-10)
(495.164 2.51894 -1.56515e-10)
(494.924 3.49755 -3.54055e-10)
(494.763 2.80142 -2.82839e-10)
(494.504 3.95463 -2.46875e-10)
(494.292 3.1999 -3.06558e-11)
(494.058 4.19373 3.14357e-10)
(493.743 3.80089 1.86227e-10)
(493.586 4.23736 -1.25157e-10)
(493.127 4.52483 -1.69381e-10)
(493.084 4.12262 6.81393e-11)
(492.43 5.43795 1.60407e-10)
(496.065 0.132629 -5.17244e-09)
(496.051 0.436776 1.61106e-09)
(496.028 0.569704 -5.11969e-10)
(495.979 0.925154 5.90052e-11)
(495.931 1.07007 -6.2519e-12)
(495.856 1.38767 -5.29139e-10)
(495.774 1.59694 -5.09738e-10)
(495.681 1.81644 5.61452e-11)
(495.559 2.14914 4.4255e-10)
(495.454 2.20724 5.21873e-10)
(495.289 2.7243 4.09061e-10)
(495.171 2.56053 4.17891e-10)
(494.967 3.3136 2.35274e-10)
(494.832 2.88597 -1.55409e-10)
(494.593 3.89595 -3.60944e-10)
(494.436 3.21238 -2.7987e-10)
(494.177 4.41838 -2.51204e-10)
(493.973 3.63923 -4.16473e-11)
(493.734 4.72964 3.10967e-10)
(493.431 4.27465 1.93072e-10)
(493.267 4.82811 -1.27226e-10)
(492.818 5.04286 -1.80515e-10)
(492.771 4.76949 6.99157e-11)
(492.126 5.9863 1.76807e-10)
(495.671 0.150271 -5.15697e-09)
(495.657 0.480764 1.63998e-09)
(495.635 0.637482 -4.93245e-10)
(495.586 1.02385 8.22013e-11)
(495.538 1.19136 1.22316e-11)
(495.464 1.54133 -5.12464e-10)
(495.383 1.77177 -4.93021e-10)
(495.291 2.02458 7.36517e-11)
(495.17 2.37748 4.61248e-10)
(495.066 2.46892 5.38893e-10)
(494.903 3.00638 4.27632e-10)
(494.787 2.87415 4.33884e-10)
(494.585 3.6502 2.53766e-10)
(494.453 3.24876 -1.42938e-10)
(494.215 4.28881 -3.47475e-10)
(494.062 3.61921 -2.69281e-10)
(493.803 4.874 -2.37425e-10)
(493.607 4.07482 -3.06237e-11)
(493.364 5.25806 3.2491e-10)
(493.071 4.74248 2.04617e-10)
(492.902 5.41391 -1.15205e-10)
(492.464 5.55395 -1.68412e-10)
(492.413 5.41039 7.93984e-11)
(491.778 6.52631 1.86013e-10)
(495.228 0.167701 -5.17841e-09)
(495.214 0.52415 1.62899e-09)
(495.192 0.704373 -5.0314e-10)
(495.144 1.12123 7.47842e-11)
(495.097 1.31103 5.32914e-12)
(495.023 1.69292 -5.20903e-10)
(494.944 1.94423 -4.9836e-10)
(494.852 2.22989 7.20917e-11)
(494.733 2.60261 4.59867e-10)
(494.631 2.72698 5.37543e-10)
(494.47 3.28435 4.28233e-10)
(494.355 3.18343 4.3654e-10)
(494.155 3.98174 2.5633e-10)
(494.026 3.60673 -1.41448e-10)
(493.79 4.67564 -3.43028e-10)
(493.641 4.02118 -2.63391e-10)
(493.382 5.32138 -2.29971e-10)
(493.194 4.50614 -2.43237e-11)
(492.947 5.77818 3.35431e-10)
(492.666 5.20395 2.15327e-10)
(492.492 5.99296 -1.27015e-10)
(492.065 6.05692 -2.02371e-10)
(492.01 6.045 5.02345e-11)
(491.385 7.05756 1.54936e-10)
(494.737 0.184898 -5.1874e-09)
(494.723 0.56689 1.63218e-09)
(494.702 0.770301 -5.06671e-10)
(494.653 1.21719 6.94509e-11)
(494.608 1.42897 8.20533e-14)
(494.534 1.84233 -5.27333e-10)
(494.456 2.11416 -5.06706e-10)
(494.366 2.43223 6.24208e-11)
(494.248 2.82437 4.50423e-10)
(494.147 2.98127 5.28498e-10)
(493.988 3.55801 4.17972e-10)
(493.875 3.48814 4.2741e-10)
(493.678 4.30795 2.45272e-10)
(493.551 3.95946 -1.51433e-10)
(493.317 5.05608 -3.57877e-10)
(493.173 4.41769 -2.77213e-10)
(492.914 5.76054 -2.47114e-10)
(492.733 4.93275 -3.75805e-11)
(492.483 6.28926 3.17053e-10)
(492.214 5.65827 1.96816e-10)
(492.035 6.56431 -1.22221e-10)
(491.62 6.55098 -1.73117e-10)
(491.562 6.67203 7.62719e-11)
(490.949 7.57942 1.81512e-10)
(494.197 0.201833 -5.197e-09)
(494.183 0.608927 1.63231e-09)
(494.162 0.835166 -5.13194e-10)
(494.114 1.3116 6.36847e-11)
(494.069 1.545 -8.41618e-12)
(493.997 1.98937 -5.40179e-10)
(493.92 2.28135 -5.21484e-10)
(493.831 2.63139 4.61233e-11)
(493.715 3.04252 4.34139e-10)
(493.616 3.23155 5.1025e-10)
(493.459 3.8271 3.92025e-10)
(493.348 3.78798 4.01441e-10)
(493.152 4.6285 2.12276e-10)
(493.029 4.30654 -1.57271e-10)
(492.797 5.42965 -3.34273e-10)
(492.657 4.80805 -2.59995e-10)
(492.4 6.19136 -2.28998e-10)
(492.225 5.35433 -2.50727e-11)
(491.973 6.79073 3.29692e-10)
(491.716 6.10489 2.07093e-10)
(491.532 7.12681 -1.14223e-10)
(491.13 7.03502 -1.67995e-10)
(491.069 7.29045 8.17047e-11)
(490.467 8.09139 1.84747e-10)
(493.608 0.218484 -5.19839e-09)
(493.594 0.650209 1.65731e-09)
(493.574 0.898877 -5.14724e-10)
(493.527 1.40435 4.437e-11)
(493.482 1.65898 -1.16237e-11)
(493.411 2.13386 -5.31908e-10)
(493.336 2.4456 -5.00729e-10)
(493.247 2.82714 8.38653e-11)
(493.133 3.25683 4.54215e-10)
(493.036 3.47756 5.11323e-10)
(492.881 4.09137 4.05444e-10)
(492.772 4.08268 4.25069e-10)
(492.579 4.94311 2.54439e-10)
(492.459 4.6476 -1.38428e-10)
(492.23 5.79603 -3.67744e-10)
(492.093 5.19175 -3.01011e-10)
(491.838 6.61343 -2.65378e-10)
(491.67 5.77027 -4.35648e-11)
(491.416 7.28208 3.24068e-10)
(491.17 6.54324 2.12733e-10)
(490.983 7.67995 -1.26742e-10)
(490.594 7.50816 -1.96899e-10)
(490.53 7.89878 6.49757e-11)
(489.941 8.59293 1.82105e-10)
(492.97 0.234826 -5.22416e-09)
(492.956 0.690685 1.61954e-09)
(492.936 0.961348 -5.06576e-10)
(492.89 1.49531 1.01106e-10)
(492.847 1.77073 1.38269e-11)
(492.776 2.27559 -5.29777e-10)
(492.702 2.60664 -5.21121e-10)
(492.615 3.01919 3.842e-11)
(492.503 3.46697 4.52281e-10)
(492.407 3.71898 5.54067e-10)
(492.255 4.35049 4.26675e-10)
(492.149 4.37191 4.19508e-10)
(491.958 5.25148 2.19918e-10)
(491.841 4.98231 -1.60406e-10)
(491.614 6.15486 -3.44006e-10)
(491.483 5.56833 -2.71998e-10)
(491.229 7.0263 -2.55137e-10)
(491.068 6.17986 -5.48315e-11)
(490.813 7.76273 2.83548e-10)
(490.579 6.97305 1.83571e-10)
(490.387 8.22332 -1.13954e-10)
(490.011 7.96954 -1.72699e-10)
(489.945 8.49579 6.52669e-11)
(489.369 9.08349 1.56921e-10)
(492.283 0.25084 -5.21966e-09)
(492.269 0.730313 1.67183e-09)
(492.25 1.0225 -5.14419e-10)
(492.204 1.58438 4.14838e-11)
(492.162 1.88009 -1.38559e-11)
(492.092 2.41436 -5.31119e-10)
(492.02 2.76423 -4.93621e-10)
(491.934 3.20727 9.22476e-11)
(491.824 3.67263 4.57295e-10)
(491.731 3.95546 5.14029e-10)
(491.58 4.60411 4.12923e-10)
(491.477 4.65529 4.33604e-10)
(491.289 5.55327 2.6424e-10)
(491.175 5.31029 -1.64319e-10)
(490.951 6.50584 -4.00849e-10)
(490.824 5.93734 -2.97497e-10)
(490.573 7.42961 -2.55474e-10)
(490.419 6.58226 -2.97724e-11)
(490.163 8.23189 3.39703e-10)
(489.941 7.39404 1.90025e-10)
(489.745 8.75626 -1.53109e-10)
(489.384 8.41884 -1.8598e-10)
(489.314 9.08089 7.87887e-11)
(488.752 9.56237 1.94648e-10)
(491.546 0.266503 -5.24555e-09)
(491.533 0.769045 1.63767e-09)
(491.514 1.08225 -5.33664e-10)
(491.468 1.67144 3.7772e-11)
(491.427 1.98691 -3.33633e-12)
(491.359 2.54999 -5.05496e-10)
(491.288 2.91812 -4.90564e-10)
(491.205 3.39106 7.43593e-11)
(491.097 3.87345 4.55114e-10)
(491.005 4.1866 5.26246e-10)
(490.857 4.85181 4.02263e-10)
(490.757 4.93239 4.0235e-10)
(490.572 5.84805 2.44731e-10)
(490.462 5.63114 -1.34134e-10)
(490.241 6.8486 -3.50677e-10)
(490.118 6.2984 -2.74269e-10)
(489.87 7.8231 -2.51863e-10)
(489.722 6.97664 -4.60211e-11)
(489.467 8.68875 2.97757e-10)
(489.256 7.80587 1.66815e-10)
(489.057 9.27724 -1.64921e-10)
(488.71 8.85673 -1.82828e-10)
(488.636 9.65452 9.68748e-11)
(488.09 10.0283 1.91571e-10)
(490.76 0.28179 -5.24957e-09)
(490.747 0.806828 1.66517e-09)
(490.728 1.14052 -5.00918e-10)
(490.683 1.75636 9.25012e-11)
(490.643 2.09102 1.97849e-11)
(490.576 2.68226 -5.10945e-10)
(490.507 3.06806 -4.83454e-10)
(490.425 3.57029 9.91423e-11)
(490.32 4.06909 4.9679e-10)
(490.231 4.41202 5.39191e-10)
(490.086 5.09313 3.86818e-10)
(489.988 5.20272 3.99248e-10)
(489.807 6.13534 2.11854e-10)
(489.7 5.94434 -1.8637e-10)
(489.482 7.18273 -3.93301e-10)
(489.365 6.6511 -2.99682e-10)
(489.119 8.20653 -2.68934e-10)
(488.978 7.36226 -4.92948e-11)
(488.724 9.13266 3.1116e-10)
(488.524 8.20826 1.95171e-10)
(488.322 9.78583 -1.21596e-10)
(487.99 9.28278 -1.68596e-10)
(487.912 10.2159 8.59084e-11)
(487.382 10.4807 1.95804e-10)
(489.924 0.296674 -5.26866e-09)
(489.911 0.8436 1.65535e-09)
(489.892 1.19719 -5.22601e-10)
(489.848 1.83902 6.63673e-11)
(489.81 2.19226 -1.31541e-11)
(489.744 2.81098 -5.55397e-10)
(489.677 3.21381 -5.30077e-10)
(489.597 3.74466 4.97361e-11)
(489.494 4.2592 4.39478e-10)
(489.407 4.63132 5.16003e-10)
(489.265 5.32766 4.00453e-10)
(489.171 5.4658 4.04031e-10)
(488.992 6.41463 2.07625e-10)
(488.89 6.24933 -1.95095e-10)
(488.676 7.50768 -4.11943e-10)
(488.563 6.99486 -3.22804e-10)
(488.32 8.57944 -2.5634e-10)
(488.186 7.7386 -8.21441e-12)
(487.934 9.56315 3.51405e-10)
(487.745 8.6008 2.21438e-10)
(487.54 10.2815 -1.01023e-10)
(487.224 9.69666 -1.57463e-10)
(487.141 10.7643 9.43044e-11)
(486.627 10.9192 2.00236e-10)
(489.037 0.311119 -5.29763e-09)
(489.024 0.879281 1.6704e-09)
(489.007 1.25215 -4.94639e-10)
(488.963 1.91924 7.14092e-11)
(488.926 2.29042 1.24746e-11)
(488.861 2.93591 -5.07374e-10)
(488.796 3.35509 -5.09185e-10)
(488.718 3.91389 4.62509e-11)
(488.618 4.44347 4.58709e-10)
(488.534 4.84414 5.56143e-10)
(488.395 5.55496 4.14843e-10)
(488.305 5.72114 4.34321e-10)
(488.13 6.6854 2.57657e-10)
(488.032 6.54554 -1.7564e-10)
(487.821 7.82289 -3.67502e-10)
(487.714 7.32905 -2.63411e-10)
(487.474 8.9413 -2.61393e-10)
(487.347 8.1051 -7.04385e-11)
(487.097 9.97985 3.02199e-10)
(486.919 8.98307 1.94447e-10)
(486.712 10.7638 -1.54637e-10)
(486.41 10.098 -1.8564e-10)
(486.324 11.2992 8.20936e-11)
(485.827 11.3434 1.63837e-10)
(488.1 0.325086 -5.29117e-09)
(488.088 0.913783 1.68613e-09)
(488.071 1.30525 -4.96288e-10)
(488.028 1.99685 1.06038e-10)
(487.992 2.38526 3.03909e-11)
(487.929 3.0568 -5.46745e-10)
(487.866 3.49163 -5.55997e-10)
(487.79 4.07768 3.7932e-11)
(487.693 4.62156 4.41822e-10)
(487.611 5.05013 5.26154e-10)
(487.476 5.77466 4.1581e-10)
(487.389 5.96832 4.30782e-10)
(487.218 6.94715 2.48464e-10)
(487.124 6.83239 -1.50904e-10)
(486.918 8.12776 -3.49701e-10)
(486.816 7.65302 -2.59654e-10)
(486.581 9.29152 -2.23445e-10)
(486.46 8.46107 -4.56785e-11)
(486.212 10.3824 2.7451e-10)
(486.046 9.35469 1.6206e-10)
(485.836 11.2321 -1.5524e-10)
(485.551 10.4866 -1.98459e-10)
(485.46 11.8201 5.58426e-11)
(484.981 11.7527 1.72893e-10)
(487.113 0.338534 -5.32465e-09)
(487.1 0.947015 1.64309e-09)
(487.084 1.35635 -5.21156e-10)
(487.043 2.07163 1.06553e-10)
(487.008 2.47656 6.73057e-12)
(486.947 3.17336 -5.48505e-10)
(486.886 3.62312 -5.33317e-10)
(486.812 4.2357 8.22423e-11)
(486.717 4.79313 5.06432e-10)
(486.639 5.24894 5.65483e-10)
(486.507 5.98638 4.31485e-10)
(486.424 6.20694 4.1797e-10)
(486.257 7.19946 2.04335e-10)
(486.168 7.10938 -1.74359e-10)
(485.966 8.42174 -3.55836e-10)
(485.869 7.96609 -2.81965e-10)
(485.638 9.62946 -2.68723e-10)
(485.525 8.8057 -6.69746e-11)
(485.28 10.7704 3.20192e-10)
(485.125 9.71532 2.17609e-10)
(484.914 11.6853 -1.21822e-10)
(484.644 10.8619 -1.90205e-10)
(484.549 12.3265 4.22312e-11)
(484.088 12.1469 1.77873e-10)
(486.075 0.351427 -5.34309e-09)
(486.062 0.978888 1.64877e-09)
(486.047 1.40531 -5.22933e-10)
(486.006 2.14341 1.12363e-10)
(485.973 2.56407 1.64858e-11)
(485.913 3.28533 -5.44936e-10)
(485.855 3.74925 -5.34434e-10)
(485.784 4.38762 3.30864e-11)
(485.692 4.95785 4.58276e-10)
(485.617 5.44022 5.72117e-10)
(485.489 6.18975 4.42737e-10)
(485.409 6.43662 4.28565e-10)
(485.247 7.44192 2.14746e-10)
(485.162 7.37607 -1.66118e-10)
(484.965 8.70434 -3.46639e-10)
(484.874 8.26766 -2.77843e-10)
(484.648 9.95448 -2.63998e-10)
(484.542 9.13813 -5.78152e-11)
(484.301 11.1435 3.31445e-10)
(484.156 10.0645 2.2683e-10)
(483.944 12.1226 -1.12196e-10)
(483.69 11.2234 -1.81653e-10)
(483.591 12.8177 5.71901e-11)
(483.149 12.5255 1.5094e-10)
(484.985 0.363731 -5.36681e-09)
(484.973 1.00933 1.69477e-09)
(484.958 1.452 -4.99658e-10)
(484.919 2.21201 6.9065e-11)
(484.887 2.64758 -3.95554e-11)
(484.83 3.39245 -5.62841e-10)
(484.774 3.86972 -5.09898e-10)
(484.705 4.53311 4.97201e-11)
(484.617 5.11533 4.65235e-10)
(484.545 5.6236 5.63776e-10)
(484.421 6.38439 4.17745e-10)
(484.345 6.65697 4.44552e-10)
(484.187 7.67413 2.7327e-10)
(484.107 7.63205 -1.72056e-10)
(483.914 8.97513 -4.17203e-10)
(483.83 8.55725 -3.02165e-10)
(483.608 10.2661 -2.48332e-10)
(483.51 9.45766 -5.29309e-11)
(483.273 11.5013 3.27054e-10)
(483.139 10.4017 2.13371e-10)
(482.927 12.5431 -1.39028e-10)
(482.689 11.5702 -1.68063e-10)
(482.587 13.2929 1.08419e-10)
(482.163 12.888 1.84705e-10)
(483.845 0.375426 -5.35243e-09)
(483.833 1.03829 1.7244e-09)
(483.819 1.49634 -4.86022e-10)
(483.781 2.27732 8.06439e-11)
(483.751 2.7269 -3.46687e-11)
(483.695 3.49448 -5.64981e-10)
(483.642 3.98425 -5.16355e-10)
(483.576 4.67185 9.39272e-11)
(483.49 5.26522 5.04922e-10)
(483.422 5.79868 5.44731e-10)
(483.302 6.56989 3.91697e-10)
(483.231 6.86759 4.14663e-10)
(483.077 7.89569 2.35272e-10)
(483.003 7.87693 -1.63152e-10)
(482.815 9.23372 -3.57833e-10)
(482.737 8.83442 -2.53352e-10)
(482.52 10.5637 -2.59654e-10)
(482.43 9.76374 -7.19987e-11)
(482.196 11.8432 3.00386e-10)
(482.073 10.7262 1.85123e-10)
(481.861 12.9461 -1.23302e-10)
(481.64 11.9015 -1.58735e-10)
(481.535 13.7507 1.14261e-10)
(481.131 13.2339 1.85229e-10)
(482.654 0.386496 -5.36436e-09)
(482.642 1.06574 1.69985e-09)
(482.628 1.53826 -5.4724e-10)
(482.591 2.33922 9.28275e-11)
(482.563 2.80191 -7.92435e-12)
(482.509 3.59125 -5.72772e-10)
(482.459 4.09259 -5.01129e-10)
(482.396 4.80355 7.28435e-11)
(482.314 5.40717 4.46063e-10)
(482.249 5.96509 5.63023e-10)
(482.133 6.74583 4.32032e-10)
(482.066 7.06807 4.15766e-10)
(481.917 8.10619 2.5809e-10)
(481.848 8.11031 -1.74681e-10)
(481.665 9.47972 -4.10596e-10)
(481.594 9.09878 -2.84409e-10)
(481.382 10.8472 -2.71337e-10)
(481.3 10.0559 -6.18239e-11)
(481.071 12.1687 3.30257e-10)
(480.958 11.0373 1.80458e-10)
(480.747 13.331 -1.63666e-10)
(480.543 12.2165 -1.78876e-10)
(480.435 14.1898 5.47236e-11)
(480.051 13.5626 1.50516e-10)
(481.411 0.396928 -5.4407e-09)
(481.399 1.09164 1.68086e-09)
(481.387 1.57773 -5.49394e-10)
(481.351 2.39765 6.35818e-11)
(481.324 2.87251 -7.94158e-12)
(481.273 3.68262 -5.51709e-10)
(481.224 4.19458 -5.13621e-10)
(481.164 4.92797 9.12829e-11)
(481.086 5.54089 4.93819e-10)
(481.025 6.12248 5.76254e-10)
(480.914 6.91182 4.68014e-10)
(480.851 7.25798 4.22447e-10)
(480.707 8.30516 2.29245e-10)
(480.644 8.33173 -1.81393e-10)
(480.466 9.7127 -3.88813e-10)
(480.401 9.34993 -2.90187e-10)
(480.194 11.116 -2.54234e-10)
(480.12 10.3337 -2.54673e-11)
(479.896 12.4774 3.43316e-10)
(479.794 11.3343 2.11114e-10)
(479.585 13.697 -1.64479e-10)
(479.397 12.515 -2.04674e-10)
(479.287 14.6098 5.5385e-11)
(478.923 13.8738 1.66703e-10)
(480.117 0.406714 -5.41789e-09)
(480.105 1.11596 1.73985e-09)
(480.094 1.61469 -4.94474e-10)
(480.059 2.45256 7.64262e-11)
(480.034 2.93861 -4.24258e-11)
(479.985 3.7685 -5.83876e-10)
(479.939 4.29008 -5.3222e-10)
(479.882 5.04496 8.6459e-11)
(479.807 5.66617 4.95956e-10)
(479.751 6.27058 5.89911e-10)
(479.643 7.06751 4.34044e-10)
(479.586 7.43692 4.00799e-10)
(479.446 8.49218 2.17513e-10)
(479.389 8.54074 -1.8817e-10)
(479.217 9.93222 -3.84445e-10)
(479.159 9.58743 -2.74539e-10)
(478.957 11.3698 -2.24676e-10)
(478.892 10.5968 1.20434e-11)
(478.672 12.7693 3.32841e-10)
(478.581 11.6162 1.59197e-10)
(478.374 14.043 -1.53133e-10)
(478.203 12.7971 -1.84097e-10)
(478.09 15.0116 9.09769e-11)
(477.747 14.168 2.15208e-10)
(478.772 0.415839 -5.42373e-09)
(478.76 1.13869 1.71383e-09)
(478.75 1.64911 -5.7231e-10)
(478.716 2.50388 7.04413e-11)
(478.693 3.00015 2.79393e-11)
(478.645 3.84879 -5.48995e-10)
(478.603 4.379 -5.4557e-10)
(478.549 5.15439 8.76395e-11)
(478.478 5.78285 4.62228e-10)
(478.425 6.40918 5.14673e-10)
(478.322 7.21265 4.35391e-10)
(478.269 7.60456 4.71928e-10)
(478.135 8.66683 2.42407e-10)
(478.084 8.73689 -2.00855e-10)
(477.917 10.1378 -3.79879e-10)
(477.866 9.81078 -2.52745e-10)
(477.67 11.6082 -2.49811e-10)
(477.613 10.8447 -5.30651e-11)
(477.399 13.044 3.46975e-10)
(477.318 11.8824 1.8623e-10)
(477.114 14.3679 -1.72552e-10)
(476.96 13.0632 -1.89872e-10)
(476.844 15.3936 1.03465e-10)
(476.523 14.4429 1.88707e-10)
(477.375 0.424288 -5.50339e-09)
(477.364 1.15979 1.69339e-09)
(477.354 1.68094 -5.62385e-10)
(477.321 2.55155 5.79876e-11)
(477.3 3.05706 -2.02115e-11)
(477.255 3.92343 -5.76392e-10)
(477.215 4.46124 -5.3493e-10)
(477.164 5.25616 7.63731e-11)
(477.097 5.89081 4.76852e-10)
(477.047 6.53817 5.53159e-10)
(476.949 7.34704 4.42952e-10)
(476.902 7.76069 4.55401e-10)
(476.773 8.82881 2.55461e-10)
(476.727 8.91979 -1.671e-10)
(476.567 10.329 -3.75009e-10)
(476.522 10.0195 -2.76112e-10)
(476.333 11.8306 -2.43704e-10)
(476.284 11.0769 -1.90481e-11)
(476.076 13.301 3.55044e-10)
(476.005 12.1326 2.1965e-10)
(475.805 14.6712 -1.03556e-10)
(475.668 13.3122 -2.12361e-10)
(475.549 15.7552 4.18837e-11)
(475.249 14.6988 1.61439e-10)
(475.926 0.432044 -5.44828e-09)
(475.915 1.17921 1.7636e-09)
(475.907 1.71011 -5.22317e-10)
(475.875 2.5955 9.81777e-11)
(475.856 3.10924 1.03801e-11)
(475.813 3.99231 -5.52847e-10)
(475.776 4.53671 -5.17725e-10)
(475.727 5.3502 9.02842e-11)
(475.664 5.98997 4.85553e-10)
(475.619 6.65746 5.55276e-10)
(475.525 7.47059 4.38012e-10)
(475.483 7.90517 4.38391e-10)
(475.359 8.97791 2.30284e-10)
(475.32 9.08919 -1.92384e-10)
(475.165 10.5054 -4.15316e-10)
(475.128 10.2131 -3.23648e-10)
(474.945 12.0367 -2.96406e-10)
(474.904 11.293 -7.13546e-12)
(474.702 13.54 3.57066e-10)
(474.642 12.3662 2.09002e-10)
(474.446 14.9526 -1.16817e-10)
(474.325 13.5434 -1.73689e-10)
(474.205 16.0959 8.04559e-11)
(473.927 14.9359 1.90491e-10)
(474.426 0.439091 -5.48622e-09)
(474.416 1.19692 1.7424e-09)
(474.408 1.73658 -5.61891e-10)
(474.378 2.63564 9.83643e-11)
(474.36 3.15663 -2.15147e-12)
(474.319 4.05534 -5.81709e-10)
(474.285 4.60532 -5.0652e-10)
(474.24 5.43642 8.51363e-11)
(474.18 6.08025 4.68611e-10)
(474.139 6.76698 5.83046e-10)
(474.05 7.58323 4.4593e-10)
(474.012 8.03795 4.33477e-10)
(473.894 9.11402 2.69682e-10)
(473.861 9.24494 -1.75243e-10)
(473.712 10.6667 -4.10613e-10)
(473.683 10.3913 -2.76456e-10)
(473.506 12.2258 -2.6402e-10)
(473.474 11.4922 -5.3551e-11)
(473.278 13.7605 3.58832e-10)
(473.229 12.5826 1.97856e-10)
(473.037 15.2122 -1.57293e-10)
(472.932 13.7573 -1.62534e-10)
(472.81 16.4144 8.13816e-11)
(472.554 15.1529 1.68262e-10)
(472.875 0.445423 -5.55871e-09)
(472.864 1.21292 1.7497e-09)
(472.857 1.76032 -5.26214e-10)
(472.828 2.67195 5.79877e-11)
(472.813 3.19915 4.06673e-12)
(472.774 4.11247 -5.3691e-10)
(472.742 4.667 -5.46729e-10)
(472.7 5.51472 9.2948e-11)
(472.645 6.16158 5.16638e-10)
(472.608 6.86669 5.46383e-10)
(472.523 7.6849 4.53896e-10)
(472.491 8.15901 4.85837e-10)
(472.377 9.23711 2.37031e-10)
(472.35 9.38704 -1.70302e-10)
(472.208 10.8129 -3.58645e-10)
(472.186 10.5538 -3.07655e-10)
(472.015 12.3976 -2.58013e-10)
(471.992 11.6741 -5.32361e-12)
(471.803 13.9618 3.26628e-10)
(471.764 12.7808 2.04131e-10)
(471.578 15.4503 -1.03961e-10)
(471.488 13.9546 -1.92131e-10)
(471.364 16.7096 8.86474e-11)
(471.132 15.3491 2.16036e-10)
(471.271 0.451039 -5.54309e-09)
(471.261 1.22719 1.79437e-09)
(471.255 1.78133 -4.96244e-10)
(471.227 2.70441 9.34664e-11)
(471.214 3.2368 -3.47808e-11)
(471.177 4.16365 -5.80422e-10)
(471.148 4.72168 -5.15491e-10)
(471.109 5.58505 1.21072e-10)
(471.057 6.23385 5.45735e-10)
(471.024 6.95648 5.81815e-10)
(470.944 7.77554 4.15097e-10)
(470.917 8.2683 4.42158e-10)
(470.809 9.34716 2.64469e-10)
(470.788 9.5155 -1.46092e-10)
(470.651 10.9439 -3.39775e-10)
(470.637 10.7007 -2.89841e-10)
(470.472 12.5521 -3.07123e-10)
(470.459 11.8384 -4.76291e-11)
(470.276 14.1435 3.42156e-10)
(470.248 12.9601 2.16753e-10)
(470.068 15.6664 -8.39027e-11)
(469.992 14.1351 -1.8109e-10)
(469.868 16.9812 3.45323e-11)
(469.659 15.5242 1.68978e-10)
(469.616 0.455945 -5.62502e-09)
(469.606 1.23976 1.72718e-09)
(469.6 1.79963 -5.83167e-10)
(469.574 2.73305 4.4618e-11)
(469.563 3.2696 -3.50656e-11)
(469.528 4.20889 -6.0384e-10)
(469.502 4.76938 -5.6366e-10)
(469.466 5.64737 5.39941e-11)
(469.418 6.29703 4.60862e-10)
(469.389 7.03628 5.37013e-10)
(469.314 7.85503 4.1654e-10)
(469.292 8.36574 4.23827e-10)
(469.189 9.44409 2.17074e-10)
(469.175 9.63031 -2.12114e-10)
(469.043 11.0598 -4.31297e-10)
(469.036 10.8322 -3.28703e-10)
(468.878 12.6892 -3.00988e-10)
(468.874 11.9852 -6.59027e-11)
(468.697 14.3054 3.01953e-10)
(468.681 13.1201 1.62472e-10)
(468.506 15.8598 -1.75639e-10)
(468.445 14.2982 -2.17975e-10)
(468.32 17.2285 4.19569e-11)
(468.135 15.6778 1.57665e-10)
(467.909 0.460153 -5.58258e-09)
(467.899 1.25064 1.77358e-09)
(467.894 1.81527 -5.72713e-10)
(467.869 2.75792 1.0948e-10)
(467.859 3.2976 4.8504e-12)
(467.827 4.24825 -5.85401e-10)
(467.804 4.81011 -4.97757e-10)
(467.771 5.70171 1.03777e-10)
(467.727 6.3511 4.90547e-10)
(467.702 7.10606 6.14326e-10)
(467.631 7.92331 4.73307e-10)
(467.614 8.45122 4.52101e-10)
(467.517 9.52779 2.93975e-10)
(467.509 9.73138 -1.60994e-10)
(467.383 11.1606 -3.97985e-10)
(467.384 10.9481 -3.16654e-10)
(467.232 12.8091 -3.08925e-10)
(467.237 12.1145 -2.77733e-11)
(467.066 14.4477 3.25325e-10)
(467.061 13.2605 1.62995e-10)
(466.892 16.0304 -1.26623e-10)
(466.846 14.4429 -1.94184e-10)
(466.722 17.4505 4.2468e-11)
(466.559 15.8098 2.01623e-10)
(466.15 0.463675 -5.59916e-09)
(466.14 1.25987 1.7894e-09)
(466.136 1.82829 -5.68812e-10)
(466.112 2.77907 1.17398e-10)
(466.104 3.32088 1.15027e-11)
(466.074 4.2818 -5.81073e-10)
(466.054 4.84397 -4.92426e-10)
(466.024 5.74813 1.12189e-10)
(465.983 6.3961 4.99772e-10)
(465.962 7.16581 5.54737e-10)
(465.896 7.98034 4.12262e-10)
(465.884 8.52468 4.67302e-10)
(465.793 9.59813 2.3839e-10)
(465.791 9.81859 -2.15492e-10)
(465.671 11.2459 -3.85724e-10)
(465.679 11.0485 -3.04554e-10)
(465.534 12.9118 -2.9583e-10)
(465.547 12.2266 -1.44936e-11)
(465.383 14.5705 3.4192e-10)
(465.389 13.3817 1.76047e-10)
(465.225 16.1784 -1.13269e-10)
(465.193 14.5678 -1.82736e-10)
(465.073 17.6456 6.41254e-11)
(464.933 15.9204 2.21354e-10)
(464.338 0.466523 -5.64201e-09)
(464.329 1.26748 1.8443e-09)
(464.326 1.83873 -5.44189e-10)
(464.303 2.79656 5.91807e-11)
(464.297 3.33951 1.12211e-11)
(464.268 4.30963 -5.25988e-10)
(464.251 4.87105 -5.21568e-10)
(464.224 5.78673 6.38732e-11)
(464.188 6.43213 5.09213e-10)
(464.171 7.21563 6.20076e-10)
(464.109 8.02615 4.63203e-10)
(464.102 8.58609 4.34554e-10)
(464.016 9.65502 2.60216e-10)
(464.02 9.89178 -1.42747e-10)
(463.907 11.3158 -4.01612e-10)
(463.923 11.1332 -3.31879e-10)
(463.783 12.997 -2.67913e-10)
(463.806 12.3214 -1.01585e-12)
(463.647 14.6741 3.44227e-10)
(463.664 13.4841 1.63898e-10)
(463.506 16.3048 -1.43476e-10)
(463.488 14.6719 -1.64586e-10)
(463.371 17.8122 7.20417e-11)
(463.254 16.0092 1.53292e-10)
(462.475 0.468702 -5.69438e-09)
(462.465 1.27347 1.78197e-09)
(462.463 1.84663 -5.80532e-10)
(462.442 2.81043 4.45648e-11)
(462.437 3.35354 -5.09794e-11)
(462.411 4.33181 -6.37745e-10)
(462.396 4.89143 -5.30423e-10)
(462.372 5.8176 1.58353e-10)
(462.339 6.45928 5.61183e-10)
(462.326 7.2556 6.29793e-10)
(462.269 8.06083 4.93428e-10)
(462.267 8.63553 4.84702e-10)
(462.186 9.69846 2.68059e-10)
(462.197 9.95091 -1.7795e-10)
(462.09 11.3699 -4.10548e-10)
(462.113 11.2018 -3.19482e-10)
(461.98 13.0644 -2.98056e-10)
(462.012 12.3986 -6.60917e-11)
(461.86 14.7581 2.94713e-10)
(461.888 13.5675 1.45032e-10)
(461.736 16.4096 -1.37401e-10)
(461.731 14.7561 -1.3324e-10)
(461.617 17.9505 1.31889e-10)
(461.523 16.0756 2.3014e-10)
(460.558 0.470214 -5.74766e-09)
(460.549 1.27786 1.7981e-09)
(460.548 1.85199 -5.48979e-10)
(460.528 2.82069 3.75699e-11)
(460.525 3.363 -3.09191e-11)
(460.5 4.34835 -5.88943e-10)
(460.488 4.90515 -5.25281e-10)
(460.468 5.8408 1.2379e-10)
(460.438 6.47763 4.78865e-10)
(460.429 7.28583 5.75379e-10)
(460.376 8.08448 4.73823e-10)
(460.38 8.67311 4.23389e-10)
(460.304 9.72854 2.32362e-10)
(460.321 9.99605 -1.8611e-10)
(460.219 11.4083 -3.90548e-10)
(460.251 11.2544 -2.73214e-10)
(460.124 13.1138 -2.9151e-10)
(460.166 12.4579 -3.27576e-11)
(460.02 14.8221 3.63513e-10)
(460.059 13.6317 1.58281e-10)
(459.912 16.4928 -1.68739e-10)
(459.922 14.8206 -1.91468e-10)
(459.811 18.0612 9.51415e-11)
(459.738 16.1202 2.18147e-10)
(458.589 0.471057 -5.70334e-09)
(458.581 1.28064 1.83043e-09)
(458.58 1.85482 -5.72328e-10)
(458.561 2.82734 5.29572e-11)
(458.56 3.36788 -4.52296e-11)
(458.537 4.35927 -5.69387e-10)