/*--------------------------------*- C++ -*----------------------------------*\
  =========                 |
  \\      /  F ield         | OpenFOAM: The Open Source CFD Toolbox
   \\    /   O peration     | Website:  https://openfoam.org
    \\  /    A nd           | Version:  10
     \\/     M anipulation  |
\*---------------------------------------------------------------------------*/
FoamFile
{
    format      ascii;
    class       surfaceScalarField;
    location    "0.3";
    object      phi;
}
// * * * * * * * * * * * * * * * * * * * * * * * * * * * * * * * * * * * * * //

dimensions      [1 0 -1 0 0 0 0];

internalField   nonuniform List<scalar> 
8154
(
-5.78431e-09
-2.19562e-08
-5.65615e-08
-9.12079e-08
-1.70768e-07
-2.24418e-07
-3.68482e-07
-4.51923e-07
-6.72887e-07
-8.12714e-07
-1.10423e-06
-1.33749e-06
-1.66786e-06
-2.02667e-06
-2.36045e-06
-2.86764e-06
-3.2595e-06
-3.98633e-06
-4.56592e-06
-5.50942e-06
-6.82947e-06
-7.25309e-06
-6.84986e-06
-0.000277438
-0.000832369
2.40608e-08
-0.00138746
9.63642e-08
-0.00194288
2.13603e-07
-0.00249867
3.7862e-07
-0.00305503
5.78106e-07
-0.00361202
8.24881e-07
-0.00416973
1.09019e-06
-0.00472845
1.39979e-06
-0.00528791
1.71287e-06
-0.00584878
2.05732e-06
-0.00641057
2.40282e-06
-0.00697377
2.74796e-06
-0.00753865
3.1204e-06
-0.00810412
3.43688e-06
-0.00867313
3.85069e-06
-0.00924021
4.12484e-06
-0.00981486
4.5707e-06
-0.0103833
4.92306e-06
-0.0109646
5.13894e-06
-0.0115338
5.27691e-06
-0.0121235
5.11412e-06
-0.0126948
4.033e-06
-0.013293
2.45131e-06
-0.000277462
-0.000832441
2.63707e-08
-0.00138758
1.04889e-07
-0.00194305
2.34979e-07
-0.00249887
4.10681e-07
-0.00305528
6.36045e-07
-0.00361229
8.90945e-07
-0.00417004
1.19649e-06
-0.00472876
1.50323e-06
-0.00528825
1.86877e-06
-0.00584912
2.19188e-06
-0.00641091
2.59331e-06
-0.00697415
2.89258e-06
-0.00753897
3.29914e-06
-0.00810453
3.54014e-06
-0.00867341
3.90496e-06
-0.00924066
4.1035e-06
-0.00981521
4.38691e-06
-0.0103835
5.00102e-06
-0.0109647
4.66624e-06
-0.0115336
5.23023e-06
-0.0121224
5.32955e-06
-0.0126932
5.04261e-06
-0.0132905
4.23159e-06
-0.000277489
-0.00083252
2.13032e-08
-0.00138771
8.49859e-08
-0.00194322
1.88279e-07
-0.00249909
3.30982e-07
-0.00305553
5.02679e-07
-0.00361259
7.08693e-07
-0.00417035
9.24528e-07
-0.00472913
1.16857e-06
-0.00528858
1.39591e-06
-0.00584953
1.64302e-06
-0.00641121
1.84626e-06
-0.00697455
2.04955e-06
-0.00753921
2.19755e-06
-0.0081049
2.28486e-06
-0.0086736
2.3547e-06
-0.00924095
2.20537e-06
-0.00981583
2.34091e-06
-0.0103832
1.89839e-06
-0.0109653
1.78357e-06
-0.0115337
1.39085e-06
-0.0121221
1.15085e-06
-0.0126924
7.21416e-07
-0.0132863
5.21008e-07
-0.00027751
-0.000832583
2.55329e-08
-0.00138781
1.01925e-07
-0.00194337
2.2621e-07
-0.00249926
3.98211e-07
-0.00305574
6.06361e-07
-0.00361281
8.56984e-07
-0.00417059
1.12134e-06
-0.00472935
1.42274e-06
-0.00528882
1.70428e-06
-0.00584973
2.01803e-06
-0.00641141
2.27202e-06
-0.0069747
2.54806e-06
-0.00753929
2.73387e-06
-0.00810497
2.89623e-06
-0.00867346
2.98656e-06
-0.00924108
2.897e-06
-0.00981538
2.97202e-06
-0.010383
2.28156e-06
-0.0109649
2.51931e-06
-0.0115335
1.72422e-06
-0.0121217
1.20048e-06
-0.0126922
3.80365e-07
-0.0132858
-1.66027e-07
-0.000277535
-0.00083266
3.36425e-08
-0.00138794
1.3427e-07
-0.00194354
2.99321e-07
-0.00249947
5.26806e-07
-0.00305599
8.08631e-07
-0.00361307
1.14298e-06
-0.00417089
1.51379e-06
-0.00472964
1.92131e-06
-0.00528914
2.3408e-06
-0.00584998
2.77445e-06
-0.00641169
3.19405e-06
-0.00697488
3.5956e-06
-0.00753946
3.96437e-06
-0.00810506
4.2599e-06
-0.00867337
4.52351e-06
-0.00924116
4.61485e-06
-0.00981469
4.72881e-06
-0.0103833
4.3992e-06
-0.0109641
4.36795e-06
-0.011533
3.67216e-06
-0.0121208
3.20469e-06
-0.0126916
2.26999e-06
-0.0132859
1.3542e-06
-0.000277569
-0.00083276
3.75628e-08
-0.0013881
1.49926e-07
-0.00194377
3.34498e-07
-0.00249975
5.88787e-07
-0.00305632
9.0501e-07
-0.00361344
1.27961e-06
-0.0041713
1.69797e-06
-0.00473006
2.15608e-06
-0.00528957
2.63272e-06
-0.00585041
3.12208e-06
-0.00641209
3.60229e-06
-0.00697525
4.05775e-06
-0.00753975
4.48183e-06
-0.00810532
4.82261e-06
-0.00867346
5.12544e-06
-0.00924128
5.24979e-06
-0.00981437
5.36826e-06
-0.0103832
5.08125e-06
-0.0109635
4.96884e-06
-0.0115325
4.21467e-06
-0.0121199
3.66873e-06
-0.0126907
2.63771e-06
-0.0132846
1.61718e-06
-0.000277606
-0.000832873
4.13971e-08
-0.00138829
1.65242e-07
-0.00194402
3.68775e-07
-0.00250007
6.4924e-07
-0.0030567
9.98444e-07
-0.00361386
1.41243e-06
-0.00417176
1.87576e-06
-0.00473053
2.38399e-06
-0.00529006
2.91413e-06
-0.00585089
3.46014e-06
-0.00641255
3.99642e-06
-0.00697568
4.50857e-06
-0.00754009
4.98255e-06
-0.00810562
5.37175e-06
-0.00867358
5.70855e-06
-0.0092414
5.86274e-06
-0.00981408
5.99657e-06
-0.0103831
5.71815e-06
-0.0109627
5.59879e-06
-0.011532
4.80861e-06
-0.0121189
4.19366e-06
-0.0126897
2.98734e-06
-0.013283
1.79819e-06
-0.000277648
-0.000832996
4.50968e-08
-0.00138849
1.79998e-07
-0.0019443
4.01754e-07
-0.00250042
7.07183e-07
-0.00305711
1.08782e-06
-0.00361432
1.53884e-06
-0.00417226
2.04477e-06
-0.00473106
2.59955e-06
-0.00529061
3.18051e-06
-0.00585142
3.77884e-06
-0.00641306
4.36925e-06
-0.00697615
4.93351e-06
-0.00754048
5.45669e-06
-0.00810596
5.88954e-06
-0.00867374
6.25926e-06
-0.00924153
6.44152e-06
-0.0098138
6.58063e-06
-0.010383
6.32847e-06
-0.0109619
6.17605e-06
-0.0115313
5.37401e-06
-0.0121177
4.82011e-06
-0.0126885
3.36006e-06
-0.0132812
2.01612e-06
-0.000277693
-0.000833131
4.87504e-08
-0.00138871
1.94559e-07
-0.00194461
4.34234e-07
-0.0025008
7.64139e-07
-0.00305756
1.17537e-06
-0.00361483
1.66232e-06
-0.00417282
2.2091e-06
-0.00473164
2.80853e-06
-0.00529121
3.43764e-06
-0.00585201
4.08595e-06
-0.00641362
4.72755e-06
-0.00697667
5.34212e-06
-0.00754091
5.91242e-06
-0.00810633
6.38791e-06
-0.00867392
6.7892e-06
-0.00924167
6.9968e-06
-0.00981355
7.13616e-06
-0.0103828
6.9029e-06
-0.0109611
6.72535e-06
-0.0115307
5.89136e-06
-0.0121163
4.87176e-06
-0.0126871
3.691e-06
-0.0132792
2.20599e-06
-0.000277742
-0.000833277
5.23557e-08
-0.00138895
2.08924e-07
-0.00194494
4.66254e-07
-0.00250121
8.20223e-07
-0.00305805
1.26142e-06
-0.00361537
1.78337e-06
-0.00417342
2.36967e-06
-0.00473227
3.01195e-06
-0.00529186
3.6868e-06
-0.00585266
4.38234e-06
-0.00641424
5.072e-06
-0.00697724
5.73391e-06
-0.00754139
6.34884e-06
-0.00810673
6.86527e-06
-0.00867413
7.29755e-06
-0.00924181
7.52854e-06
-0.00981332
7.66676e-06
-0.0103826
7.44724e-06
-0.0109603
7.24694e-06
-0.0115301
6.39846e-06
-0.0121147
5.5938e-06
-0.0126856
4.03175e-06
-0.0132769
2.39794e-06
-0.000277794
-0.000833434
5.59265e-08
-0.00138921
2.23155e-07
-0.00194529
4.97985e-07
-0.00250165
8.75823e-07
-0.00305857
1.3467e-06
-0.00361596
1.90326e-06
-0.00417406
2.52838e-06
-0.00473295
3.21253e-06
-0.00529255
3.9315e-06
-0.00585335
4.67215e-06
-0.0064149
5.40701e-06
-0.00697785
6.11323e-06
-0.00754191
6.76963e-06
-0.00810716
7.32465e-06
-0.00867436
7.78705e-06
-0.00924195
8.04258e-06
-0.0098131
8.18669e-06
-0.0103824
7.9694e-06
-0.0109594
7.74239e-06
-0.0115293
6.86186e-06
-0.0121132
6.00702e-06
-0.012684
4.35313e-06
-0.0132745
2.58367e-06
-0.00027785
-0.000833601
5.9454e-08
-0.00138948
2.37222e-07
-0.00194567
5.29381e-07
-0.00250212
9.30906e-07
-0.00305913
1.43128e-06
-0.00361658
2.02227e-06
-0.00417475
2.68592e-06
-0.00473367
3.41142e-06
-0.00529329
4.17358e-06
-0.00585408
4.95786e-06
-0.00641561
5.73561e-06
-0.00697851
6.48318e-06
-0.00754246
7.17745e-06
-0.00810763
7.76751e-06
-0.00867462
8.2571e-06
-0.0092421
8.53558e-06
-0.00981289
8.68633e-06
-0.0103822
8.46677e-06
-0.0109586
8.20514e-06
-0.0115284
7.28746e-06
-0.0121116
6.3738e-06
-0.0126822
4.64837e-06
-0.013272
2.75409e-06
-0.000277909
-0.000833778
6.29363e-08
-0.00138977
2.51116e-07
-0.00194607
5.60422e-07
-0.00250262
9.85447e-07
-0.00305972
1.51515e-06
-0.00361725
2.14047e-06
-0.00417547
2.84257e-06
-0.00473443
3.60935e-06
-0.00529408
4.41437e-06
-0.00585486
5.2416e-06
-0.00641636
6.06084e-06
-0.0069792
6.84754e-06
-0.00754305
7.57649e-06
-0.00810812
8.19784e-06
-0.0086749
8.71089e-06
-0.00924225
9.00915e-06
-0.00981267
9.16404e-06
-0.0103819
8.945e-06
-0.0109576
8.64367e-06
-0.0115275
7.6805e-06
-0.0121098
6.70634e-06
-0.0126803
4.89209e-06
-0.0132692
2.90136e-06
-0.000277972
-0.000833966
6.63743e-08
-0.00139008
2.64834e-07
-0.00194649
5.91083e-07
-0.00250315
1.03936e-06
-0.00306034
1.59814e-06
-0.00361795
2.25758e-06
-0.00417624
2.99798e-06
-0.00473524
3.80598e-06
-0.00529491
4.65383e-06
-0.00585568
5.52385e-06
-0.00641714
6.38406e-06
-0.00697993
7.20869e-06
-0.00754367
7.97009e-06
-0.00810863
8.61938e-06
-0.0086752
9.15175e-06
-0.00924241
9.46575e-06
-0.00981245
9.62315e-06
-0.0103816
9.40655e-06
-0.0109567
9.06334e-06
-0.0115265
8.05561e-06
-0.012108
7.01157e-06
-0.0126783
5.05157e-06
-0.0132663
3.02759e-06
-0.000278039
-0.000834165
6.97747e-08
-0.00139041
2.78396e-07
-0.00194694
6.21375e-07
-0.00250371
1.09261e-06
-0.003061
1.68007e-06
-0.00361869
2.37321e-06
-0.00417705
3.15151e-06
-0.00473608
4.00043e-06
-0.00529578
4.89094e-06
-0.00585654
5.80377e-06
-0.00641797
6.70499e-06
-0.00698069
7.56735e-06
-0.00754432
8.36039e-06
-0.00810916
9.03565e-06
-0.00867551
9.5839e-06
-0.00924257
9.90876e-06
-0.00981223
1.00647e-05
-0.0103813
9.84804e-06
-0.0109557
9.464e-06
-0.0115255
8.41791e-06
-0.0121061
7.31049e-06
-0.0126763
5.2715e-06
-0.0132633
3.16022e-06
-0.000278108
-0.000834373
7.31403e-08
-0.00139075
2.9181e-07
-0.00194741
6.51299e-07
-0.0025043
1.14512e-06
-0.0030617
1.76073e-06
-0.00361947
2.48689e-06
-0.00417789
3.3023e-06
-0.00473697
4.19138e-06
-0.00529669
5.12395e-06
-0.00585744
6.07925e-06
-0.00641883
7.02153e-06
-0.00698148
7.92191e-06
-0.007545
8.74701e-06
-0.00810971
9.44809e-06
-0.00867583
1.00111e-05
-0.00924272
1.03435e-05
-0.00981202
1.04914e-05
-0.0103809
1.02619e-05
-0.0109546
9.8437e-06
-0.0115244
8.76012e-06
-0.012104
7.59207e-06
-0.0126742
5.48993e-06
-0.0132601
3.28407e-06
-0.000278181
-0.000834592
7.6462e-08
-0.00139111
3.05036e-07
-0.00194791
6.80751e-07
-0.00250491
1.19668e-06
-0.00306242
1.83973e-06
-0.00362028
2.59796e-06
-0.00417878
3.44928e-06
-0.00473791
4.37723e-06
-0.00529765
5.35056e-06
-0.00585838
6.34732e-06
-0.00641973
7.33014e-06
-0.0069823
8.26861e-06
-0.0075457
9.12653e-06
-0.00811028
9.85454e-06
-0.00867617
1.04335e-05
-0.00924287
1.07739e-05
-0.00981179
1.09126e-05
-0.0103805
1.06664e-05
-0.0109535
1.02131e-05
-0.0115232
9.09306e-06
-0.0121019
7.8629e-06
-0.012672
5.6909e-06
-0.0132568
3.40031e-06
-0.000278258
-0.00083482
7.97144e-08
-0.00139149
3.17973e-07
-0.00194842
7.09515e-07
-0.00250555
1.24694e-06
-0.00306318
1.91655e-06
-0.00362113
2.70566e-06
-0.00417971
3.59141e-06
-0.00473888
4.55647e-06
-0.00529864
5.56869e-06
-0.00585936
6.60512e-06
-0.00642067
7.62705e-06
-0.00698316
8.60289e-06
-0.00754643
9.49392e-06
-0.00811086
1.025e-05
-0.0086765
1.08473e-05
-0.00924301
1.11978e-05
-0.00981154
1.13294e-05
-0.01038
1.10686e-05
-0.0109524
1.05759e-05
-0.011522
9.42222e-06
-0.0120998
8.13064e-06
-0.0126697
5.88601e-06
-0.0132534
3.51138e-06
-0.000278338
-0.000835058
8.28402e-08
-0.00139188
3.304e-07
-0.00194896
7.37134e-07
-0.00250622
1.29517e-06
-0.00306397
1.99017e-06
-0.00362202
2.80869e-06
-0.00418068
3.72708e-06
-0.00473989
4.72714e-06
-0.00529968
5.77586e-06
-0.00586039
6.84946e-06
-0.00642165
7.90813e-06
-0.00698405
8.91946e-06
-0.00754718
9.84269e-06
-0.00811146
1.06273e-05
-0.00867685
1.12448e-05
-0.00924315
1.16086e-05
-0.00981128
1.17371e-05
-0.0103795
1.14643e-05
-0.0109512
1.09318e-05
-0.0115207
9.75151e-06
-0.0120975
8.40099e-06
-0.0126673
6.08087e-06
-0.0132499
3.62008e-06
-0.00027842
-0.000835306
8.57629e-08
-0.00139228
3.42025e-07
-0.00194952
7.62992e-07
-0.00250692
1.34036e-06
-0.00306479
2.05921e-06
-0.00362294
2.90536e-06
-0.00418168
3.85432e-06
-0.00474094
4.88702e-06
-0.00530075
5.96952e-06
-0.00586145
7.07731e-06
-0.00642266
8.16961e-06
-0.00698497
9.21345e-06
-0.00754797
1.01665e-05
-0.00811208
1.09783e-05
-0.00867722
1.16169e-05
-0.00924328
1.19966e-05
-0.00981101
1.21271e-05
-0.010379
1.1847e-05
-0.01095
1.12789e-05
-0.0115194
1.00801e-05
-0.0120952
8.67616e-06
-0.0126648
6.28168e-06
-0.0132463
3.73011e-06
-0.000278506
-0.000835562
8.8394e-08
-0.0013927
3.52503e-07
-0.0019501
7.86351e-07
-0.00250764
1.38132e-06
-0.00306564
2.12197e-06
-0.00362388
2.99349e-06
-0.00418271
3.97055e-06
-0.00474202
5.03323e-06
-0.00530186
6.14661e-06
-0.00586254
7.28536e-06
-0.0064237
8.40773e-06
-0.00698593
9.48036e-06
-0.00754878
1.04597e-05
-0.00811272
1.12957e-05
-0.00867759
1.19538e-05
-0.00924341
1.23497e-05
-0.00981073
1.24864e-05
-0.0103784
1.22063e-05
-0.0109488
1.1617e-05
-0.0115179
1.04005e-05
-0.0120928
8.94858e-06
-0.0126623
6.48936e-06
-0.0132425
3.84369e-06
-0.000278595
-0.000835826
9.06481e-08
-0.00139314
3.61495e-07
-0.00195069
8.0647e-07
-0.00250838
1.41675e-06
-0.00306651
2.17656e-06
-0.00362486
3.07055e-06
-0.00418377
4.07271e-06
-0.00474313
5.16226e-06
-0.005303
6.30329e-06
-0.00586366
7.46958e-06
-0.00642478
8.61831e-06
-0.00698691
9.71568e-06
-0.00754961
1.07171e-05
-0.00811338
1.1573e-05
-0.00867799
1.22469e-05
-0.00924355
1.26566e-05
-0.00981045
1.27994e-05
-0.0103778
1.25231e-05
-0.0109476
1.19238e-05
-0.0115165
1.0691e-05
-0.0120904
9.19896e-06
-0.0126597
6.69399e-06
-0.0132387
3.95708e-06
-0.000278685
-0.000836097
9.2455e-08
-0.00139358
3.68721e-07
-0.0019513
8.22703e-07
-0.00250914
1.44551e-06
-0.0030674
2.22116e-06
-0.00362586
3.13399e-06
-0.00418486
4.15744e-06
-0.00474427
5.27004e-06
-0.00530417
6.43493e-06
-0.00586481
7.62501e-06
-0.00642587
8.79624e-06
-0.00698791
9.91423e-06
-0.00755047
1.09332e-05
-0.00811406
1.18042e-05
-0.00867839
1.24895e-05
-0.0092437
1.29085e-05
-0.00981018
1.30543e-05
-0.0103773
1.27798e-05
-0.0109464
1.21698e-05
-0.011515
1.09279e-05
-0.0120879
9.40204e-06
-0.012657
6.86939e-06
-0.0132347
4.05358e-06
-0.000278778
-0.000836373
9.37674e-08
-0.00139404
3.73981e-07
-0.00195193
8.34571e-07
-0.00250991
1.46666e-06
-0.00306831
2.25421e-06
-0.00362689
3.18142e-06
-0.00418598
4.22139e-06
-0.00474544
5.35223e-06
-0.00530536
6.5363e-06
-0.00586598
7.74572e-06
-0.00642699
8.93518e-06
-0.00698893
1.00696e-05
-0.00755134
1.11019e-05
-0.00811475
1.19833e-05
-0.00867881
1.26747e-05
-0.00924385
1.30979e-05
-0.0098099
1.32425e-05
-0.0103766
1.29666e-05
-0.0109451
1.23441e-05
-0.0115135
1.1096e-05
-0.0120854
9.53062e-06
-0.0126542
6.97122e-06
-0.0132306
4.09969e-06
-0.000278871
-0.000836653
9.4574e-08
-0.0013945
3.7722e-07
-0.00195256
8.41909e-07
-0.0025107
1.47983e-06
-0.00306924
2.27495e-06
-0.00362793
3.21151e-06
-0.00418711
4.26244e-06
-0.00474662
5.40581e-06
-0.00530657
6.60336e-06
-0.00586717
7.82697e-06
-0.00642813
9.02983e-06
-0.00698996
1.01767e-05
-0.00755222
1.1218e-05
-0.00811544
1.21063e-05
-0.00867923
1.27993e-05
-0.00924399
1.32225e-05
-0.00980963
1.33604e-05
-0.010376
1.30797e-05
-0.0109439
1.24432e-05
-0.0115119
1.11906e-05
-0.0120828
9.57466e-06
-0.0126513
6.96134e-06
-0.0132265
4.0703e-06
-0.000278966
-0.000836936
9.52556e-08
-0.00139496
3.79952e-07
-0.0019532
8.4809e-07
-0.0025115
1.49092e-06
-0.00307018
2.29243e-06
-0.00362898
3.23701e-06
-0.00418825
4.29759e-06
-0.00474782
5.45242e-06
-0.00530779
6.66309e-06
-0.00586837
7.90146e-06
-0.00642927
9.11991e-06
-0.006991
1.02827e-05
-0.00755311
1.13388e-05
-0.00811613
1.22404e-05
-0.00867965
1.29429e-05
-0.00924414
1.33734e-05
-0.00980935
1.35133e-05
-0.0103754
1.32353e-05
-0.0109426
1.25935e-05
-0.0115103
1.13427e-05
-0.0120802
9.69553e-06
-0.0126484
7.05012e-06
-0.0132224
4.17049e-06
-0.000279061
-0.000837221
9.55447e-08
-0.00139543
3.81109e-07
-0.00195384
8.50708e-07
-0.0025123
1.49564e-06
-0.00307112
2.29991e-06
-0.00363004
3.24805e-06
-0.0041894
4.31312e-06
-0.00474903
5.47372e-06
-0.00530903
6.69169e-06
-0.00586959
7.93917e-06
-0.00643044
9.16846e-06
-0.00699206
1.03435e-05
-0.00755401
1.14127e-05
-0.00811684
1.23269e-05
-0.00868008
1.30403e-05
-0.00924428
1.34791e-05
-0.00980907
1.36229e-05
-0.0103748
1.33478e-05
-0.0109413
1.27013e-05
-0.0115086
1.145e-05
-0.0120776
9.79009e-06
-0.0126455
7.13838e-06
-0.0132183
4.33794e-06
-0.000279157
-0.000837507
9.5331e-08
-0.0013959
3.80253e-07
-0.00195448
8.48794e-07
-0.0025131
1.4923e-06
-0.00307207
2.29477e-06
-0.0036311
3.24089e-06
-0.00419056
4.30387e-06
-0.00475025
5.46275e-06
-0.00531028
6.67976e-06
-0.00587082
7.92775e-06
-0.00643161
9.15939e-06
-0.00699313
1.03391e-05
-0.00755493
1.1415e-05
-0.00811755
1.23375e-05
-0.00868051
1.30595e-05
-0.00924442
1.35055e-05
-0.0098088
1.36528e-05
-0.0103741
1.33796e-05
-0.0109401
1.27268e-05
-0.011507
1.14759e-05
-0.0120749
9.81046e-06
-0.0126425
7.15678e-06
-0.0132141
3.96787e-06
-0.000279252
-0.000837792
9.46512e-08
-0.00139637
3.77541e-07
-0.00195513
8.42734e-07
-0.0025139
1.48165e-06
-0.00307302
2.27832e-06
-0.00363216
3.21761e-06
-0.00419172
4.27282e-06
-0.00475146
5.42349e-06
-0.00531153
6.63222e-06
-0.00587206
7.8728e-06
-0.00643279
9.09854e-06
-0.00699421
1.02749e-05
-0.00755585
1.13507e-05
-0.00811827
1.22765e-05
-0.00868096
1.30046e-05
-0.00924457
1.34583e-05
-0.00980852
1.36119e-05
-0.0103735
1.33433e-05
-0.0109388
1.26863e-05
-0.0115053
1.14321e-05
-0.0120723
9.75414e-06
-0.0126397
7.14107e-06
-0.0132098
3.94327e-06
-0.000279347
-0.000838075
9.35315e-08
-0.00139684
3.73085e-07
-0.00195577
8.32813e-07
-0.0025147
1.46429e-06
-0.00307396
2.25163e-06
-0.00363322
3.17996e-06
-0.00419287
4.2227e-06
-0.00475267
5.35986e-06
-0.00531277
6.55433e-06
-0.00587328
7.78082e-06
-0.00643397
8.99338e-06
-0.00699529
1.01588e-05
-0.00755677
1.1227e-05
-0.008119
1.21499e-05
-0.00868141
1.28801e-05
-0.00924473
1.3341e-05
-0.00980825
1.35047e-05
-0.0103728
1.32479e-05
-0.0109375
1.25966e-05
-0.0115036
1.13455e-05
-0.0120697
9.64563e-06
-0.0126368
7.09192e-06
-0.0132055
4.19761e-06
-0.000279441
-0.000838355
9.19989e-08
-0.0013973
3.66996e-07
-0.0019564
8.19294e-07
-0.00251549
1.44071e-06
-0.00307488
2.21558e-06
-0.00363426
3.12938e-06
-0.00419401
4.15578e-06
-0.00475387
5.27525e-06
-0.00531399
6.45093e-06
-0.0058745
7.65833e-06
-0.00643514
8.85207e-06
-0.00699635
1.00003e-05
-0.00755769
1.10538e-05
-0.00811973
1.19668e-05
-0.00868187
1.26931e-05
-0.00924489
1.31575e-05
-0.00980799
1.33325e-05
-0.0103722
1.3094e-05
-0.0109363
1.2463e-05
-0.0115019
1.12346e-05
-0.0120671
9.5436e-06
-0.0126339
7.01575e-06
-0.0132014
4.16656e-06
-0.000279533
-0.00083863
9.0093e-08
-0.00139775
3.59429e-07
-0.00195702
8.02512e-07
-0.00251626
1.4115e-06
-0.0030758
2.17106e-06
-0.00363529
3.0672e-06
-0.00419513
4.07399e-06
-0.00475504
5.17245e-06
-0.0053152
6.32601e-06
-0.00587569
7.51093e-06
-0.00643629
8.68217e-06
-0.00699741
9.80894e-06
-0.00755861
1.08427e-05
-0.00812045
1.17397e-05
-0.00868233
1.24549e-05
-0.00924507
1.29167e-05
-0.00980775
1.30991e-05
-0.0103716
1.28798e-05
-0.010935
1.22778e-05
-0.0115002
1.10883e-05
-0.0120646
9.43354e-06
-0.012631
6.93653e-06
-0.0131972
4.12057e-06
-0.000279623
-0.000838899
8.78722e-08
-0.00139819
3.50611e-07
-0.00195763
7.82944e-07
-0.00251702
1.37743e-06
-0.00307669
2.1192e-06
-0.00363629
2.9949e-06
-0.00419623
3.97916e-06
-0.00475619
5.0538e-06
-0.00531639
6.18267e-06
-0.00587686
7.34285e-06
-0.00643741
8.48959e-06
-0.00699844
9.59283e-06
-0.0075595
1.06041e-05
-0.00812117
1.14813e-05
-0.00868279
1.21802e-05
-0.00924525
1.26328e-05
-0.00980752
1.28154e-05
-0.010371
1.26098e-05
-0.0109339
1.20373e-05
-0.0114986
1.08943e-05
-0.0120621
9.2903e-06
-0.0126282
6.85563e-06
-0.0131931
4.06641e-06
-0.000279711
-0.000839162
8.54111e-08
-0.00139862
3.40829e-07
-0.00195822
7.61204e-07
-0.00251776
1.33951e-06
-0.00307757
2.06139e-06
-0.00363728
2.91424e-06
-0.0041973
3.87339e-06
-0.00475732
4.92161e-06
-0.00531755
6.0235e-06
-0.00587801
7.15711e-06
-0.00643852
8.27818e-06
-0.00699945
9.35729e-06
-0.00756038
1.03458e-05
-0.00812186
1.12025e-05
-0.00868325
1.1883e-05
-0.00924543
1.23224e-05
-0.00980732
1.24982e-05
-0.0103704
1.2298e-05
-0.0109327
1.17473e-05
-0.011497
1.06484e-05
-0.0120597
9.10797e-06
-0.0126254
6.77354e-06
-0.013189
4.00655e-06
-0.000279796
-0.000839418
8.27918e-08
-0.00139904
3.30405e-07
-0.0019588
7.37986e-07
-0.00251849
1.2989e-06
-0.00307842
1.99929e-06
-0.00363824
2.82734e-06
-0.00419835
3.75914e-06
-0.00475843
4.77854e-06
-0.00531868
5.85112e-06
-0.00587913
6.9562e-06
-0.0064396
8.05035e-06
-0.00700044
9.10499e-06
-0.00756123
1.00714e-05
-0.00812254
1.09091e-05
-0.00868369
1.15729e-05
-0.00924561
1.19996e-05
-0.00980712
1.21662e-05
-0.0103698
1.19648e-05
-0.0109316
1.14239e-05
-0.0114954
1.03547e-05
-0.0120573
8.87373e-06
-0.0126226
6.64639e-06
-0.013185
3.92963e-06
-0.000279879
-0.000839666
8.009e-08
-0.00139945
3.19638e-07
-0.00195936
7.13947e-07
-0.00251919
1.25672e-06
-0.00307925
1.93458e-06
-0.00363917
2.73643e-06
-0.00419937
3.63911e-06
-0.0047595
4.62759e-06
-0.00531979
5.6685e-06
-0.00588022
6.74276e-06
-0.00644065
7.80808e-06
-0.00700141
8.83708e-06
-0.00756207
9.78146e-06
-0.00812321
1.06018e-05
-0.00868411
1.12524e-05
-0.00924577
1.16707e-05
-0.00980692
1.18321e-05
-0.0103693
1.16304e-05
-0.0109306
1.10937e-05
-0.011494
1.00397e-05
-0.0120551
8.59058e-06
-0.0126199
6.41826e-06
-0.0131811
3.81917e-06
-0.000279959
-0.000839905
7.73626e-08
-0.00139985
3.08755e-07
-0.0019599
6.89601e-07
-0.00251986
1.21389e-06
-0.00308005
1.86866e-06
-0.00364007
2.64347e-06
-0.00420036
3.51581e-06
-0.00476054
4.47172e-06
-0.00532086
5.47888e-06
-0.00588129
6.51983e-06
-0.00644168
7.55371e-06
-0.00700235
8.5546e-06
-0.00756289
9.47534e-06
-0.00812386
1.02781e-05
-0.00868453
1.09179e-05
-0.00924593
1.13325e-05
-0.00980673
1.14963e-05
-0.0103688
1.1302e-05
-0.0109295
1.07758e-05
-0.0114925
9.73738e-06
-0.0120529
8.31158e-06
-0.0126173
6.18564e-06
-0.0131773
3.67577e-06
-0.000280037
-0.000840137
7.46396e-08
-0.00140023
2.9788e-07
-0.00196043
6.65239e-07
-0.00252052
1.17096e-06
-0.00308082
1.80242e-06
-0.00364095
2.54977e-06
-0.00420131
3.39108e-06
-0.00476155
4.3133e-06
-0.0053219
5.28506e-06
-0.00588232
6.29044e-06
-0.00644268
7.28996e-06
-0.00700327
8.25933e-06
-0.00756369
9.15291e-06
-0.00812449
9.93535e-06
-0.00868494
1.05631e-05
-0.0092461
1.09755e-05
-0.00980654
1.11476e-05
-0.0103682
1.09695e-05
-0.0109285
1.04677e-05
-0.0114911
9.45495e-06
-0.0120508
8.05662e-06
-0.0126148
5.96865e-06
-0.0131736
3.4896e-06
-0.000280111
-0.00084036
7.19189e-08
-0.00140059
2.87009e-07
-0.00196093
6.4087e-07
-0.00252115
1.12797e-06
-0.00308157
1.736e-06
-0.00364179
2.45566e-06
-0.00420223
3.26549e-06
-0.00476252
4.15324e-06
-0.00532291
5.08842e-06
-0.00588332
6.05635e-06
-0.00644365
7.01878e-06
-0.00700417
7.95297e-06
-0.00756448
8.81491e-06
-0.00812512
9.57198e-06
-0.00868535
1.0183e-05
-0.00924627
1.05894e-05
-0.00980637
1.07698e-05
-0.0103677
1.06115e-05
-0.0109275
1.01481e-05
-0.0114897
9.17788e-06
-0.0120487
7.83421e-06
-0.0126123
5.78892e-06
-0.0131701
3.31586e-06
-0.000280183
-0.000840575
6.91769e-08
-0.00140095
2.76054e-07
-0.00196142
6.16307e-07
-0.00252176
1.08461e-06
-0.00308229
1.66898e-06
-0.0036426
2.36059e-06
-0.00420312
3.13846e-06
-0.00476346
3.99105e-06
-0.00532388
4.88866e-06
-0.00588428
5.81759e-06
-0.00644458
6.74065e-06
-0.00700503
7.63636e-06
-0.00756524
8.46237e-06
-0.00812573
9.1883e-06
-0.00868576
9.77553e-06
-0.00924645
1.01678e-05
-0.00980622
1.03494e-05
-0.0103672
1.02053e-05
-0.0109265
9.78354e-06
-0.0114883
8.86441e-06
-0.0120467
7.60668e-06
-0.0126098
5.64402e-06
-0.0131668
3.29106e-06
-0.000280253
-0.000840782
6.63637e-08
-0.00140129
2.64818e-07
-0.00196189
5.91121e-07
-0.00252234
1.04014e-06
-0.00308298
1.6002e-06
-0.00364338
2.26298e-06
-0.00420397
3.00798e-06
-0.00476436
3.82428e-06
-0.0053248
4.68302e-06
-0.00588521
5.57123e-06
-0.00644548
6.45279e-06
-0.00700585
7.30707e-06
-0.00756596
8.09356e-06
-0.00812632
8.78306e-06
-0.00868614
9.33938e-06
-0.00924663
9.70773e-06
-0.00980608
9.87947e-06
-0.0103668
9.73672e-06
-0.0109256
9.34642e-06
-0.0114871
8.46945e-06
-0.0120447
7.30249e-06
-0.0126075
5.43386e-06
-0.0131635
3.22527e-06
-0.000280319
-0.00084098
6.34118e-08
-0.00140162
2.53024e-07
-0.00196234
5.64683e-07
-0.0025229
9.9344e-07
-0.00308364
1.52795e-06
-0.00364412
2.1604e-06
-0.00420479
2.87076e-06
-0.00476522
3.64886e-06
-0.00532569
4.46643e-06
-0.00588609
5.31159e-06
-0.00644633
6.14861e-06
-0.00700664
6.95881e-06
-0.00756665
7.70169e-06
-0.00812688
8.35132e-06
-0.00868651
8.86896e-06
-0.0092468
9.2068e-06
-0.00980594
9.35423e-06
-0.0103664
9.20294e-06
-0.0109247
8.82104e-06
-0.0114859
7.97521e-06
-0.0120428
6.87486e-06
-0.0126053
5.10174e-06
-0.0131603
3.04191e-06
-0.000280382
-0.00084117
6.05774e-08
-0.00140193
2.41687e-07
-0.00196276
5.39282e-07
-0.00252344
9.48597e-07
-0.00308428
1.45861e-06
-0.00364483
2.06204e-06
-0.00420557
2.73937e-06
-0.00476604
3.48127e-06
-0.00532654
4.25986e-06
-0.00588692
5.06473e-06
-0.00644714
5.86001e-06
-0.00700738
6.63014e-06
-0.0075673
7.33325e-06
-0.0081274
7.94849e-06
-0.00868684
8.43046e-06
-0.00924695
8.74305e-06
-0.00980579
8.86587e-06
-0.010366
8.71008e-06
-0.0109238
8.32545e-06
-0.0114848
7.51046e-06
-0.0120411
6.4517e-06
-0.0126032
4.76311e-06
-0.0131573
2.81401e-06
-0.000280443
-0.000841351
5.8072e-08
-0.00140223
2.31677e-07
-0.00196317
5.16879e-07
-0.00252395
9.09098e-07
-0.00308488
1.39765e-06
-0.00364551
1.9758e-06
-0.00420631
2.62466e-06
-0.00476682
3.33559e-06
-0.00532734
4.08153e-06
-0.00588772
4.85269e-06
-0.00644791
5.61469e-06
-0.00700808
6.35286e-06
-0.00756791
7.02817e-06
-0.00812789
7.61866e-06
-0.00868716
8.08086e-06
-0.00924708
8.37777e-06
-0.00980563
8.49757e-06
-0.0103657
8.34507e-06
-0.010923
7.97836e-06
-0.0114838
7.19222e-06
-0.0120394
6.19314e-06
-0.0126013
4.56293e-06
-0.0131544
2.7367e-06
-0.000280501
-0.000841524
5.53655e-08
-0.00140251
2.20864e-07
-0.00196357
4.92691e-07
-0.00252444
8.66449e-07
-0.00308546
1.33184e-06
-0.00364616
1.88269e-06
-0.00420702
2.50084e-06
-0.00476756
3.17832e-06
-0.00532811
3.88894e-06
-0.00588848
4.62345e-06
-0.00644865
5.34925e-06
-0.00700876
6.05244e-06
-0.0075685
6.69764e-06
-0.00812835
7.26083e-06
-0.00868746
7.70181e-06
-0.0092472
7.98159e-06
-0.00980546
8.10126e-06
-0.0103653
7.95405e-06
-0.0109222
7.60606e-06
-0.0114828
6.84628e-06
-0.0120378
5.8945e-06
-0.0125994
4.31363e-06
-0.0131517
2.65552e-06
-0.000280556
-0.000841689
5.24301e-08
-0.00140278
2.09138e-07
-0.00196394
4.66474e-07
-0.0025249
8.20244e-07
-0.00308601
1.26056e-06
-0.00364678
1.78192e-06
-0.0042077
2.36694e-06
-0.00476828
3.00836e-06
-0.00532885
3.68081e-06
-0.0058892
4.37563e-06
-0.00644935
5.06215e-06
-0.0070094
5.7273e-06
-0.00756906
6.33967e-06
-0.0081288
6.87273e-06
-0.00868774
7.29007e-06
-0.00924731
7.55088e-06
-0.0098053
7.67256e-06
-0.010365
7.53492e-06
-0.0109215
7.21341e-06
-0.0114818
6.48508e-06
-0.0120362
5.57079e-06
-0.0125977
4.02031e-06
-0.0131491
2.45818e-06
-0.000280609
-0.000841846
4.92413e-08
-0.00140304
1.96402e-07
-0.00196429
4.38024e-07
-0.00252535
7.70137e-07
-0.00308653
1.18334e-06
-0.00364737
1.67287e-06
-0.00420834
2.22222e-06
-0.00476895
2.82484e-06
-0.00532954
3.45628e-06
-0.00588989
4.10829e-06
-0.00645001
4.75261e-06
-0.00701001
5.37666e-06
-0.00756958
5.95378e-06
-0.00812922
6.45375e-06
-0.00868802
6.84539e-06
-0.00924743
7.08427e-06
-0.00980515
7.20791e-06
-0.0103647
7.08014e-06
-0.0109207
6.79446e-06
-0.0114809
6.10379e-06
-0.0120346
5.27635e-06
-0.0125962
4.02458e-06
-0.0131466
2.31206e-06
-0.000280658
-0.000841993
4.57778e-08
-0.00140328
1.82574e-07
-0.00196463
4.0715e-07
-0.00252576
7.15812e-07
-0.00308702
1.0997e-06
-0.00364792
1.5549e-06
-0.00420894
2.06585e-06
-0.00476958
2.62679e-06
-0.00533019
3.21426e-06
-0.00589053
3.82027e-06
-0.00645064
4.41955e-06
-0.00701058
4.99946e-06
-0.00757008
5.53914e-06
-0.00812962
6.00333e-06
-0.00868827
6.36846e-06
-0.00924754
6.58333e-06
-0.00980501
6.70821e-06
-0.0103644
6.5859e-06
-0.0109201
6.33134e-06
-0.01148
5.66702e-06
-0.0120331
4.96576e-06
-0.0125948
3.62803e-06
-0.0131443
2.16145e-06
-0.000280704
-0.00084213
4.20298e-08
-0.00140351
1.67606e-07
-0.00196494
3.7374e-07
-0.00252615
6.57042e-07
-0.00308748
1.00928e-06
-0.00364843
1.42748e-06
-0.0042095
1.89712e-06
-0.00477017
2.41328e-06
-0.0053308
2.95371e-06
-0.00589113
3.51042e-06
-0.00645122
4.06192e-06
-0.00701111
4.59447e-06
-0.00757053
5.0946e-06
-0.00813
5.52005e-06
-0.00868851
5.85908e-06
-0.00924766
6.04947e-06
-0.00980489
6.17853e-06
-0.0103641
6.05682e-06
-0.0109194
5.82468e-06
-0.0114793
5.16423e-06
-0.0120317
4.60261e-06
-0.0125933
3.32807e-06
-0.0131421
1.98417e-06
-0.000280746
-0.000842255
3.80073e-08
-0.00140371
1.51519e-07
-0.00196522
3.37793e-07
-0.0025265
5.93791e-07
-0.00308789
9.11971e-07
-0.0036489
1.29042e-06
-0.00421002
1.71564e-06
-0.00477071
2.18373e-06
-0.00533136
2.6739e-06
-0.00589169
3.17784e-06
-0.00645175
3.67898e-06
-0.0070116
4.16076e-06
-0.00757096
4.61937e-06
-0.00813034
5.00231e-06
-0.00868871
5.31632e-06
-0.00924777
5.4813e-06
-0.00980478
5.61955e-06
-0.0103639
5.49175e-06
-0.0109187
5.33449e-06
-0.0114788
5.00613e-06
-0.0120305
4.09536e-06
-0.012592
3.02524e-06
-0.0131401
1.7952e-06
-0.000280783
-0.000842368
3.37362e-08
-0.0014039
1.34386e-07
-0.00196548
2.99436e-07
-0.00252682
5.26237e-07
-0.00308827
8.07951e-07
-0.00364932
1.1439e-06
-0.00421048
1.52161e-06
-0.0047712
1.93816e-06
-0.00533186
2.37473e-06
-0.00589219
2.82207e-06
-0.00645223
3.27049e-06
-0.00701205
3.6979e-06
-0.00757134
4.11385e-06
-0.00813067
4.44924e-06
-0.00868889
4.74182e-06
-0.0092479
4.87791e-06
-0.00980466
5.02785e-06
-0.0103637
4.87043e-06
-0.0109181
4.81869e-06
-0.0114782
4.34313e-06
-0.0120294
3.66609e-06
-0.0125907
2.72939e-06
-0.0131383
1.61688e-06
-0.000280817
-0.000842469
2.92326e-08
-0.00140407
1.16276e-07
-0.0019657
2.58824e-07
-0.0025271
4.54689e-07
-0.00308861
6.97659e-07
-0.0036497
9.88583e-07
-0.0042109
1.3159e-06
-0.00477164
1.67756e-06
-0.00533231
2.05717e-06
-0.00589264
2.44363e-06
-0.00645265
2.8374e-06
-0.00701246
3.20591e-06
-0.00757167
3.58024e-06
-0.00813097
3.86001e-06
-0.00868902
4.14206e-06
-0.00924804
4.2407e-06
-0.00980446
4.43021e-06
-0.0103637
4.57817e-06
-0.0109175
4.14608e-06
-0.0114776
3.75596e-06
-0.0120285
3.20387e-06
-0.0125896
2.39839e-06
-0.0131367
1.4203e-06
-0.000280846
-0.000842555
2.44604e-08
-0.00140421
9.71885e-08
-0.0019659
2.16104e-07
-0.00252735
3.79568e-07
-0.0030889
5.81904e-07
-0.00365003
8.256e-07
-0.00421126