/*--------------------------------*- C++ -*----------------------------------*\
  =========                 |
  \\      /  F ield         | OpenFOAM: The Open Source CFD Toolbox
   \\    /   O peration     | Website:  https://openfoam.org
    \\  /    A nd           | Version:  10
     \\/     M anipulation  |
\*---------------------------------------------------------------------------*/
FoamFile
{
    format      ascii;
    class       volScalarField;
    location    "0.3";
    object      rho;
}
// * * * * * * * * * * * * * * * * * * * * * * * * * * * * * * * * * * * * * //

dimensions      [1 -3 0 0 0 0 0];

internalField   nonuniform List<scalar> 
4176
(
0.0308487
0.0308517
0.0308579
0.0308683
0.0308814
0.0308978
0.0309187
0.0309401
0.0309693
0.0309956
0.0310323
0.0310647
0.0311069
0.0311475
0.0311923
0.0312441
0.031287
0.0313548
0.0313933
0.0314791
0.0315107
0.0316161
0.0316363
0.0317504
0.0308567
0.0308596
0.0308648
0.0308748
0.0308858
0.0309016
0.0309192
0.0309399
0.0309649
0.0309899
0.031022
0.0310523
0.03109
0.031127
0.0311679
0.0312143
0.0312541
0.0313143
0.03135
0.0314268
0.0314538
0.0315541
0.0315748
0.0317037
0.030876
0.0308789
0.0308844
0.0308946
0.0309062
0.0309224
0.030941
0.0309621
0.0309884
0.031014
0.0310478
0.0310787
0.0311183
0.0311562
0.0311994
0.0312469
0.031289
0.0313519
0.0313877
0.0314682
0.0314955
0.0315945
0.0316133
0.0317344
0.0309047
0.0309076
0.0309129
0.0309229
0.0309341
0.0309498
0.0309679
0.0309884
0.0310142
0.0310387
0.031072
0.0311016
0.0311408
0.031177
0.0312199
0.0312656
0.0313074
0.0313702
0.0314015
0.0314843
0.0315093
0.0316068
0.0316246
0.0317367
0.0309441
0.030947
0.0309523
0.0309624
0.0309735
0.0309893
0.0310073
0.031028
0.0310534
0.0310784
0.0311113
0.0311412
0.0311801
0.0312165
0.0312595
0.0313046
0.0313483
0.0314081
0.031443
0.0315237
0.0315504
0.0316474
0.0316667
0.0317804
0.0309936
0.0309965
0.0310017
0.0310116
0.0310225
0.0310383
0.0310558
0.0310764
0.0311013
0.0311261
0.0311584
0.0311881
0.0312263
0.0312623
0.0313048
0.0313489
0.0313931
0.0314499
0.0314881
0.031565
0.0315924
0.0316883
0.0317084
0.0318236
0.0310535
0.0310564
0.0310615
0.0310714
0.0310822
0.0310978
0.0311152
0.0311356
0.0311603
0.0311849
0.0312168
0.0312463
0.0312843
0.0313198
0.0313622
0.0314055
0.0314499
0.0315051
0.0315442
0.0316191
0.0316478
0.0317422
0.0317625
0.0318757
0.0311237
0.0311265
0.0311316
0.0311414
0.031152
0.0311675
0.0311846
0.0312048
0.0312291
0.0312534
0.031285
0.031314
0.0313516
0.0313865
0.0314286
0.0314711
0.0315155
0.0315688
0.0316091
0.0316814
0.0317111
0.031804
0.0318248
0.0319367
0.0312042
0.031207
0.031212
0.0312217
0.0312322
0.0312476
0.0312644
0.0312844
0.0313084
0.0313324
0.0313636
0.0313922
0.0314294
0.0314637
0.0315055
0.0315471
0.0315915
0.0316432
0.0316842
0.0317542
0.0317848
0.0318759
0.031897
0.0320072
0.031295
0.0312978
0.0313027
0.0313124
0.0313227
0.0313379
0.0313545
0.0313742
0.0313979
0.0314216
0.0314523
0.0314805
0.0315172
0.0315509
0.0315924
0.031633
0.0316773
0.0317274
0.031769
0.0318366
0.0318685
0.0319567
0.0319786
0.0320869
0.0313963
0.0313991
0.0314039
0.0314135
0.0314235
0.0314386
0.0314549
0.0314745
0.0314977
0.0315211
0.0315514
0.0315791
0.0316153
0.0316484
0.0316894
0.0317291
0.0317732
0.0318217
0.0318639
0.0319291
0.0319619
0.0320473
0.0320698
0.0321762
0.031508
0.0315108
0.0315155
0.031525
0.0315349
0.0315498
0.0315657
0.031585
0.0316079
0.0316309
0.0316607
0.0316879
0.0317237
0.031756
0.0317965
0.0318352
0.031879
0.0319261
0.0319687
0.0320315
0.0320647
0.0321481
0.0321706
0.0322749
0.0316303
0.0316331
0.0316377
0.0316471
0.0316567
0.0316714
0.0316871
0.0317061
0.0317286
0.0317511
0.0317805
0.0318071
0.0318423
0.031874
0.0319139
0.0319516
0.031995
0.0320407
0.0320834
0.0321438
0.0321777
0.0322585
0.0322811
0.0323832
0.0317632
0.031766
0.0317705
0.0317797
0.0317891
0.0318036
0.0318189
0.0318376
0.0318597
0.0318818
0.0319106
0.0319367
0.0319713
0.0320023
0.0320416
0.0320783
0.0321212
0.0321653
0.0322082
0.0322663
0.0323008
0.0323788
0.0324015
0.0325013
0.0319068
0.0319096
0.0319139
0.0319231
0.0319322
0.0319465
0.0319614
0.0319798
0.0320014
0.032023
0.0320513
0.0320768
0.0321108
0.0321409
0.0321797
0.0322152
0.0322576
0.0323003
0.0323431
0.0323987
0.0324337
0.0325092
0.0325318
0.0326291
0.0320612
0.0320639
0.0320682
0.0320772
0.0320861
0.0321001
0.0321147
0.0321326
0.0321537
0.0321748
0.0322025
0.0322273
0.0322607
0.03229
0.0323281
0.0323626
0.0324044
0.0324455
0.0324881
0.0325413
0.0325768
0.0326492
0.0326723
0.0327668
0.0322265
0.0322292
0.0322333
0.0322422
0.0322508
0.0322645
0.0322787
0.0322962
0.0323168
0.0323374
0.0323644
0.0323885
0.0324211
0.0324496
0.0324869
0.0325203
0.0325615
0.0326011
0.0326434
0.0326942
0.03273
0.0327995
0.0328229
0.0329145
0.0324028
0.0324054
0.0324094
0.0324181
0.0324265
0.0324399
0.0324536
0.0324707
0.0324907
0.0325107
0.032537
0.0325604
0.0325923
0.0326198
0.0326564
0.0326885
0.032729
0.0327671
0.0328089
0.0328573
0.0328934
0.03296
0.0329837
0.0330723
0.0325902
0.0325928
0.0325966
0.0326052
0.0326132
0.0326263
0.0326396
0.0326562
0.0326756
0.032695
0.0327206
0.0327432
0.0327742
0.0328007
0.0328364
0.0328674
0.032907
0.0329435
0.0329849
0.0330308
0.0330672
0.0331306
0.0331547
0.0332401
0.0327887
0.0327913
0.032795
0.0328033
0.0328111
0.0328238
0.0328366
0.0328528
0.0328715
0.0328902
0.0329151
0.0329368
0.0329669
0.0329924
0.0330272
0.0330569
0.0330957
0.0331306
0.0331713
0.0332149
0.0332512
0.0333117
0.0333361
0.0334182
0.0329986
0.0330011
0.0330047
0.0330128
0.0330202
0.0330326
0.0330448
0.0330605
0.0330786
0.0330966
0.0331206
0.0331415
0.0331707
0.0331951
0.0332289
0.0332572
0.033295
0.0333283
0.0333682
0.0334095
0.033446
0.0335031
0.0335279
0.0336066
0.0332199
0.0332224
0.0332257
0.0332337
0.0332407
0.0332527
0.0332644
0.0332795
0.0332968
0.0333141
0.0333373
0.0333573
0.0333855
0.0334088
0.0334416
0.0334685
0.0335053
0.0335368
0.0335759
0.0336149
0.0336511
0.0337052
0.0337301
0.0338053
0.0334527
0.0334551
0.0334583
0.033466
0.0334726
0.0334842
0.0334953
0.0335098
0.0335265
0.033543
0.0335653
0.0335843
0.0336115
0.0336337
0.0336654
0.0336908
0.0337265
0.0337563
0.0337944
0.033831
0.0338671
0.0339177
0.033943
0.0340145
0.0336971
0.0336995
0.0337025
0.0337099
0.0337161
0.0337273
0.0337378
0.0337517
0.0337675
0.0337832
0.0338046
0.0338226
0.0338489
0.0338698
0.0339004
0.0339243
0.0339589
0.0339868
0.0340239
0.0340582
0.0340939
0.0341412
0.0341665
0.0342342
0.0339532
0.0339555
0.0339583
0.0339655
0.0339713
0.033982
0.0339919
0.0340051
0.0340202
0.034035
0.0340555
0.0340724
0.0340976
0.0341172
0.0341467
0.0341691
0.0342025
0.0342286
0.0342646
0.0342965
0.0343318
0.0343756
0.0344008
0.0344647
0.034221
0.0342233
0.0342259
0.0342328
0.0342382
0.0342485
0.0342577
0.0342703
0.0342845
0.0342985
0.0343179
0.0343338
0.0343578
0.0343761
0.0344044
0.0344253
0.0344575
0.0344817
0.0345165
0.034546
0.0345807
0.0346211
0.0346461
0.0347063
0.0345007
0.034503
0.0345053
0.034512
0.0345169
0.0345268
0.0345354
0.0345473
0.0345606
0.0345737
0.0345921
0.0346068
0.0346297
0.0346467
0.0346737
0.034693
0.0347239
0.0347462
0.0347799
0.0348069
0.0348408
0.0348778
0.0349027
0.0349593
0.0347923
0.0347945
0.0347967
0.0348031
0.0348076
0.034817
0.0348249
0.0348361
0.0348486
0.0348608
0.0348782
0.0348917
0.0349134
0.034929
0.0349547
0.0349723
0.0350019
0.0350223
0.0350547
0.0350794
0.0351123
0.0351458
0.0351705
0.0352234
0.035096
0.0350981
0.0351001
0.0351063
0.0351103
0.0351192
0.0351265
0.035137
0.0351486
0.0351598
0.0351762
0.0351886
0.035209
0.0352231
0.0352475
0.0352634
0.0352916
0.0353101
0.0353412
0.0353634
0.0353953
0.0354252
0.03545
0.0354985
0.0354118
0.0354139
0.0354156
0.0354215
0.0354251
0.0354335
0.0354401
0.0354499
0.0354607
0.035471
0.0354862
0.0354974
0.0355166
0.0355293
0.0355523
0.0355665
0.0355933
0.0356097
0.0356394
0.0356591
0.0356901
0.0357164
0.0357414
0.0357849
0.0357398
0.0357418
0.0357433
0.035749
0.0357521
0.03576
0.0357659
0.0357751
0.0357849
0.0357943
0.0358084
0.0358185
0.0358364
0.0358477
0.0358692
0.0358817
0.035907
0.0359213
0.0359496
0.0359668
0.0359967
0.0360196
0.0360442
0.0360834
0.0360801
0.036082
0.0360834
0.0360887
0.0360914
0.0360988
0.036104
0.0361124
0.0361214
0.0361298
0.0361429
0.0361517
0.0361685
0.0361782
0.0361984
0.0362091
0.036233
0.0362451
0.0362719
0.0362865
0.0363151
0.0363349
0.0363589
0.036394
0.0364327
0.0364347
0.0364358
0.0364409
0.0364431
0.03645
0.0364545
0.0364622
0.0364703
0.0364777
0.0364897
0.0364974
0.0365128
0.0365212
0.03654
0.0365489
0.0365713
0.0365812
0.0366066
0.0366186
0.0366458
0.0366622
0.0366862
0.0367164
0.0367979
0.0367998
0.0368007
0.0368055
0.0368072
0.0368137
0.0368175
0.0368245
0.0368316
0.0368381
0.036849
0.0368555
0.0368697
0.0368766
0.036894
0.0369012
0.0369221
0.0369299
0.0369537
0.0369631
0.0369888
0.0370021
0.0370255
0.0370511
0.0371756
0.0371774
0.0371781
0.0371827
0.037184
0.0371899
0.0371931
0.0371993
0.0372056
0.0372111
0.0372209
0.0372262
0.0372391
0.0372445
0.0372606
0.037266
0.0372854
0.0372911
0.0373135
0.0373203
0.0373445
0.0373544
0.0373772
0.0373982
0.0375659
0.0375677
0.0375682
0.0375725
0.0375733
0.0375789
0.0375813
0.0375869
0.0375922
0.0375968
0.0376055
0.0376096
0.0376213
0.0376252
0.0376399
0.0376435
0.0376615
0.037665
0.0376859
0.0376901
0.0377129
0.0377197
0.0377415
0.0377576
0.037969
0.0379708
0.037971
0.0379751
0.0379755
0.0379806
0.0379824
0.0379872
0.0379917
0.0379953
0.038003
0.0380058
0.0380162
0.0380186
0.0380319
0.0380338
0.0380503
0.0380517
0.0380711
0.0380728
0.0380942
0.0380978
0.0381184
0.0381299
0.038385
0.0383867
0.0383868
0.0383906
0.0383905
0.0383951
0.0383963
0.0384005
0.0384041
0.0384068
0.0384134
0.038415
0.0384242
0.0384251
0.038437
0.038437
0.038452
0.0384513
0.0384692
0.0384683
0.0384882
0.0384888
0.0385084
0.038515
0.0388139
0.0388156
0.0388155
0.038819
0.0388186
0.0388227
0.0388232
0.0388267
0.0388295
0.0388313
0.0388368
0.0388372
0.0388452
0.0388446
0.0388551
0.0388532
0.0388668
0.0388639
0.0388802
0.0388767
0.0388953
0.0388927
0.0389114
0.0389133
0.0392559
0.0392576
0.0392573
0.0392606
0.0392597
0.0392634
0.0392633
0.0392661
0.039268
0.0392689
0.0392734
0.0392726
0.0392794
0.0392773
0.0392864
0.0392827
0.0392948
0.0392897
0.0393044
0.0392982
0.0393154
0.0393096
0.0393272
0.039325
0.0397112
0.0397128
0.0397123
0.0397154
0.0397141
0.0397173
0.0397165
0.0397187
0.0397198
0.0397197
0.0397232
0.0397213
0.0397268
0.0397233
0.0397311
0.0397255
0.0397362
0.0397288
0.039742
0.0397331
0.0397488
0.0397395
0.039756
0.0397501
0.0401798
0.0401814
0.0401807
0.0401836
0.0401818
0.0401846
0.0401832
0.0401847
0.0401848
0.0401839
0.0401863
0.0401832
0.0401876
0.0401826
0.0401891
0.0401816
0.040191
0.0401813
0.0401931
0.0401813
0.0401958
0.040183
0.0401984
0.0401881
0.040662
0.0406635
0.0406626
0.0406652
0.040663
0.0406654
0.0406632
0.0406641
0.0406634
0.0406615
0.0406629
0.0406586
0.0406618
0.0406553
0.0406605
0.0406512
0.0406592
0.0406472
0.0406578
0.040643
0.0406565
0.0406399
0.0406545
0.0406395
0.0411577
0.0411592
0.0411581
0.0411604
0.0411578
0.0411597
0.0411569
0.041157
0.0411555
0.0411527
0.041153
0.0411476
0.0411495
0.0411416
0.0411454
0.0411343
0.041141
0.0411266
0.0411361
0.0411183
0.0411309
0.0411107
0.0411244
0.0411047
0.0416671
0.0416685
0.0416672
0.0416693
0.0416662
0.0416677
0.0416642
0.0416637
0.0416613
0.0416575
0.0416568
0.0416501
0.0416508
0.0416414
0.0416439
0.041631
0.0416363
0.0416197
0.0416279
0.0416072
0.041619
0.0415951
0.0416081
0.0415841
0.0421902
0.0421916
0.0421901
0.042192
0.0421884
0.0421894
0.0421853
0.0421841
0.0421807
0.0421761
0.0421743
0.0421664
0.0421659
0.042155
0.0421562
0.0421414
0.0421453
0.0421263
0.0421334
0.0421097
0.0421207
0.0420931
0.0421057
0.0420767
0.0427271
0.0427285
0.0427268
0.0427284
0.0427244
0.042725
0.0427201
0.0427182
0.042714
0.0427084
0.0427056
0.0426965
0.0426947
0.0426823
0.0426822
0.0426655
0.0426681
0.0426466
0.0426528
0.042626
0.0426362
0.0426046
0.0426173
0.042583
0.0432779
0.0432793
0.0432774
0.0432787
0.0432743
0.0432744
0.0432688
0.0432662
0.0432611
0.0432546
0.0432507
0.0432404
0.0432374
0.0432235
0.0432221
0.0432035
0.0432048
0.0431808
0.043186
0.043156
0.0431654
0.0431296
0.0431431
0.0431034
0.0438426
0.0438439
0.0438418
0.0438429
0.043838
0.0438376
0.0438314
0.0438281
0.0438221
0.0438146
0.0438097
0.0437982
0.043794
0.0437785
0.0437758
0.0437553
0.0437554
0.043729
0.0437332
0.0437
0.0437087
0.0436683
0.0436827
0.0436379
0.044421
0.0444223
0.04442
0.0444209
0.0444155
0.0444147
0.0444077
0.0444038
0.044397
0.0443885
0.0443825
0.0443698
0.0443644
0.0443474
0.0443435
0.044321
0.04432
0.0442911
0.0442943
0.0442578
0.0442664
0.0442215
0.0442357
0.0441862
0.0450132
0.0450145
0.045012
0.0450126
0.0450068
0.0450056
0.0449979
0.0449933
0.0449856
0.0449762
0.0449692
0.0449552
0.0449488
0.0449301
0.0449252
0.0449006
0.0448987
0.0448671
0.0448696
0.044829
0.044839
0.0447886
0.0448027
0.0447488
0.0456191
0.0456203
0.0456176
0.0456181
0.0456117
0.0456101
0.0456018
0.0455966
0.0455881
0.0455777
0.0455698
0.0455545
0.0455471
0.0455267
0.0455208
0.045494
0.0454915
0.0454569
0.0454592
0.0454142
0.0454247
0.0453703
0.0453841
0.0453256
0.0462385
0.0462397
0.0462369
0.0462371
0.0462303
0.0462283
0.0462194
0.0462135
0.0462042
0.0461929
0.0461841
0.0461675
0.0461592
0.0461371
0.0461305
0.0461011
0.0460984
0.0460599
0.0460636
0.0460141
0.0460239
0.0459663
0.0459794
0.0459167
0.0468714
0.0468725
0.0468695
0.0468695
0.0468623
0.04686
0.0468504
0.0468439
0.0468339
0.0468217
0.0468121
0.0467941
0.0467852
0.0467611
0.0467542
0.0467218
0.0467196
0.0466771
0.0466812
0.0466285
0.0466371
0.0465765
0.0465889
0.0465221
0.0475175
0.0475186
0.0475154
0.0475152
0.0475076
0.047505
0.0474948
0.0474877
0.047477
0.0474638
0.0474537
0.0474341
0.047425
0.0473984
0.0473919
0.0473563
0.0473544
0.0473091
0.0473117
0.0472569
0.0472647
0.0472009
0.0472126
0.0471418
0.0481765
0.0481777
0.0481743
0.048174
0.048166
0.0481631
0.0481524
0.0481447
0.0481335
0.0481191
0.0481089
0.0480873
0.0480787
0.048049
0.0480436
0.0480047
0.0480022
0.0479551
0.0479565
0.0478996
0.0479059
0.0478396
0.0478504
0.0477758
0.0488484
0.0488497
0.0488461
0.0488457
0.0488373
0.0488342
0.0488229
0.0488146
0.0488032
0.0487873
0.0487776
0.0487535
0.0487456
0.0487135
0.0487077
0.0486672
0.0486637
0.0486147
0.0486151
0.0485562
0.0485613
0.0484922
0.0485023
0.0484241
0.0495329
0.0495343
0.0495303
0.0495302
0.0495212
0.0495181
0.0495062
0.0494971
0.049486
0.0494685
0.0494588
0.0494336
0.0494248
0.049392
0.0493847
0.0493433
0.0493386
0.0492884
0.0492871
0.0492265
0.0492306
0.049159
0.0491682
0.0490866
0.0502298
0.0502313
0.050227
0.0502271
0.0502174
0.0502145
0.0502019
0.0501928
0.0501809
0.0501631
0.0501526
0.0501268
0.050117
0.0500834
0.0500751
0.0500328
0.0500268
0.0499752
0.0499729
0.0499106
0.0499133
0.0498395
0.0498481
0.0497631
0.050939
0.0509404
0.0509361
0.050936
0.0509263
0.050923
0.0509097
0.0509013
0.050888
0.0508703
0.0508589
0.0508326
0.050822
0.0507878
0.0507785
0.0507352
0.0507283
0.0506753
0.0506721
0.050608
0.05061
0.0505338
0.0505417
0.0504536
0.05166
0.0516615
0.0516573
0.051657
0.0516472
0.0516438
0.0516301
0.0516219
0.051607
0.0515903
0.0515774
0.0515509
0.0515396
0.0515049
0.0514944
0.0514507
0.0514427
0.0513888
0.0513842
0.0513188
0.0513195
0.0512416
0.0512487
0.0511578
0.052393
0.0523945
0.0523903
0.0523899
0.05238
0.0523765
0.0523625
0.0523542
0.0523385
0.0523223
0.0523078
0.0522821
0.0522694
0.0522344
0.052223
0.0521788
0.0521696
0.0521147
0.0521096
0.0520425
0.0520425
0.0519626
0.0519691
0.0518754
0.0531377
0.0531393
0.053135
0.0531346
0.0531246
0.053121
0.0531068
0.0530985
0.0530821
0.0530662
0.0530504
0.0530254
0.0530112
0.0529761
0.0529639
0.0529192
0.0529091
0.0528536
0.0528471
0.052779
0.052778
0.0526966
0.0527022
0.0526062
0.0538941
0.0538957
0.0538914
0.053891
0.0538809
0.0538773
0.0538628
0.0538545
0.0538375
0.0538219
0.0538051
0.0537804
0.0537651
0.0537301
0.0537167
0.0536718
0.0536605
0.0536042
0.0535973
0.0535277
0.053526
0.053443
0.053448
0.0533498
0.0546621
0.0546638
0.0546595
0.0546591
0.0546488
0.0546453
0.0546305
0.0546221
0.0546047
0.0545893
0.0545716
0.0545471
0.0545305
0.0544958
0.0544815
0.0544357
0.0544239
0.0543671
0.0543589
0.0542886
0.0542859
0.0542016
0.054206
0.0541058
0.0554419
0.0554436
0.0554392
0.0554389
0.0554284
0.0554248
0.0554098
0.0554013
0.0553835
0.0553681
0.0553495
0.0553251
0.0553076
0.0552728
0.0552577
0.0552112
0.0551986
0.0551411
0.0551323
0.0550611
0.0550575
0.054972
0.0549756
0.0548737
0.0562333
0.0562352
0.0562306
0.0562304
0.0562196
0.056216
0.0562005
0.056192
0.0561736
0.0561582
0.0561387
0.0561143
0.0560959
0.0560607
0.056045
0.0559978
0.0559845
0.0559263
0.0559165
0.0558448
0.0558402
0.0557538
0.0557567
0.0556533
0.0570364
0.0570383
0.0570336
0.0570334
0.0570223
0.0570185
0.0570026
0.0569939
0.0569749
0.0569593
0.0569387
0.0569145
0.0568948
0.0568595
0.056843
0.056795
0.0567812
0.0567222
0.0567115
0.0566393
0.0566338
0.0565465
0.0565486
0.056444
0.0578509
0.0578529
0.057848
0.0578476
0.0578362
0.0578321
0.0578157
0.0578066
0.057787
0.057771
0.0577493
0.0577253
0.0577041
0.0576688
0.0576511
0.0576027
0.0575885
0.0575283
0.0575167
0.0574443
0.0574377
0.0573498
0.0573512
0.0572457
0.0586762
0.0586783
0.0586731
0.0586726
0.0586607
0.0586563
0.0586393
0.0586297
0.0586094
0.0585929
0.0585701
0.0585461
0.0585233
0.0584884
0.0584686
0.0584208
0.0584057
0.0583443
0.0583321
0.0582594
0.058252
0.0581636
0.0581642
0.058058
0.0595114
0.0595134
0.0595081
0.0595073
0.0594951
0.0594902
0.0594727
0.0594624
0.0594414
0.0594244
0.0594005
0.0593766
0.0593518
0.0593177
0.0592958
0.0592487
0.0592321
0.0591705
0.0591576
0.0590845
0.0590761
0.0589876
0.0589875
0.0588808
0.0603547
0.0603568
0.0603514
0.0603503
0.0603379
0.0603325
0.0603146
0.0603039
0.0602823
0.0602647
0.0602401
0.060216
0.0601898
0.0601563
0.0601325
0.060086
0.060067
0.0600069
0.0599933
0.0599193
0.0599106
0.0598219
0.0598211
0.0597142
0.0612042
0.0612062
0.0612009
0.0611997
0.0611873
0.0611818
0.0611638
0.0611528
0.061131
0.0611131
0.0610881
0.061064
0.0610365
0.061004
0.0609779
0.0609331
0.0609115
0.0608535
0.0608383
0.060764
0.0607549
0.0606665
0.0606653
0.0605583
0.0620576
0.0620597
0.0620546
0.0620536
0.0620414
0.0620362
0.0620184
0.0620078
0.0619861
0.0619685
0.0619436
0.0619198
0.0618919
0.0618602
0.0618326
0.0617897
0.0617663
0.061709
0.061693
0.0616194
0.0616099
0.0615216
0.0615202
0.0614135
0.0629129
0.0629152
0.0629105
0.06291
0.0628984
0.062894
0.062877
0.0628672
0.0628465
0.0628299
0.0628057
0.0627829
0.0627554
0.0627249
0.0626969
0.0626557
0.0626309
0.0625754
0.0625571
0.0624859
0.0624754
0.0623875
0.0623861
0.0622798
0.0637695
0.0637719
0.0637678
0.063768
0.0637574
0.0637542
0.0637385
0.0637303
0.0637111
0.0636961
0.0636735
0.0636525
0.0636262
0.0635977
0.0635701
0.0635312
0.0635053
0.0634526
0.0634328
0.0633633
0.0633526
0.0632647
0.0632633
0.0631575
0.064628
0.0646308
0.0646273
0.0646285
0.064619
0.0646173
0.0646032
0.0645968
0.0645796
0.0645669
0.0645464
0.0645278
0.0645037
0.0644775
0.0644518
0.0644155
0.0643904
0.0643403
0.0643208
0.0642522
0.0642415
0.0641538
0.0641525
0.0640466
0.0654919
0.0654949
0.0654919
0.0654941
0.0654857
0.0654855
0.0654729
0.0654685
0.0654534
0.0654429
0.0654249
0.065409
0.0653873
0.0653641
0.065341
0.0653075
0.0652846
0.0652375
0.0652196
0.0651529
0.0651435
0.0650556
0.0650546
0.0649477
0.0663666
0.0663702
0.0663672
0.0663705
0.0663623
0.0663635
0.0663517
0.0663491
0.0663352
0.0663269
0.0663106
0.0662972
0.0662776
0.0662572
0.0662373
0.0662056
0.0661874
0.0661414
0.066128
0.0660629
0.0660572
0.0659705
0.0659707
0.0658631
0.06726
0.0672644
0.0672605
0.0672652
0.0672557
0.0672588
0.0672454
0.0672452
0.0672298
0.0672239
0.0672072
0.0671958
0.0671772
0.0671581
0.0671424
0.0671081
0.0670997
0.0670478
0.0670454
0.0669772
0.066979
0.0668944
0.0668983
0.0667964
0.0681814
0.0681853
0.0681822
0.068185
0.0681766
0.0681769
0.0681648
0.0681614
0.0681471
0.0681386
0.0681223
0.0681098
0.0680903
0.0680732
0.0680548
0.0680235
0.0680144
0.0679654
0.0679633
0.0678978
0.0679028
0.0678203
0.0678289
0.0677347
0.0691391
0.0691427
0.0691391
0.0691408
0.0691309
0.0691296
0.0691152
0.0691096
0.0690927
0.0690814
0.0690624
0.0690471
0.069025
0.069006
0.0689828
0.0689549
0.0689381
0.0688924
0.0688888
0.0688227
0.0688297
0.0687454
0.0687573
0.0686635
0.0701395
0.0701429
0.0701384
0.0701388
0.0701268
0.0701232
0.0701057
0.0700967
0.0700759
0.0700604
0.0700367
0.0700165
0.0699893
0.0699655
0.0699364
0.0699052
0.0698816
0.0698352
0.0698261
0.0697566
0.0697637
0.0696745
0.0696888
0.0695908
0.0711861
0.0711897
0.0711837
0.0711832
0.0711687
0.0711628
0.0711416
0.0711291
0.0711032
0.0710831
0.0710531
0.0710272
0.0709927
0.070962
0.0709246
0.0708864
0.0708546
0.0708008
0.070785
0.0707072
0.0707118
0.0706137
0.0706287
0.0705224
0.0722789
0.072283
0.0722752
0.0722743
0.0722571
0.0722496
0.0722244
0.0722095
0.0721776
0.0721548
0.0721163
0.0720867
0.0720422
0.072005
0.0719582
0.0719102
0.07187
0.0718013
0.0717784
0.0716864
0.0716838
0.0715725
0.071585
0.0714648
0.0734145
0.073418
0.0734108
0.0734076
0.0733904
0.0733797
0.0733537
0.0733341
0.0733013
0.0732713
0.0732317
0.0731931
0.0731453
0.0730992
0.0730437
0.0729897
0.0729316
0.072858
0.0728179
0.072713
0.0726958
0.0725657
0.0725701
0.0724279
0.0745864
0.0745896
0.0745824
0.0745786
0.0745606
0.0745489
0.0745215
0.0745004
0.0744654
0.0744331
0.0743904
0.0743485
0.0742965
0.0742455
0.0741842
0.0741234
0.0740542
0.0739801
0.073912
0.0738092
0.0737656
0.073618
0.0736057
0.0734304
0.0757865
0.0757896
0.0757825
0.0757787
0.0757604
0.0757485
0.0757206
0.075699
0.0756634
0.0756302
0.0755865
0.0755431
0.0754896
0.0754365
0.0753728
0.0753089
0.0752356
0.0751574
0.0750787
0.074978
0.0749046
0.07476
0.0747208
0.0745078
0.0770061
0.0770093
0.0770024
0.0769989
0.0769808
0.0769693
0.0769418
0.0769206
0.0768854
0.0768526
0.0768094
0.0767665
0.0767134
0.0766607
0.0765974
0.0765338
0.0764608
0.0763827
0.0763038
0.0762045
0.0761252
0.0759888
0.0759319
0.0757072
0.0782366
0.0782402
0.0782335
0.0782305
0.078213
0.0782024
0.0781756
0.0781556
0.0781215
0.0780902
0.0780484
0.0780072
0.077956
0.0779053
0.0778443
0.0777833
0.0777128
0.077638
0.0775634
0.077466
0.0773983
0.0772603
0.0772202
0.0770227
0.0794701
0.0794739
0.0794676
0.0794654
0.0794486
0.0794393
0.0794136
0.0793952
0.0793626
0.0793333
0.0792936
0.0792549
0.0792062
0.0791586
0.0791007
0.0790434
0.0789766
0.0789064
0.0788367
0.0787448
0.0786828
0.0785527
0.0785152
0.0783323
0.0806994
0.0807036
0.0806976
0.0806963
0.0806803
0.0806724
0.080648
0.0806314
0.0806007
0.0805738
0.0805364
0.0805007
0.0804549
0.0804108
0.0803566
0.0803034
0.0802409
0.0801762
0.0801106
0.0800257
0.079968
0.0798478
0.0798127
0.0796436
0.0819184
0.081923
0.0819174
0.0819172
0.0819018
0.0818956
0.0818723
0.0818581
0.081829
0.081805
0.0817697
0.0817376
0.0816945
0.0816547
0.0816037
0.0815553
0.0814971
0.0814379
0.0813775
0.0812979
0.0812465
0.0811354
0.0811025
0.0809473
0.0831224
0.0831274
0.0831216
0.083123
0.0831078
0.0831038
0.0830812
0.0830699
0.0830417
0.0830217
0.0829875
0.0829603
0.0829186
0.0828845
0.0828357
0.0827932
0.0827386
0.0826854
0.0826295
0.0825567
0.0825092
0.0824082
0.0823776
0.082236
0.0843068
0.0843121
0.0843064
0.0843092
0.0842943
0.0842925
0.0842704
0.0842623
0.0842347
0.0842189
0.0841855
0.0841637
0.0841226
0.0840952
0.0840471
0.0840125
0.0839594
0.0839128
0.0838617
0.0837959
0.083752
0.0836609
0.0836325
0.0835043
0.0854681
0.0854736
0.0854687
0.0854714
0.0854587
0.0854567
0.0854379
0.0854297
0.0854064
0.0853907
0.0853623
0.0853413
0.0853056
0.08528
0.0852373
0.0852058
0.0851578
0.0851173
0.0850684
0.0850109
0.0849702
0.0848892
0.0848631
0.0847476
0.0866036
0.0866091
0.086605
0.0866081
0.0865966
0.0865955
0.0865787
0.0865717
0.0865512
0.0865368
0.0865124
0.0864925
0.086462
0.0864378
0.0864009
0.0863719
0.0863291
0.0862932
0.0862486
0.0861992
0.0861613
0.0860895
0.0860655
0.0859625
0.0877112
0.0877165
0.0877129
0.0877165
0.0877061
0.0877061
0.0876908
0.0876853
0.0876671
0.0876545
0.0876331
0.0876155
0.0875887
0.0875672
0.0875347
0.0875089
0.087471
0.0874397
0.0873985
0.0873575
0.0873218
0.0872588
0.0872371
0.087146
0.0887885
0.0887938
0.0887906
0.0887948
0.0887852
0.0887864
0.0887724
0.0887686
0.0887523
0.0887418
0.088723
0.0887077
0.0886843
0.0886656
0.088637
0.0886147
0.088581
0.088554
0.0885174
0.0884826
0.0884489
0.088396
0.0883758
0.0882963
0.0898342
0.0898397
0.0898368
0.0898415
0.0898327
0.089835
0.0898223
0.0898199
0.0898055
0.0897969
0.0897806
0.0897676
0.0897473
0.0897313
0.0897065
0.0896874
0.089658
0.0896352
0.0896027
0.0895737
0.089542
0.0894984
0.08948
0.0894114
0.0908473
0.0908528
0.0908502
0.0908555
0.0908475
0.0908506
0.0908392
0.0908383
0.0908255
0.0908188
0.0908048
0.090794
0.0907766
0.0907632
0.0907417
0.0907259
0.0907003
0.0906813
0.0906532
0.0906291
0.0906007
0.0905652
0.0905483
0.0904901
0.0918272
0.0918325
0.0918301
0.0918361
0.0918284
0.0918329
0.0918222
0.0918229
0.0918116
0.0918067
0.0917947
0.0917862
0.0917713
0.0917606
0.0917422
0.0917294
0.0917073
0.0916922
0.0916674
0.0916479
0.0916236
0.0915952
0.0915802
0.0915311
0.0927729
0.0927782
0.0927764
0.092782
0.0927761
0.0927801
0.0927717
0.0927727
0.0927635
0.0927598
0.0927501
0.0927434
0.0927311
0.0927227
0.0927072
0.0926973
0.0926787
0.0926666
0.092646
0.0926307
0.0926095
0.092588
0.0925742
0.0925338
0.0936845
0.0936899
0.0936874
0.0936952
0.0936873
0.0936951
0.0936847
0.0936893
0.0936797
0.0936787
0.0936701
0.0936657
0.0936554
0.0936494
0.0936366
0.0936294
0.0936138
0.0936055
0.0935876
0.0935764
0.093559
0.0935424
0.0935302
0.0934984
0.0945618
0.0945666
0.0945663
0.0945705
0.0945686
0.0945708
0.0945674
0.094568
0.0945634
0.0945613
0.0945559
0.0945524
0.0945447
0.0945406
0.0945303
0.0945255
0.0945129
0.0945071
0.0944929
0.0944854
0.094471
0.0944591
0.0944489
0.0944248
0.0954048
0.0954104
0.0954074
0.0954174
0.095408
0.0954201
0.0954084
0.0954178
0.0954085
0.0954117
0.0954054
0.0954048
0.0953983
0.0953965
0.0953884
0.095386
0.0953759
0.0953733
0.0953615
0.0953572
0.0953458
0.0953381
0.0953303
0.0953133
0.0962142
0.0962182
0.0962198
0.0962217
0.0962247
0.0962234
0.0962264
0.0962244
0.0962255
0.0962236
0.0962225
0.0962214
0.0962177
0.0962173
0.0962114
0.0962111
0.0962035
0.0962031
0.0961942
0.0961934
0.0961843
0.0961805
0.0961748
0.0961642
0.0969897
0.0969954
0.0969919
0.0970036
0.0969932
0.0970087
0.0969958
0.0970094
0.0969999
0.0970072
0.0970024
0.0970054
0.097002
0.0970037
0.0969996
0.0970012
0.0969959
0.0969981
0.0969915
0.0969932
0.096987
0.096987
0.0969834
0.0969781
0.0977329
0.0977361
0.0977393
0.0977394
0.0977458
0.0977423
0.0977501
0.0977461
0.0977521
0.09775
0.0977529
0.0977535
0.0977534
0.0977559
0.0977537
0.0977571
0.0977539
0.097758
0.0977536
0.0977584
0.0977541
0.0977575
0.0977561
0.0977555
0.098443
0.0984485
0.0984454
0.0984568
0.098448
0.0984634
0.0984523
0.098467
0.098459
0.0984686
0.0984655
0.0984712
0.0984704
0.0984752
0.0984742
0.0984793
0.0984779
0.0984841
0.0984819
0.0984885
0.0984864
0.0984933
0.098493
0.0984971
0.0991226
0.0991253
0.0991289
0.0991292
0.0991357
0.0991336
0.099142
0.0991393
0.099147
0.0991462
0.0991514
0.0991539
0.0991564
0.0991614
0.0991622
0.0991687
0.099169
0.0991768
0.0991759
0.0991856
0.0991846
0.0991943
0.0991956
0.0992036
0.0997704
0.0997752
0.0997737
0.0997826
0.099778
0.0997895
0.0997839
0.0997958
0.0997919
0.0998013
0.0998008
0.0998081
0.0998096
0.0998167
0.0998183
0.0998262
0.0998278
0.0998372
0.0998384
0.099849
0.0998499
0.0998625
0.0998644
0.0998762
0.10039
0.100392
0.100395
0.100397
0.100402
0.100403
0.100409
0.10041
0.100417
0.100419
0.100424
0.100429
0.100433
0.100441
0.100444
0.100453
0.100456
0.100466
0.100468
0.100482
0.100483
0.100498
0.100501
0.100516
0.100979
0.100983
0.100983
0.100989
0.100988
0.100996
0.100996
0.101004
0.101005
0.101013
0.101016
0.101023
0.101027
0.101035
0.101039
0.101049
0.101053
0.101065
0.101069
0.101083
0.101086
0.101103
0.101106
0.101124
0.101541
0.101543
0.101546
0.101548
0.101553
0.101555
0.10156
0.101565
0.101569
0.101575
0.10158
0.101587
0.101592
0.101601
0.101606
0.101617
0.101622
0.101635
0.101639
0.101655
0.101659
0.101678
0.101682
0.101702
0.102075
0.102079
0.102079
0.102085
0.102086
0.102092
0.102094
0.102101
0.102105
0.102112
0.102117
0.102125
0.10213
0.10214
0.102145
0.102157
0.102163
0.102177
0.102182
0.102199
0.102203
0.102224
0.102228
0.102251
0.102585
0.102587
0.10259
0.102592
0.102597
0.102599
0.102605
0.10261
0.102615
0.102622
0.102627
0.102636
0.102642
0.102652
0.102658
0.102671
0.102677
0.102692
0.102698
0.102716
0.102721
0.102743
0.102747
0.102772
0.103069
0.103072
0.103072
0.103078
0.103078
0.103086
0.103088
0.103095
0.103099
0.103107
0.103113
0.103121
0.103128
0.103139
0.103145
0.103158
0.103165
0.103181
0.103188
0.103206
0.103212
0.103235
0.10324
0.103267
0.103529
0.103531
0.103534
0.103536
0.103541
0.103544
0.103549
0.103554
0.10356
0.103567
0.103574
0.103583
0.10359
0.103601
0.103608
0.103622
0.103629
0.103645
0.103652
0.103672
0.103679
0.103702
0.103708
0.103736
0.103966
0.103968
0.10397
0.103974
0.103977
0.103982
0.103986
0.103993
0.103997
0.104006
0.104012
0.104021
0.104028
0.10404
0.104048
0.104061
0.10407
0.104086
0.104094
0.104114
0.104121
0.104146
0.104151
0.104181
0.104382
0.104384
0.104385
0.10439
0.104391
0.104398
0.104401
0.104408
0.104413
0.104421
0.104428
0.104437
0.104445
0.104457
0.104465
0.104479
0.104487
0.104505
0.104513
0.104533
0.104541
0.104566
0.104572
0.104602
0.104776
0.104778
0.104781
0.104782
0.104788
0.10479
0.104797
0.104801
0.104808
0.104816
0.104823
0.104832
0.10484
0.104852
0.10486
0.104875
0.104884
0.104901
0.10491
0.104931
0.104938
0.104964
0.104971
0.105002
0.10515
0.105153
0.105153
0.105159
0.105159
0.105168
0.105168
0.105178
0.105181
0.105191
0.105197
0.105207
0.105215
0.105227
0.105236
0.10525
0.105259
0.105277
0.105286
0.105308
0.105315
0.105342
0.105348
0.105381
0.105506
0.105507
0.10551
0.105511
0.105517
0.105518
0.105527
0.10553
0.105539
0.105545
0.105553
0.105562
0.105571
0.105583
0.105591
0.105607
0.105616
0.105634
0.105642
0.105665
0.105672
0.105699
0.105706
0.105739
0.105843
0.105845
0.105845
0.105851
0.105851
0.105859
0.10586
0.10587
0.105872
0.105884
0.105889
0.1059
0.105908
0.10592
0.105929
0.105944
0.105953
0.105972