/*--------------------------------*- C++ -*----------------------------------*\
  =========                 |
  \\      /  F ield         | OpenFOAM: The Open Source CFD Toolbox
   \\    /   O peration     | Website:  https://openfoam.org
    \\  /    A nd           | Version:  10
     \\/     M anipulation  |
\*---------------------------------------------------------------------------*/
FoamFile
{
    format      ascii;
    class       volScalarField;
    location    "0.3";
    object      T;
}
// * * * * * * * * * * * * * * * * * * * * * * * * * * * * * * * * * * * * * //

dimensions      [0 0 0 1 0 0 0];

internalField   nonuniform List<scalar> 
4176
(
180.347
180.351
180.373
180.382
180.426
180.445
180.507
180.538
180.614
180.66
180.749
180.809
180.913
180.985
181.102
181.191
181.307
181.431
181.534
181.702
181.778
182.011
182.025
182.326
180.356
180.361
180.382
180.393
180.436
180.457
180.519
180.552
180.628
180.677
180.767
180.83
180.935
181.01
181.129
181.22
181.34
181.465
181.572
181.742
181.819
182.062
182.079
182.411
180.384
180.389
180.41
180.42
180.462
180.483
180.542
180.576
180.649
180.698
180.785
180.847
180.95
181.022
181.14
181.228
181.347
181.468
181.572
181.739
181.811
182.049
182.067
182.409
180.436
180.44
180.461
180.471
180.514
180.534
180.594
180.627
180.701
180.749
180.837
180.897
181.001
181.073
181.192
181.279
181.399
181.523
181.622
181.793
181.863
182.098
182.113
182.439
180.511
180.515
180.536
180.546
180.588
180.608
180.667
180.699
180.772
180.82
180.907
180.967
181.07
181.14
181.258
181.344
181.465
181.586
181.683
181.856
181.924
182.157
182.172
182.488
180.61
180.614
180.635
180.645
180.686
180.706
180.765
180.797
180.869
180.917
181.002
181.062
181.164
181.234
181.351
181.435
181.558
181.674
181.777
181.944
182.015
182.244
182.263
182.578
180.733
180.737
180.758
180.767
180.809
180.828
180.886
180.918
180.989
181.037
181.12
181.18
181.28
181.35
181.466
181.548
181.672
181.782
181.89
182.05
182.124
182.349
182.37
182.684
180.88
180.884
180.904
180.914
180.955
180.974
181.031
181.063
181.133
181.18
181.263
181.322
181.421
181.489
181.604
181.685
181.808
181.915
182.025
182.18
182.256
182.477
182.5
182.809
181.051
181.055
181.075
181.084
181.125
181.143
181.2
181.231
181.3
181.347
181.428
181.486
181.584
181.652
181.766
181.844
181.967
182.07
182.182
182.331
182.41
182.626
182.65
182.955
181.245
181.249
181.269
181.278
181.318
181.336
181.392
181.423
181.491
181.537
181.618
181.675
181.771
181.837
181.95
182.027
182.149
182.248
182.361
182.505
182.585
182.797
182.822
183.122
181.463
181.467
181.487
181.496
181.535
181.553
181.608
181.638
181.706
181.751
181.83
181.886
181.981
182.046
182.157
182.232
182.353
182.449
182.563
182.702
182.782
182.991
183.016
183.311
181.705
181.709
181.729
181.737
181.776
181.794
181.848
181.877
181.944
181.988
182.066
182.121
182.215
182.278
182.388
182.461
182.58
182.673
182.787
182.921
183.004
183.204
183.232
183.521
181.971
181.975
181.994
182.002
182.041
182.057
182.111
182.14
182.205
182.248
182.325
182.379
182.471
182.533
182.641
182.712
182.83
182.92
183.034
183.162
183.246
183.44
183.469
183.751
182.26
182.264
182.283
182.291
182.329
182.345
182.398
182.426
182.49
182.532
182.608
182.66
182.751
182.811
182.917
182.986
183.102
183.189
183.303
183.426
183.509
183.7
183.727
184.004
182.573
182.577
182.596
182.603
182.641
182.656
182.709
182.735
182.799
182.839
182.913
182.964
183.053
183.111
183.216
183.283
183.397
183.481
183.594
183.712
183.796
183.979
184.008
184.278
182.91
182.914
182.932
182.939
182.977
182.991
183.043
183.068
183.13
183.17
183.242
183.292
183.379
183.435
183.538
183.603
183.715
183.796
183.907
184.02
184.104
184.282
184.31
184.574
183.271
183.274
183.293
183.299
183.336
183.35
183.4
183.425
183.485
183.524
183.595
183.642
183.728
183.782
183.882
183.945
184.055
184.133
184.243
184.351
184.435
184.606
184.635
184.891
183.655
183.658
183.676
183.683
183.719
183.732
183.781
183.805
183.864
183.901
183.97
184.016
184.099
184.152
184.25
184.31
184.418
184.492
184.601
184.704
184.788
184.952
184.981
185.23
184.063
184.066
184.084
184.09
184.125
184.137
184.186
184.208
184.266
184.301
184.369
184.413
184.494
184.544
184.64
184.698
184.803
184.874
184.981
185.079
185.162
185.32
185.349
185.591
184.494
184.498
184.515
184.52
184.555
184.566
184.614
184.635
184.691
184.725
184.79
184.833
184.912
184.96
185.052
185.108
185.21
185.279
185.383
185.476
185.559
185.709
185.739
185.974
184.95
184.953
184.97
184.975
185.009
185.019
185.065
185.085
185.14
185.172
185.236
185.276
185.352
185.398
185.488
185.541
185.64
185.706
185.807
185.895
185.977
186.122
186.151
186.378
185.429
185.432
185.449
185.453
185.486
185.495
185.54
185.559
185.612
185.642
185.704
185.742
185.816
185.859
185.946
185.996
186.093
186.155
186.253
186.337
186.418
186.555
186.584
186.804
185.932
185.935
185.951
185.954
185.987
185.995
186.039
186.055
186.107
186.135
186.195
186.231
186.303
186.343
186.427
186.475
186.568
186.626
186.722
186.801
186.879
187.011
187.039
187.252
186.458
186.461
186.477
186.479
186.511
186.518
186.561
186.576
186.626
186.652
186.709
186.743
186.812
186.85
186.931
186.975
187.065
187.12
187.213
187.287
187.364
187.488
187.515
187.72
187.008
187.01
187.026
187.028
187.058
187.064
187.106
187.119
187.167
187.192
187.247
187.278
187.344
187.379
187.458
187.499
187.586
187.637
187.726
187.796
187.87
187.988
188.013
188.211
187.58
187.583
187.598
187.599
187.629
187.634
187.674
187.686
187.732
187.754
187.807
187.836
187.9
187.932
188.007
188.045
188.128
188.175
188.261
188.326
188.399
188.509
188.534
188.722
188.176
188.179
188.194
188.194
188.223
188.226
188.265
188.275
188.32
188.34
188.39
188.416
188.477
188.507
188.579
188.614
188.693
188.737
188.819
188.879
188.949
189.053
189.077
189.255
188.795
188.798
188.812
188.812
188.84
188.842
188.879
188.888
188.93
188.948
188.996
189.02
189.078
189.104
189.173
189.205
189.281
189.32
189.399
189.455
189.521
189.618
189.642
189.81
189.437
189.44
189.453
189.452
189.48
189.48
189.516
189.523
189.564
189.579
189.625
189.646
189.701
189.724
189.79
189.818
189.89
189.926
190.001
190.053
190.115
190.205
190.228
190.388
190.102
190.104
190.117
190.116
190.142
190.141
190.176
190.181
190.22
190.233
190.276
190.295
190.347
190.367
190.429
190.454
190.522
190.554
190.625
190.672
190.732
190.815
190.834
190.989
190.789
190.791
190.803
190.801
190.826
190.825
190.858
190.861
190.898
190.909
190.95
190.966
191.015
191.032
191.091
191.112
191.177
191.205
191.271
191.314
191.37
191.446
191.464
191.61
191.498
191.5
191.512
191.509
191.533
191.531
191.562
191.564
191.599
191.608
191.646
191.659
191.706
191.72
191.776
191.792
191.854
191.877
191.94
191.978
192.03
192.1
192.117
192.252
192.229
192.231
192.243
192.239
192.262
192.259
192.289
192.289
192.322
192.329
192.365
192.375
192.419
192.43
192.482
192.495
192.553
192.572
192.631
192.664
192.712
192.776
192.791
192.917
192.983
192.984
192.995
192.991
193.013
193.008
193.037
193.035
193.066
193.071
193.105
193.113
193.154
193.161
193.211
193.22
193.274
193.289
193.344
193.372
193.417
193.473
193.487
193.604
193.757
193.759
193.77
193.765
193.786
193.78
193.807
193.804
193.833
193.836
193.867
193.872
193.91
193.915
193.961
193.967
194.018
194.028
194.079
194.103
194.143
194.194
194.206
194.312
194.554
194.555
194.566
194.56
194.58
194.573
194.599
194.594
194.621
194.622
194.651
194.653
194.689
194.69
194.733
194.735
194.783
194.789
194.836
194.855
194.892
194.935
194.945
195.043
195.371
195.372
195.382
195.376
195.396
195.387
195.412
195.405
195.431
195.429
195.456
195.456
195.489
195.487
195.527
195.525
195.57
195.572
195.615
195.629
195.662
195.7
195.707
195.795
196.21
196.211
196.22
196.214
196.232
196.223
196.246
196.238
196.262
196.258
196.283
196.28
196.31
196.305
196.342
196.337
196.378
196.376
196.416
196.424
196.454
196.486
196.489
196.569
197.069
197.07
197.079
197.072
197.09
197.079
197.101
197.092
197.114
197.108
197.131
197.126
197.153
197.145
197.179
197.17
197.207
197.201
197.238
197.241
197.268
197.294
197.294
197.364
197.949
197.95
197.959
197.951
197.968
197.956
197.977
197.966
197.986
197.979
197.999
197.992
198.017
198.006
198.037
198.024
198.058
198.047
198.081
198.079
198.103
198.123
198.12
198.182
198.849
198.85
198.859
198.85
198.867
198.854
198.873
198.861
198.879
198.87
198.888
198.879
198.901
198.887
198.915
198.899
198.93
198.914
198.946
198.938
198.958
198.973
198.967
199.021
199.77
199.771
199.779
199.77
199.785
199.772
199.79
199.776
199.793
199.782
199.798
199.786
199.806
199.789
199.814
199.795
199.823
199.803
199.831
199.818
199.835
199.843
199.834
199.881
200.711
200.711
200.719
200.71
200.724
200.71
200.727
200.712
200.727
200.714
200.728
200.713
200.731
200.711
200.734
200.711
200.736
200.712
200.737
200.719
200.732
200.735
200.723
200.761
201.672
201.672
201.679
201.669
201.683
201.668
201.683
201.667
201.68
201.666
201.678
201.661
201.676
201.654
201.674
201.648
201.67
201.641
201.664
201.641
201.651
201.646
201.633
201.662
202.652
202.652
202.659
202.649
202.662
202.645
202.66
202.642
202.654
202.637
202.647
202.628
202.641
202.616
202.633
202.604
202.623
202.59
202.61
202.582
202.59
202.579
202.564
202.585
203.651
203.651
203.658
203.647
203.659
203.642
203.655
203.636
203.646
203.628
203.636
203.615
203.625
203.597
203.612
203.579
203.596
203.56
203.576
203.543
203.549
203.53
203.515
203.527
204.67
204.67
204.676
204.665
204.676
204.658
204.67
204.649
204.658
204.638
204.644
204.62
204.629
204.598
204.61
204.574
204.589
204.548
204.562
204.523
204.527
204.502
204.487
204.489
205.707
205.707
205.713
205.701
205.712
205.692
205.703
205.681
205.688
205.667
205.671
205.645
205.651
205.618
205.627
205.587
205.6
205.555
205.566
205.522
205.526
205.493
205.476
205.47
206.762
206.762
206.768
206.755
206.765
206.745
206.755
206.732
206.737
206.714
206.716
206.688
206.692
206.656
206.663
206.62
206.63
206.581
206.59
206.54
206.543
206.503
206.485
206.471
207.835
207.835
207.841
207.828
207.837
207.816
207.824
207.8
207.804
207.779
207.779
207.749
207.751
207.712
207.717
207.67
207.679
207.624
207.633
207.576
207.58
207.53
207.514
207.491
208.926
208.926
208.931
208.917
208.926
208.904
208.911
208.886
208.888
208.861
208.86
208.828
208.827
208.786
208.789
208.738
208.745
208.685
208.694
208.631
208.634
208.576
208.561
208.529
210.033
210.033
210.037
210.023
210.031
210.009
210.015
209.988
209.989
209.961
209.957
209.923
209.921
209.877
209.879
209.824
209.829
209.764
209.773
209.704
209.705
209.641
209.625
209.586
211.156
211.156
211.16
211.146
211.153
211.13
211.135
211.107
211.106
211.077
211.072
211.036
211.032
210.984
210.985
210.927
210.931
210.861
210.869
210.792
210.796
210.724
210.708
210.66
212.295
212.294
212.298
212.284
212.29
212.266
212.27
212.241
212.24
212.208
212.202
212.164
212.159
212.108
212.108
212.046
212.049
211.975
211.981
211.899
211.903
211.824
211.807
211.753
213.448
213.448
213.451
213.436
213.442
213.418
213.421
213.391
213.388
213.355
213.348
213.307
213.302
213.247
213.247
213.18
213.185
213.102
213.112
213.024
213.024
212.942
212.923
212.862
214.616
214.615
214.619
214.603
214.609
214.583
214.586
214.555
214.551
214.517
214.509
214.465
214.46
214.401
214.402
214.328
214.336
214.248
214.256
214.163
214.164
214.076
214.056
213.989
215.796
215.796
215.799
215.784
215.788
215.763
215.764
215.732
215.728
215.692
215.684
215.637
215.632
215.571
215.57
215.495
215.499
215.41
215.415
215.32
215.318
215.226
215.205
215.132
216.989
216.989
216.992
216.977
216.981
216.955
216.956
216.923
216.918
216.88
216.873
216.822
216.818
216.753
216.752
216.675
216.677
216.585
216.59
216.491
216.487
216.391
216.37
216.29
218.195
218.195
218.197
218.182
218.185
218.159
218.159
218.126
218.121
218.081
218.073
218.022
218.016
217.95
217.948
217.868
217.869
217.776
217.777
217.676
217.672
217.572
217.549
217.464
219.411
219.411
219.413
219.398
219.401
219.375
219.374
219.34
219.335
219.294
219.285
219.233
219.226
219.16
219.155
219.075
219.074
218.98
218.979
218.876
218.869
218.766
218.743
218.653
220.638
220.638
220.64
220.625
220.627
220.601
220.599
220.567
220.559
220.519
220.509
220.457
220.449
220.381
220.376
220.294
220.291
220.195
220.193
220.088
220.081
219.974
219.95
219.855
221.875
221.875
221.877
221.861
221.864
221.838
221.836
221.803
221.793
221.755
221.742
221.691
221.682
221.613
221.607
221.524
221.52
221.424
221.419
221.313
221.304
221.194
221.17
221.071
223.121
223.121
223.124
223.107
223.11
223.084
223.081
223.049
223.038
223.001
222.986
222.936
222.924
222.857
222.849
222.765
222.76
222.661
222.657
222.55
222.539
222.427
222.402
222.299
224.377
224.377
224.379
224.363
224.365
224.339
224.336
224.304
224.292
224.256
224.239
224.19
224.175
224.11
224.101
224.016
224.01
223.911
223.904
223.796
223.785
223.671
223.645
223.538
225.64
225.64
225.643
225.627
225.629
225.603
225.6
225.568
225.555
225.52
225.501
225.453
225.438
225.371
225.361
225.277
225.27
225.169
225.162
225.053
225.04
224.924
224.899
224.788
226.913
226.913
226.915
226.899
226.902
226.875
226.872
226.84
226.827
226.792
226.772
226.725
226.708
226.641
226.629
226.546
226.538
226.436
226.428
226.318
226.304
226.187
226.161
226.048
228.193
228.193
228.196
228.179
228.182
228.155
228.152
228.12
228.106
228.071
228.05
228.004
227.985
227.92
227.905
227.823
227.814
227.711
227.703
227.59
227.577
227.458
227.432
227.316
229.481
229.481
229.484
229.467
229.47
229.443
229.439
229.407
229.393
229.358
229.336
229.29
229.27
229.204
229.189
229.106
229.096
228.993
228.984
228.87
228.856
228.736
228.71
228.592
230.777
230.777
230.779
230.763
230.765
230.738
230.734
230.701
230.686
230.651
230.627
230.582
230.56
230.495
230.478
230.395
230.383
230.281
230.272
230.155
230.142
230.021
229.995
229.875
232.079
232.079
232.081
232.064
232.066
232.038
232.034
232.001
231.985
231.95
231.924
231.879
231.855
231.791
231.774
231.688
231.676
231.575
231.564
231.447
231.433
231.311
231.286
231.164
233.387
233.387
233.389
233.371
233.373
233.344
233.339
233.305
233.288
233.253
233.226
233.182
233.155
233.092
233.073
232.987
232.974
232.872
232.862
232.744
232.73
232.607
232.582
232.459
234.697
234.697
234.699
234.681
234.683
234.653
234.648
234.613
234.596
234.56
234.531
234.487
234.458
234.397
234.373
234.292
234.277
234.173
234.162
234.047
234.031
233.908
233.883
233.759
236.008
236.008
236.01
235.992
235.993
235.964
235.958
235.923
235.905
235.869
235.839
235.796
235.764
235.705
235.678
235.6
235.583
235.477
235.466
235.355
235.337
235.213
235.189
235.065
237.317
237.317
237.319
237.301
237.302
237.273
237.267
237.232
237.214
237.178
237.149
237.106
237.073
237.016
236.987
236.91
236.89
236.791
236.775
236.665
236.647
236.525
236.501
236.376
238.619
238.619
238.622
238.604
238.607
238.578
238.573
238.539
238.522
238.487
238.458
238.417
238.384
238.329
238.298
238.224
238.201
238.106
238.09
237.978
237.962
237.841
237.818
237.693
239.914
239.914
239.918
239.901
239.904
239.877
239.874
239.841
239.826
239.793
239.766
239.727
239.695
239.642
239.612
239.542
239.518
239.426
239.41
239.297
239.282
239.162
239.141
239.016
241.2
241.201
241.205
241.189
241.195
241.169
241.169
241.138
241.126
241.096
241.072
241.035
241.006
240.957
240.928
240.862
240.837
240.751
240.731
240.625
240.609
240.489
240.469
240.344
242.481
242.482
242.488
242.473
242.48
242.456
242.458
242.431
242.422
242.395
242.374
242.342
242.316
242.271
242.245
242.184
242.161
242.079
242.06
241.958
241.942
241.823
241.804
241.679
243.762
243.764
243.77
243.757
243.765
243.743
243.748
243.723
243.716
243.693
243.675
243.647
243.625
243.584
243.563
243.506
243.487
243.408
243.396
243.294
243.283
243.165
243.148
243.022
245.053
245.056
245.061
245.049
245.058
245.038
245.042
245.02
245.014
244.994
244.978
244.954
244.933
244.897
244.88
244.825
244.814
244.734
244.732
244.631
244.627
244.512
244.498
244.375
246.364
246.367
246.373
246.361
246.369
246.349
246.353
246.331
246.325
246.306
246.29
246.267
246.248
246.214
246.199
246.143
246.141
246.057
246.067
245.964
245.969
245.856
245.849
245.735
247.708
247.71
247.716
247.702
247.711
247.688
247.692
247.667
247.66
247.637
247.62
247.595
247.574
247.541
247.522
247.47
247.465
247.386
247.394
247.294
247.304
247.192
247.192
247.083
249.094
249.096
249.101
249.086
249.092
249.066
249.067
249.038
249.027
249.001
248.979
248.95
248.924
248.887
248.861
248.81
248.796
248.722
248.722
248.622
248.635
248.519
248.523
248.414
250.529
250.531
250.534
250.517
250.52
250.492
250.488
250.455
250.438
250.406
250.377
250.341
250.307
250.264
250.229
250.173
250.148
250.069
250.064
249.956
249.968
249.844
249.852
249.734
252.014
252.016
252.017
251.999
251.999
251.968
251.96
251.922
251.898
251.861
251.823
251.781
251.736
251.684
251.637
251.571
251.536
251.443
251.43
251.309
251.315
251.177
251.184
251.053
253.546
253.548
253.549
253.529
253.527
253.492
253.481
253.439
253.41
253.367
253.322
253.272
253.218
253.157
253.098
253.022
252.97
252.865
252.835
252.698
252.69
252.533
252.535
252.381
255.119
255.12
255.121
255.099
255.097
255.059
255.047
255
254.97
254.921
254.872
254.815
254.755
254.685
254.616
254.533
254.461
254.352
254.295
254.15
254.117
253.936
253.925
253.735
256.721
256.722
256.723
256.701
256.698
256.66
256.646
256.598
256.566
256.514
256.463
256.403
256.339
256.265
256.19
256.1
256.017
255.907
255.823
255.68
255.613
255.421
255.384
255.148
258.342
258.342
258.344
258.321
258.319
258.28
258.267
258.219
258.187
258.135
258.084
258.023
257.958
257.883
257.806
257.715
257.628
257.517
257.422
257.283
257.191
257.005
256.94
256.669
259.968
259.969
259.971
259.949
259.948
259.909
259.897
259.85
259.819
259.769
259.718
259.659
259.595
259.523
259.447
259.359
259.273
259.164
259.073
258.935
258.844
258.663
258.594
258.326
261.59
261.591
261.594
261.572
261.571
261.535
261.523
261.479
261.449
261.402
261.354
261.298
261.237
261.168
261.095
261.013
260.93
260.828
260.74
260.61
260.529
260.352
260.296
260.051
263.196
263.197
263.201
263.18
263.181
263.146
263.136
263.094
263.067
263.022
262.977
262.926
262.868
262.805
262.736
262.66
262.582
262.487
262.406
262.284
262.211
262.046
261.994
261.77
264.779
264.781
264.785
264.765
264.767
264.734
264.727
264.687
264.662
264.622
264.579
264.533
264.478
264.421
264.357
264.287
264.215
264.129
264.051
263.943
263.873
263.722
263.675
263.47
266.333
266.335
266.339
266.321
266.324
266.293
266.287
266.251
266.228
266.192
266.152
266.111
266.06
266.01
265.948
265.887
265.819
265.742
265.671
265.571
265.508
265.371
265.327
265.14
267.851
267.854
267.859
267.842
267.846
267.817
267.812
267.78
267.759
267.728
267.689
267.655
267.605
267.563
267.504
267.452
267.388
267.32
267.255
267.163
267.106
266.984
266.942
266.774
269.331
269.334
269.339
269.323
269.329
269.301
269.299
269.269
269.25
269.223
269.188
269.158
269.112
269.077
269.021
268.976
268.916
268.857
268.797
268.715
268.663
268.555
268.515
268.365
270.769
270.772
270.778
270.762
270.769
270.743
270.744
270.714
270.7
270.674
270.644
270.617
270.577
270.545
270.495
270.456
270.401
270.351
270.292
270.223
270.175
270.079
270.042
269.909
272.161
272.165
272.171
272.156
272.165
272.14
272.143
272.115
272.105
272.081
272.055
272.031
271.996
271.967
271.923
271.888
271.839
271.795
271.742
271.686
271.637
271.556
271.52
271.404
273.508
273.512
273.519
273.504
273.515
273.49
273.496
273.47
273.462
273.441
273.419
273.397
273.366
273.341
273.303
273.273
273.229
273.192
273.143
273.097
273.049
272.98
272.948
272.847
274.808
274.811
274.82
274.805
274.817
274.793
274.802
274.776
274.772
274.753
274.734
274.715
274.689
274.667
274.633
274.608
274.568
274.538
274.494
274.456
274.412
274.354
274.323
274.239
276.06
276.063
276.072
276.058
276.071
276.049
276.058
276.036
276.033
276.016
276
275.985
275.961
275.943
275.914
275.893
275.858
275.833
275.793
275.763
275.722
275.677
275.645
275.576
277.264
277.267
277.277
277.261
277.279
277.254
277.269
277.244
277.246
277.23
277.218
277.204
277.185
277.17
277.144
277.128
277.097
277.077
277.042
277.018
276.98
276.946
276.915
276.859
278.421
278.424
278.431
278.423
278.431
278.419
278.423
278.41
278.407
278.397
278.385
278.376
278.358
278.347
278.325
278.312
278.285
278.271
278.239
278.221
278.187
278.162
278.133
278.089
279.529
279.531
279.545
279.524
279.552
279.518
279.546
279.516
279.528
279.512
279.506
279.497
279.484
279.475
279.456
279.447
279.424
279.413
279.386
279.374
279.343
279.326
279.298
279.265
280.591
280.595
280.599
280.601
280.596
280.602
280.593
280.596
280.586
280.587
280.575
280.573
280.56
280.554
280.539
280.533
280.513
280.507
280.482
280.475
280.448
280.438
280.41
280.389
281.607
281.607
281.625
281.599
281.637
281.594
281.636
281.596
281.621
281.601
281.605
281.597
281.59
281.586
281.573
281.571
281.553
281.55
281.53
281.528
281.503
281.499
281.474
281.461
282.578
282.583
282.581
282.594
282.577
282.601
282.576
282.598
282.577
282.591
282.577
282.581
282.571
282.571
282.561
282.561
282.546
282.548
282.53
282.531
282.51
282.512
282.488
282.484
283.505
283.503
283.524
283.494
283.54
283.49
283.543
283.496
283.532
283.508
283.519
283.513
283.511
283.511
283.503
283.506
283.494
283.498
283.482
283.489
283.469
283.476
283.455
283.457
284.388
284.395
284.389
284.409
284.384
284.419
284.385
284.42
284.392
284.415
284.399
284.41
284.402
284.407
284.4
284.406
284.396
284.403
284.39
284.399
284.383
284.394
284.374
284.384
285.231
285.229
285.25
285.221
285.265
285.22
285.271
285.228
285.266
285.243
285.258
285.253
285.256
285.259
285.255
285.262
285.255
285.264
285.253
285.267
285.252
285.266
285.249
285.264
286.032
286.039
286.033
286.052
286.031
286.063
286.033
286.069
286.042
286.068
286.054
286.068
286.062
286.071
286.068
286.077
286.071
286.083
286.075
286.089
286.078
286.096
286.08
286.1
286.796
286.795
286.811
286.792
286.824
286.794
286.831
286.803
286.832
286.818
286.832
286.831
286.835
286.841
286.841
286.851
286.847
286.861
286.854
286.873
286.862
286.882
286.868
286.893
287.521
287.527
287.522
287.538
287.525
287.548
287.53
287.555
287.541
287.56
287.553
287.566
287.565
287.575
287.575
287.587
287.584
287.6
287.595
287.614
287.606
287.629
287.616
287.644
288.212
288.211
288.223
288.212
288.233
288.218
288.24
288.229
288.245
288.243
288.252
288.257
288.261
288.27
288.272
288.285
288.284
288.301
288.296
288.319
288.311
288.337
288.325
288.357
288.866
288.872
288.868
288.881
288.873
288.89
288.882
288.897
288.894
288.905
288.907
288.917
288.92
288.93
288.933
288.948
288.947
288.966
288.963
288.986
288.98
289.008
288.996
289.031
289.489
289.489
289.498
289.492
289.508
289.5
289.514
289.513
289.522
289.527
289.532
289.542
289.545
289.557
289.561
289.576
289.576
289.596
289.594
289.62
289.614
289.643
289.634
289.669
290.079
290.083
290.081
290.093
290.086
290.101
290.097
290.109
290.111
290.119
290.125
290.134
290.139
290.151
290.156
290.171
290.173
290.194
290.193
290.219
290.215
290.246
290.235
290.275
290.64
290.641
290.647
290.644
290.657
290.652
290.665
290.665
290.674
290.68
290.686
290.697
290.702
290.715
290.72
290.736
290.738
290.76
290.76
290.787
290.784
290.816
290.807
290.846
291.171
291.174
291.175
291.181
291.181
291.191
291.19
291.201
291.204
291.214
291.218
291.23
291.235
291.249
291.254
291.271
291.274
291.296
291.297
291.325
291.322
291.356
291.347
291.389
291.675
291.677
291.68
291.683
291.687
291.691
291.698
291.702
291.71
291.716
291.724
291.734
291.741
291.754
291.761
291.778
291.782
291.805
291.805
291.834
291.832
291.867
291.859
291.9
292.152
292.154
292.158
292.158
292.167
292.167
292.176
292.18
292.187
292.196
292.202
292.214
292.22
292.234
292.24
292.258
292.262
292.285
292.287
292.316
292.315
292.35
292.342
292.386
292.605
292.608
292.608
292.616
292.613
292.626
292.623
292.636
292.638
292.649
292.655
292.667
292.673
292.687
292.695
292.713
292.717
292.741
292.743
292.772
292.772
292.807
292.801
292.844
293.034
293.035
293.041
293.037
293.051
293.045
293.061
293.058
293.072
293.075
293.085
293.095
293.103
293.117
293.125
293.143
293.148
293.171
293.175
293.203
293.204
293.239
293.234
293.278
293.44
293.443
293.442
293.451
293.447
293.462
293.456
293.474
293.471
293.487
293.489
293.503
293.509
293.524
293.532
293.55
293.556
293.579
293.583
293.611
293.613
293.648
293.643
293.687
293.825
293.826
293.832
293.829
293.841
293.836
293.852
293.848
293.864
293.865
293.878
293.886
293.895
293.909
293.917
293.935
293.941
293.965
293.969
293.998
293.998
294.035
294.03
294.074
294.19
294.192
294.192
294.2
294.197
294.21
294.206
294.222
294.22
294.236
294.238
294.253
294.259
294.274
294.282
294.3
294.306
294.33
294.333
294.362
294.363
294.4
294.396
294.439
294.535
294.535
294.541
294.539
294.549
294.546
294.56
294.559
294.571
294.576
294.586
294.596
294.604
294.619
294.627
294.645
294.651
294.675
294.679
294.708
294.708
294.745
294.741
294.785
294.862
294.865
294.863
294.872
294.868
294.881
294.879
294.892
294.894
294.905
294.911
294.924
294.93
294.945
294.954
294.971
294.978
295.002
295.005
295.034
295.035
295.072
295.068
295.11
295.172
295.172
295.177
295.174
295.186
295.182
295.195
295.196
295.206
295.213
295.221
295.232
295.24
295.254
295.263
295.28
295.287
295.31
295.315
295.343
295.344
295.38
295.377
295.419
295.464
295.467
295.466
295.474
295.471
295.483
295.481
295.494
295.495
295.507
295.512
295.525
295.532
295.547
295.555
295.573
295.579
295.603
295.606
295.635
295.637
295.671
295.669
295.711
295.742
295.743
295.746
295.747
295.753
295.755
295.763
295.767
295.775
295.782
295.79
295.802
295.809
295.824
295.832
295.849
295.856
295.878
295.883
295.911
295.913
295.948
295.946
295.986
296.005
296.006
296.008
296.011
296.014
296.019
296.023
296.031
296.036
296.046
296.052
296.064
296.071
296.086
296.093
296.111
296.118
296.14
296.145
296.172
296.173
296.209
296.206
296.247
296.254
296.255
296.255
296.261
296.261
296.27
296.27
296.28
296.283
296.294
296.3
296.312
296.319
296.333
296.341
296.359
296.365
296.387
296.392
296.42
296.422
296.455
296.453
296.493
296.489
296.49
296.493
296.493
296.5
296.5
296.51
296.511
296.521
296.527
296.536
296.546
296.554
296.568
296.575
296.593
296.599
296.622
296.626
296.653
296.655
296.69
296.686
296.726
296.712
296.714
296.712
296.721
296.716
296.73
296.725
296.74
296.739
296.753
296.756
296.769
296.775
296.79
296.797
296.814
296.821
296.842
296.847
296.875
296.878
296.908
296.908
296.945
296.923
296.923
296.928
296.924
296.937
296.93
296.946
296.942
296.956
296.959
296.969
296.978
296.986
297
297.006
297.024
297.031
297.052
297.056
297.083
297.084
297.118
297.115
297.155
297.122
297.126
297.121
297.134
297.122
297.144
297.131
297.153
297.146
297.163
297.164
297.178
297.184
297.198
297.205
297.222
297.229
297.25
297.255
297.28
297.284
297.314
297.314
297.35
297.312
297.31
297.319
297.309
297.329
297.314
297.338
297.326
297.346
297.344
297.357
297.364
297.373
297.386
297.392
297.41
297.416
297.437
297.441
297.468
297.469
297.501
297.499
297.536
297.49
297.494
297.487
297.503
297.488
297.514
297.496
297.522
297.511
297.531
297.53
297.545
297.55
297.564
297.57
297.587
297.593
297.614
297.618
297.643
297.647
297.676
297.675
297.711
297.66
297.657
297.667
297.655
297.677
297.66
297.686
297.672
297.693
297.69
297.704
297.71
297.718
297.732
297.738
297.755
297.761
297.781
297.784
297.812
297.811
297.844
297.841
297.877
297.819
297.823
297.816
297.832
297.816
297.842
297.825
297.85
297.839
297.859
297.858
297.872
297.876
297.891
297.896
297.913
297.919
297.94
297.944
297.967
297.971
297.999
297.998
298.033
297.971
297.969
297.978
297.967
297.988
297.972
297.996
297.984
298.003
298.001
298.013
298.02
298.028
298.041
298.046
298.063
298.069
298.089
298.092
298.118
298.118
298.149
298.147
298.181
298.113
298.117
298.111
298.125
298.113
298.134
298.121
298.142
298.134
298.151
298.151
298.165
298.169
298.184
298.188
298.205
298.209
298.232
298.233
298.258
298.259
298.289
298.287
298.32
298.25
298.248
298.255
298.248
298.262
298.253
298.27
298.265
298.278
298.28
298.289
298.298
298.304
298.318
298.321
298.339
298.344
298.363
298.366
298.393
298.392
298.422
298.419
298.453
298.376
298.379
298.376
298.385
298.379
298.392
298.387
298.401
298.399
298.411
298.414
298.426
298.43
298.445
298.448
298.465
298.469
298.491
298.493
298.516
298.517
298.547
298.544
298.577
298.498
298.497
298.501
298.499
298.507
298.505
298.514
298.515
298.523
298.529
298.535
298.545
298.55
298.565
298.567
298.585
298.589
298.608
298.611
298.637
298.637
298.664
298.662
298.694
298.611
298.613
298.612
298.617
298.615
298.624
298.623
298.633
298.634
298.645
298.647
298.66
298.663
298.677
298.681
298.698
298.7
298.723
298.724
298.747
298.747
298.778
298.773
298.805
298.719
298.719
298.722
298.722
298.727
298.728
298.734
298.738
298.743
298.75
298.755
298.766
298.769
298.784
298.787
298.804
298.808
298.826
298.829
298.854
298.854
298.88
298.879
298.909
298.82
298.821
298.821
298.825
298.825
298.832
298.832
298.841
298.842
298.853
298.855
298.867
298.87
298.884
298.888
298.904
298.906
298.928
298.93
298.952
298.952
298.981
298.977
299.008
298.916
298.916
298.917
298.92
298.922
298.926
298.929
298.935
298.938
298.947
298.95
298.962
298.964
298.979
298.982
298.999
299.002
299.02
299.023
299.047
299.047
299.072
299.072
299.1
299.006
299.006
299.007
299.01
299.011
299.016
299.018
299.025
299.028
299.037
299.039
299.051
299.054
299.067
299.071
299.088
299.089
299.11
299.111
299.134
299.134
299.162
299.158
299.188
299.09
299.091
299.091
299.095
299.095
299.101
299.102
299.11
299.111
299.121
299.123
299.135
299.138
299.152
299.155
299.172
299.173
299.193
299.195
299.217
299.217
299.243
299.242
299.269
299.17
299.17
299.171
299.173
299.176
299.179
299.182
299.188
299.191
299.2
299.202
299.214
299.217
299.23
299.233
299.25
299.251
299.271
299.272
299.295
299.294
299.322
299.318
299.347
299.244
299.245
299.246
299.248
299.25
299.254
299.257
299.263
299.265
299.274
299.277
299.288
299.29
299.304
299.307
299.323
299.324
299.345
299.345
299.367
299.368
299.393
299.391
299.418
299.314
299.315
299.315
299.319
299.319
299.325
299.325
299.334
299.334
299.345
299.345
299.357
299.36
299.374
299.376
299.392
299.394
299.412
299.414
299.436
299.435
299.462
299.458