/*--------------------------------*- C++ -*----------------------------------*\
  =========                 |
  \\      /  F ield         | OpenFOAM: The Open Source CFD Toolbox
   \\    /   O peration     | Website:  https://openfoam.org
    \\  /    A nd           | Version:  10
     \\/     M anipulation  |
\*---------------------------------------------------------------------------*/
FoamFile
{
    format      ascii;
    class       volVectorField;
    location    "0.3";
    object      U;
}
// * * * * * * * * * * * * * * * * * * * * * * * * * * * * * * * * * * * * * //

dimensions      [0 1 -1 0 0 0 0];

internalField   nonuniform List<vector> 
4176
(
(497.488 -0.0141996 -4.99097e-09)
(497.474 0.0638982 1.56756e-09)
(497.45 0.00130722 -4.82976e-10)
(497.4 0.0906687 7.12971e-11)
(497.346 0.0508765 1.71204e-11)
(497.271 0.0899099 -5.01556e-10)
(497.181 0.125698 -5.0309e-10)
(497.087 0.0609261 3.84211e-11)
(496.954 0.225028 4.1866e-10)
(496.848 0.00524988 5.01533e-10)
(496.672 0.344052 3.97421e-10)
(496.549 -0.0686941 4.18151e-10)
(496.338 0.469443 2.5195e-10)
(496.191 -0.139035 -1.34623e-10)
(495.957 0.56743 -3.45025e-10)
(495.773 -0.135129 -2.74517e-10)
(495.536 0.527998 -2.52858e-10)
(495.286 0.0240711 -4.94233e-11)
(495.073 0.334439 3.07717e-10)
(494.73 0.323386 2.00666e-10)
(494.576 -0.0173523 -1.18869e-10)
(494.097 0.772144 -1.76582e-10)
(494.066 -0.516794 6.33672e-11)
(493.444 1.44294 1.68227e-10)
(497.47 0.00486596 -4.99009e-09)
(497.455 0.114722 1.56825e-09)
(497.431 0.0763476 -4.83086e-10)
(497.379 0.203578 7.05849e-11)
(497.325 0.186122 1.71196e-11)
(497.247 0.264637 -5.01329e-10)
(497.156 0.321603 -5.03894e-10)
(497.059 0.296029 3.84557e-11)
(496.925 0.481992 4.19304e-10)
(496.814 0.298382 5.01812e-10)
(496.636 0.66257 3.97103e-10)
(496.508 0.279123 4.18165e-10)
(496.293 0.850019 2.50403e-10)
(496.142 0.258837 -1.34545e-10)
(495.901 1.01212 -3.44906e-10)
(495.713 0.302546 -2.74054e-10)
(495.47 1.04174 -2.54024e-10)
(495.216 0.511089 -4.95017e-11)
(494.996 0.913985 3.06722e-10)
(494.646 0.85555 2.00262e-10)
(494.492 0.628057 -1.18837e-10)
(493.992 1.33138 -1.78935e-10)
(493.956 0.124811 6.41222e-11)
(493.27 1.9931 1.67809e-10)
(497.413 0.0232138 -4.99219e-09)
(497.399 0.161374 1.56748e-09)
(497.375 0.147519 -4.85057e-10)
(497.324 0.307914 7.16231e-11)
(497.273 0.31372 1.6731e-11)
(497.194 0.426826 -5.02247e-10)
(497.108 0.505724 -5.01408e-10)
(497.011 0.515267 4.01876e-11)
(496.882 0.722714 4.21306e-10)
(496.772 0.573046 5.02192e-10)
(496.599 0.960349 3.96269e-10)
(496.473 0.606526 4.17415e-10)
(496.263 1.20581 2.52066e-10)
(496.116 0.634424 -1.34539e-10)
(495.878 1.42833 -3.4524e-10)
(495.697 0.71429 -2.72902e-10)
(495.454 1.52224 -2.56762e-10)
(495.209 0.966328 -5.10601e-11)
(494.993 1.45681 3.07424e-10)
(494.652 1.34422 1.99822e-10)
(494.506 1.24731 -1.1984e-10)
(494.016 1.88255 -1.7632e-10)
(493.981 0.838425 6.44045e-11)
(493.271 2.60926 1.68743e-10)
(497.309 0.0419465 -4.98987e-09)
(497.294 0.208876 1.57117e-09)
(497.271 0.22001 -4.86011e-10)
(497.22 0.414226 7.47109e-11)
(497.169 0.443683 1.59176e-11)
(497.09 0.59218 -5.06779e-10)
(497.004 0.693281 -5.01565e-10)
(496.907 0.738901 3.75826e-11)
(496.777 0.967929 4.14588e-10)
(496.668 0.853358 5.05777e-10)
(496.494 1.26368 3.97352e-10)
(496.37 0.940881 4.15839e-10)
(496.158 1.56849 2.53649e-10)
(496.013 1.01863 -1.36133e-10)
(495.771 1.85322 -3.52473e-10)
(495.593 1.13578 -2.74218e-10)
(495.346 2.01668 -2.54363e-10)
(495.097 1.42685 -5.13756e-11)
(494.891 2.00897 3.09745e-10)
(494.54 1.84114 1.99198e-10)
(494.399 1.85786 -1.22698e-10)
(493.915 2.42036 -1.77174e-10)
(493.885 1.52546 6.26234e-11)
(493.206 3.20603 1.5922e-10)
(497.157 0.0602765 -4.99113e-09)
(497.143 0.255395 1.57757e-09)
(497.12 0.290925 -4.82266e-10)
(497.069 0.518406 7.47201e-11)
(497.019 0.570812 1.91377e-11)
(496.941 0.754343 -5.01579e-10)
(496.856 0.876751 -5.03636e-10)
(496.759 0.958449 3.9641e-11)
(496.632 1.20781 4.20113e-10)
(496.524 1.12884 5.03849e-10)
(496.351 1.56047 3.97703e-10)
(496.229 1.26968 4.18845e-10)
(496.018 1.92375 2.50274e-10)
(495.876 1.39638 -1.37178e-10)
(495.634 2.27094 -3.50654e-10)
(495.461 1.55047 -2.76872e-10)
(495.21 2.51203 -2.55477e-10)
(494.967 1.87003 -5.0553e-11)
(494.764 2.554 3.04315e-10)
(494.41 2.33906 2.04965e-10)
(494.271 2.45232 -1.15022e-10)
(493.793 2.94615 -1.74246e-10)
(493.762 2.16808 6.62055e-11)
(493.103 3.76389 1.70029e-10)
(496.957 0.0785992 -5.00278e-09)
(496.942 0.30162 1.5749e-09)
(496.919 0.361689 -4.8092e-10)
(496.869 0.622001 7.00541e-11)
(496.819 0.697637 7.90962e-12)
(496.742 0.915651 -5.06859e-10)
(496.658 1.05979 -5.01398e-10)
(496.561 1.17695 3.56847e-11)
(496.435 1.4471 4.2076e-10)
(496.327 1.40324 5.09402e-10)
(496.157 1.85637 3.98171e-10)
(496.035 1.59764 4.13232e-10)
(495.825 2.2774 2.47622e-10)
(495.684 1.77403 -1.34849e-10)
(495.443 2.68537 -3.53815e-10)
(495.274 1.96944 -2.74393e-10)
(495.018 3.00269 -2.44979e-10)
(494.787 2.31294 -4.76482e-11)
(494.571 3.1035 3.14179e-10)
(494.229 2.83592 2.07097e-10)
(494.085 3.0485 -1.19317e-10)
(493.611 3.4741 -1.85045e-10)
(493.575 2.81499 6.29577e-11)
(492.914 4.32078 1.70276e-10)
(496.708 0.0967451 -5.00175e-09)
(496.693 0.347183 1.57224e-09)
(496.671 0.431663 -4.96837e-10)
(496.621 0.724159 7.01805e-11)
(496.572 0.823007 2.25284e-11)
(496.495 1.07474 -5.06114e-10)
(496.412 1.24071 -5.1302e-10)
(496.316 1.3925 4.02143e-11)
(496.192 1.68365 4.27421e-10)
(496.084 1.67414 5.04809e-10)
(495.916 2.14883 3.95613e-10)
(495.795 1.92181 4.24367e-10)
(495.587 2.62666 2.63426e-10)
(495.448 2.14804 -1.33063e-10)
(495.208 3.09371 -3.49546e-10)
(495.043 2.38675 -2.71208e-10)
(494.785 3.48233 -2.54472e-10)
(494.565 2.75764 -5.3246e-11)
(494.337 3.65091 3.08723e-10)
(494.009 3.3209 2.04621e-10)
(493.859 3.64355 -1.20807e-10)
(493.392 4.00158 -1.85203e-10)
(493.352 3.47163 6.52612e-11)
(492.693 4.88297 1.75336e-10)
(496.41 0.114754 -5.01713e-09)
(496.396 0.392281 1.58262e-09)
(496.374 0.501017 -4.76642e-10)
(496.324 0.8253 7.3704e-11)
(496.276 0.947209 9.60749e-12)
(496.199 1.23223 -5.03435e-10)
(496.117 1.4199 -4.96759e-10)
(496.022 1.60591 3.90883e-11)
(495.899 1.91786 4.09389e-10)
(495.793 1.94243 5.025e-10)
(495.626 2.43836 4.06711e-10)
(495.506 2.24309 4.18813e-10)
(495.301 2.97231 2.3785e-10)
(495.163 2.51907 -1.41851e-10)
(494.924 3.49754 -3.42681e-10)
(494.763 2.80156 -2.79405e-10)
(494.504 3.95458 -2.5093e-10)
(494.292 3.19995 -3.66407e-11)
(494.059 4.19363 3.12629e-10)
(493.742 3.80139 1.89913e-10)
(493.586 4.23681 -1.21084e-10)
(493.126 4.52429 -1.69148e-10)
(493.083 4.12292 6.27473e-11)
(492.431 5.43791 1.52154e-10)
(496.065 0.132583 -5.0288e-09)
(496.051 0.436826 1.56925e-09)
(496.029 0.569591 -4.98474e-10)
(495.979 0.925216 6.15571e-11)
(495.931 1.06995 9.41332e-12)
(495.855 1.38779 -5.12036e-10)
(495.775 1.5969 -5.12346e-10)
(495.68 1.81666 3.59901e-11)
(495.559 2.14915 4.16179e-10)
(495.454 2.20743 4.99668e-10)
(495.289 2.72421 3.95136e-10)
(495.171 2.5606 4.17416e-10)
(494.967 3.3135 2.46233e-10)
(494.832 2.8861 -1.40737e-10)
(494.594 3.89593 -3.49593e-10)
(494.436 3.21253 -2.76446e-10)
(494.177 4.41833 -2.55278e-10)
(493.973 3.6393 -4.76086e-11)
(493.735 4.72953 3.09252e-10)
(493.43 4.2752 1.9677e-10)
(493.268 4.82757 -1.23152e-10)
(492.817 5.04229 -1.8029e-10)
(492.77 4.76979 6.45234e-11)
(492.127 5.98623 1.68542e-10)
(495.671 0.150229 -5.01255e-09)
(495.656 0.480826 1.59798e-09)
(495.635 0.637381 -4.798e-10)
(495.585 1.02393 8.47726e-11)
(495.539 1.19124 2.78731e-11)
(495.463 1.54145 -4.95311e-10)
(495.384 1.77172 -4.95663e-10)
(495.29 2.02479 5.34465e-11)
(495.17 2.37748 4.34854e-10)
(495.066 2.4691 5.16658e-10)
(494.903 3.00629 4.13704e-10)
(494.787 2.87421 4.33437e-10)
(494.585 3.65009 2.64767e-10)
(494.452 3.2489 -1.28258e-10)
(494.216 4.2888 -3.36149e-10)
(494.062 3.61936 -2.65862e-10)
(493.802 4.87394 -2.41511e-10)
(493.607 4.07488 -3.6548e-11)
(493.364 5.25794 3.23208e-10)
(493.071 4.74258 2.08329e-10)
(492.903 5.41384 -1.11132e-10)
(492.463 5.55381 -1.68199e-10)
(492.412 5.41028 7.39769e-11)
(491.779 6.52624 1.77741e-10)
(495.228 0.167665 -5.03328e-09)
(495.214 0.524227 1.5871e-09)
(495.193 0.704288 -4.89597e-10)
(495.144 1.12132 7.73409e-11)
(495.098 1.31092 2.0961e-11)
(495.023 1.69304 -5.0371e-10)
(494.944 1.94416 -5.01024e-10)
(494.852 2.23008 5.1835e-11)
(494.734 2.60259 4.33433e-10)
(494.631 2.72716 5.15269e-10)
(494.47 3.28426 4.14305e-10)
(494.355 3.18351 4.36113e-10)
(494.155 3.98164 2.67384e-10)
(494.025 3.60687 -1.2676e-10)
(493.791 4.67564 -3.31705e-10)
(493.641 4.02134 -2.5997e-10)
(493.382 5.32131 -2.34055e-10)
(493.194 4.50614 -3.02439e-11)
(492.947 5.77799 3.33742e-10)
(492.666 5.20392 2.19056e-10)
(492.492 5.99316 -1.22936e-10)
(492.065 6.05696 -2.02164e-10)
(492.009 6.04475 4.48081e-11)
(491.386 7.05749 1.46662e-10)
(494.737 0.184867 -5.04176e-09)
(494.723 0.566983 1.59044e-09)
(494.702 0.770235 -4.93036e-10)
(494.653 1.21729 7.1952e-11)
(494.608 1.42886 1.5716e-11)
(494.534 1.84245 -5.10107e-10)
(494.457 2.11408 -5.09426e-10)
(494.365 2.43241 4.21125e-11)
(494.249 2.82434 4.23915e-10)
(494.147 2.98144 5.06181e-10)
(493.988 3.55791 4.04044e-10)
(493.876 3.48822 4.2706e-10)
(493.677 4.30785 2.56392e-10)
(493.551 3.95962 -1.36729e-10)
(493.318 5.05607 -3.46552e-10)
(493.172 4.41786 -2.73781e-10)
(492.914 5.76046 -2.51182e-10)
(492.733 4.93275 -4.35001e-11)
(492.483 6.28909 3.15378e-10)
(492.213 5.65833 2.00562e-10)
(492.035 6.5644 -1.18132e-10)
(491.62 6.55091 -1.72918e-10)
(491.561 6.67186 7.08433e-11)
(490.95 7.57936 1.73212e-10)
(494.197 0.201809 -5.0511e-09)
(494.183 0.609036 1.59072e-09)
(494.162 0.83512 -4.99492e-10)
(494.114 1.31173 6.60602e-11)
(494.07 1.54491 7.23068e-12)
(493.996 1.98949 -5.22927e-10)
(493.921 2.28126 -5.24258e-10)
(493.83 2.63155 2.57776e-11)
(493.715 3.04248 4.07616e-10)
(493.616 3.23171 4.87895e-10)
(493.458 3.827 3.78132e-10)
(493.348 3.78807 4.01133e-10)
(493.152 4.6284 2.23401e-10)
(493.029 4.30671 -1.42594e-10)
(492.798 5.42965 -3.22963e-10)
(492.657 4.80822 -2.56594e-10)
(492.4 6.19128 -2.33113e-10)
(492.225 5.35432 -3.09911e-11)
(491.973 6.79055 3.28032e-10)
(491.715 6.10493 2.10858e-10)
(491.532 7.12694 -1.10119e-10)
(491.13 7.03498 -1.67799e-10)
(491.068 7.29025 7.62699e-11)
(490.468 8.09132 1.76443e-10)
(493.608 0.218464 -5.05269e-09)
(493.594 0.650331 1.61585e-09)
(493.574 0.89885 -5.00989e-10)
(493.526 1.4045 4.67932e-11)
(493.483 1.6589 4.05369e-12)
(493.41 2.13398 -5.14636e-10)
(493.336 2.4455 -5.0357e-10)
(493.247 2.82728 6.34054e-11)
(493.134 3.25676 4.27649e-10)
(493.036 3.4777 4.88951e-10)
(492.881 4.09126 3.91558e-10)
(492.773 4.08277 4.24799e-10)
(492.579 4.94302 2.65606e-10)
(492.459 4.64778 -1.23733e-10)
(492.23 5.79603 -3.56439e-10)
(492.093 5.19193 -2.97655e-10)
(491.838 6.61334 -2.69512e-10)
(491.67 5.77026 -4.94751e-11)
(491.417 7.2819 3.22422e-10)
(491.17 6.54328 2.16522e-10)
(490.983 7.6801 -1.2262e-10)
(490.594 7.50812 -1.967e-10)
(490.529 7.89856 5.95386e-11)
(489.942 8.59285 1.73794e-10)
(492.97 0.23481 -5.07743e-09)
(492.956 0.690819 1.5781e-09)
(492.937 0.961335 -4.92817e-10)
(492.889 1.49548 1.03549e-10)
(492.847 1.77065 2.9545e-11)
(492.775 2.27571 -5.12493e-10)
(492.702 2.60654 -5.24101e-10)
(492.615 3.01933 1.79165e-11)
(492.504 3.4669 4.25671e-10)
(492.407 3.71912 5.31695e-10)
(492.255 4.35039 4.12794e-10)
(492.149 4.37201 4.19272e-10)
(491.958 5.25139 2.31126e-10)
(491.841 4.9825 -1.45679e-10)
(491.615 6.15486 -3.32693e-10)
(491.482 5.5685 -2.68662e-10)
(491.229 7.02621 -2.59294e-10)
(491.068 6.17984 -6.07257e-11)
(490.813 7.76255 2.81915e-10)
(490.578 6.97308 1.87343e-10)
(490.387 8.22349 -1.09826e-10)
(490.011 7.9695 -1.72505e-10)
(489.944 8.49557 5.98253e-11)
(489.37 9.08341 1.4861e-10)
(492.283 0.250825 -5.07219e-09)
(492.269 0.730453 1.63016e-09)
(492.25 1.02249 -5.00573e-10)
(492.203 1.58455 4.39374e-11)
(492.162 1.88002 1.95157e-12)
(492.092 2.41449 -5.1383e-10)
(492.02 2.76412 -4.96674e-10)
(491.934 3.20739 7.1734e-11)
(491.825 3.67255 4.30636e-10)
(491.731 3.95559 4.91635e-10)
(491.58 4.604 3.99047e-10)
(491.477 4.6554 4.33402e-10)
(491.289 5.55318 2.75482e-10)
(491.175 5.3105 -1.49563e-10)
(490.952 6.50583 -3.89494e-10)
(490.824 5.93752 -2.94187e-10)
(490.573 7.42952 -2.59655e-10)
(490.419 6.58224 -3.56618e-11)
(490.164 8.23172 3.38073e-10)
(489.94 7.39407 1.93806e-10)
(489.745 8.75642 -1.48975e-10)
(489.384 8.41879 -1.8579e-10)
(489.313 9.08069 7.33378e-11)
(488.753 9.56231 1.86311e-10)
(491.546 0.266488 -5.09719e-09)
(491.533 0.769186 1.59533e-09)
(491.514 1.08225 -5.19626e-10)
(491.468 1.67161 4.0243e-11)
(491.428 1.98684 1.24892e-11)
(491.358 2.55011 -4.88205e-10)
(491.288 2.91801 -4.93654e-10)
(491.204 3.39119 5.37858e-11)
(491.097 3.87336 4.28397e-10)
(491.005 4.18673 5.03824e-10)
(490.857 4.85169 3.8839e-10)
(490.757 4.9325 4.02182e-10)
(490.572 5.84795 2.56065e-10)
(490.461 5.63135 -1.19339e-10)
(490.242 6.84859 -3.39314e-10)
(490.118 6.29858 -2.70985e-10)
(489.87 7.82301 -2.56068e-10)
(489.722 6.97663 -5.19094e-11)
(489.467 8.68859 2.96127e-10)
(489.255 7.80589 1.70606e-10)
(489.057 9.27741 -1.60779e-10)
(488.71 8.85667 -1.8264e-10)
(488.635 9.65435 9.14105e-11)
(488.091 10.0283 1.83225e-10)
(490.76 0.281773 -5.10015e-09)
(490.746 0.806966 1.62265e-09)
(490.728 1.14051 -4.86803e-10)
(490.683 1.75653 9.49951e-11)
(490.644 2.09095 3.56714e-11)
(490.576 2.68238 -4.93669e-10)
(490.507 3.06795 -4.86605e-10)
(490.425 3.57041 7.85068e-11)
(490.32 4.069 4.70003e-10)
(490.23 4.41214 5.16728e-10)
(490.086 5.09302 3.7295e-10)
(489.988 5.20284 3.99121e-10)
(489.806 6.13524 2.23238e-10)
(489.7 5.94454 -1.7156e-10)
(489.483 7.18271 -3.81931e-10)
(489.364 6.65127 -2.96423e-10)
(489.119 8.20644 -2.73158e-10)
(488.978 7.36225 -5.51864e-11)
(488.724 9.1325 3.09539e-10)
(488.523 8.20827 1.98974e-10)
(488.322 9.78602 -1.17444e-10)
(487.99 9.2827 -1.6841e-10)
(487.911 10.2157 8.04304e-11)
(487.382 10.4808 1.87446e-10)
(489.924 0.296652 -5.11793e-09)
(489.91 0.84373 1.61304e-09)
(489.893 1.19717 -5.08412e-10)
(489.848 1.83918 6.88735e-11)
(489.81 2.19218 2.80598e-12)
(489.743 2.81109 -5.38007e-10)
(489.677 3.21369 -5.33285e-10)
(489.596 3.74478 2.90306e-11)
(489.494 4.25911 4.12604e-10)
(489.407 4.63145 4.93466e-10)
(489.265 5.32754 3.86589e-10)
(489.171 5.46592 4.03949e-10)
(488.992 6.41451 2.19057e-10)
(488.89 6.24953 -1.80277e-10)
(488.677 7.50764 -4.00564e-10)
(488.563 6.99502 -3.19566e-10)
(488.32 8.57936 -2.6063e-10)
(488.186 7.73859 -1.41159e-11)
(487.934 9.563 3.49793e-10)
(487.745 8.60078 2.25254e-10)
(487.54 10.2818 -9.68599e-11)
(487.223 9.69657 -1.5728e-10)
(487.14 10.7642 8.88131e-11)
(486.628 10.9193 1.91864e-10)
(489.037 0.311092 -5.1471e-09)
(489.024 0.879399 1.62795e-09)
(489.007 1.25212 -4.80384e-10)
(488.963 1.91938 7.3931e-11)
(488.926 2.29032 2.85064e-11)
(488.861 2.93601 -4.89928e-10)
(488.797 3.35496 -5.12457e-10)
(488.718 3.91401 2.54715e-11)
(488.618 4.44338 4.31834e-10)
(488.534 4.84428 5.3358e-10)
(488.395 5.55486 4.00982e-10)
(488.305 5.72128 4.34282e-10)
(488.13 6.68527 2.69139e-10)
(488.031 6.54572 -1.60833e-10)
(487.822 7.82283 -3.56104e-10)
(487.714 7.32921 -2.60182e-10)
(487.474 8.94123 -2.65713e-10)
(487.347 8.1051 -7.63074e-11)
(487.097 9.97969 3.00597e-10)
(486.919 8.98301 1.98277e-10)
(486.712 10.7641 -1.50462e-10)
(486.41 10.098 -1.85468e-10)
(486.323 11.2991 7.65894e-11)
(485.828 11.3435 1.55449e-10)
(488.1 0.325053 -5.1398e-09)
(488.087 0.913886 1.64357e-09)
(488.071 1.3052 -4.81988e-10)
(488.028 1.99696 1.08581e-10)
(487.992 2.38514 4.64673e-11)
(487.929 3.05688 -5.29241e-10)
(487.866 3.4915 -5.59339e-10)
(487.79 4.0778 1.70728e-11)
(487.693 4.62148 4.14883e-10)
(487.611 5.05028 5.03561e-10)
(487.476 5.77457 4.01954e-10)
(487.389 5.96847 4.30781e-10)
(487.218 6.94702 2.59999e-10)
(487.124 6.83257 -1.36066e-10)
(486.918 8.12768 -3.38291e-10)
(486.816 7.65316 -2.56427e-10)
(486.58 9.29145 -2.27792e-10)
(486.46 8.46106 -5.1547e-11)
(486.212 10.3822 2.72918e-10)
(486.045 9.3546 1.65903e-10)
(485.837 11.2324 -1.51051e-10)
(485.551 10.4866 -1.98307e-10)
(485.459 11.82 5.03272e-11)
(484.981 11.7529 1.64488e-10)
(487.113 0.338494 -5.17248e-09)
(487.1 0.9471 1.60045e-09)
(487.084 1.35628 -5.06843e-10)
(487.042 2.07171 1.09118e-10)
(487.008 2.47642 2.28762e-11)
(486.946 3.17342 -5.30946e-10)
(486.886 3.62298 -5.36738e-10)
(486.812 4.23582 6.13004e-11)
(486.718 4.79307 4.79428e-10)
(486.639 5.24911 5.4286e-10)
(486.507 5.9863 4.17635e-10)
(486.424 6.2071 4.18001e-10)
(486.257 7.19933 2.15929e-10)
(486.167 7.10955 -1.59502e-10)
(485.966 8.42164 -3.44413e-10)
(485.87 7.96621 -2.78753e-10)
(485.638 9.62939 -2.73097e-10)
(485.525 8.80568 -7.28516e-11)
(485.281 10.7702 3.18606e-10)
(485.124 9.71518 2.21464e-10)
(484.914 11.6858 -1.17616e-10)
(484.644 10.8619 -1.90059e-10)
(484.548 12.3263 3.67095e-11)
(484.089 12.147 1.6945e-10)
(486.075 0.351379 -5.19022e-09)
(486.062 0.978955 1.60609e-09)
(486.047 1.40521 -5.08677e-10)
(486.006 2.14346 1.14955e-10)
(485.973 2.56391 3.2698e-11)
(485.913 3.28537 -5.27485e-10)
(485.855 3.74911 -5.37932e-10)
(485.783 4.38774 1.20573e-11)
(485.692 4.95779 4.3122e-10)
(485.617 5.44041 5.4946e-10)
(485.489 6.18969 4.28892e-10)
(485.409 6.43679 4.28625e-10)
(485.246 7.44178 2.26402e-10)
(485.162 7.37623 -1.51239e-10)
(484.965 8.70422 -3.35203e-10)
(484.874 8.26777 -2.74692e-10)
(484.647 9.9544 -2.68401e-10)
(484.542 9.13809 -6.36943e-11)
(484.301 11.1433 3.29864e-10)
(484.155 10.0644 2.30696e-10)
(483.944 12.1231 -1.07975e-10)
(483.69 11.2235 -1.81512e-10)
(483.59 12.8175 5.16652e-11)
(483.15 12.5255 1.425e-10)
(484.985 0.363676 -5.21333e-09)
(484.973 1.00938 1.65208e-09)
(484.959 1.45187 -4.85225e-10)
(484.919 2.21204 7.16842e-11)
(484.888 2.64739 -2.32726e-11)
(484.829 3.39247 -5.45391e-10)
(484.774 3.86957 -5.1347e-10)
(484.705 4.53323 2.86072e-11)
(484.617 5.11528 4.38133e-10)
(484.545 5.62379 5.41087e-10)
(484.421 6.38434 4.03904e-10)
(484.345 6.65715 4.44642e-10)
(484.186 7.67399 2.8499e-10)
(484.107 7.63221 -1.57147e-10)
(483.915 8.97501 -4.05753e-10)
(483.83 8.55735 -2.99043e-10)
(483.608 10.266 -2.52766e-10)
(483.511 9.45761 -5.88099e-11)
(483.273 11.5011 3.25473e-10)
(483.138 10.4015 2.17247e-10)
(482.926 12.5436 -1.34795e-10)
(482.689 11.5704 -1.67929e-10)
(482.586 13.2925 1.02879e-10)
(482.164 12.8879 1.76258e-10)
(483.845 0.375363 -5.19843e-09)
(483.833 1.03832 1.68168e-09)
(483.819 1.49619 -4.71611e-10)
(483.78 2.27731 8.32898e-11)
(483.751 2.7267 -1.82964e-11)
(483.695 3.49449 -5.47576e-10)
(483.642 3.98409 -5.19994e-10)
(483.575 4.67196 7.27391e-11)
(483.491 5.26517 4.7774e-10)
(483.422 5.79888 5.21934e-10)
(483.302 6.56984 3.77858e-10)
(483.231 6.86778 4.14785e-10)
(483.077 7.89556 2.47056e-10)
(483.002 7.87707 -1.48198e-10)
(482.815 9.23359 -3.46372e-10)
(482.737 8.83453 -2.50258e-10)
(482.519 10.5637 -2.64128e-10)
(482.43 9.76371 -7.7875e-11)
(482.196 11.843 2.98849e-10)
(482.072 10.726 1.89008e-10)
(481.861 12.9465 -1.19057e-10)
(481.64 11.9018 -1.5861e-10)
(481.534 13.7502 1.08704e-10)
(481.132 13.2335 1.76774e-10)
(482.653 0.386425 -5.20989e-09)
(482.641 1.06575 1.65709e-09)
(482.629 1.53809 -5.32537e-10)
(482.591 2.33919 9.54916e-11)
(482.564 2.8017 8.39489e-12)
(482.509 3.59125 -5.55359e-10)
(482.459 4.09244 -5.04828e-10)
(482.395 4.80366 5.15895e-11)
(482.314 5.40713 4.18794e-10)
(482.249 5.96528 5.40229e-10)
(482.133 6.74579 4.18194e-10)
(482.066 7.06826 4.15937e-10)
(481.917 8.10604 2.69926e-10)
(481.848 8.11042 -1.59663e-10)
(481.666 9.47957 -3.99122e-10)
(481.594 9.09888 -2.81345e-10)
(481.382 10.8471 -2.7581e-10)
(481.3 10.0559 -6.76963e-11)
(481.071 12.1685 3.28735e-10)
(480.957 11.0372 1.84353e-10)
(480.747 13.3313 -1.59415e-10)
(480.543 12.217 -1.78763e-10)
(480.434 14.1892 4.91511e-11)
(480.052 13.5618 1.4204e-10)
(481.411 0.396852 -5.28579e-09)
(481.399 1.09163 1.63804e-09)
(481.387 1.57754 -5.34613e-10)
(481.35 2.39761 6.62544e-11)
(481.325 2.87228 8.42205e-12)
(481.272 3.68261 -5.34296e-10)
(481.225 4.19443 -5.17366e-10)
(481.164 4.92809 6.99841e-11)
(481.086 5.54087 4.66442e-10)
(481.025 6.12267 5.53402e-10)
(480.913 6.91178 4.54174e-10)
(480.852 7.25815 4.22687e-10)
(480.707 8.305 2.41178e-10)
(480.644 8.33182 -1.66331e-10)
(480.467 9.71254 -3.77327e-10)
(480.401 9.35002 -2.87154e-10)
(480.194 11.1159 -2.58728e-10)
(480.121 10.3338 -3.13372e-11)
(479.896 12.4773 3.41812e-10)
(479.794 11.3342 2.15017e-10)
(479.585 13.6972 -1.60181e-10)
(479.397 12.5155 -2.04576e-10)
(479.286 14.609 4.97983e-11)
(478.924 13.8726 1.582e-10)
(480.117 0.406632 -5.26259e-09)
(480.105 1.11594 1.69698e-09)
(480.094 1.61449 -4.79625e-10)
(480.059 2.4525 7.91034e-11)
(480.035 2.93839 -2.60071e-11)
(479.984 3.76849 -5.66469e-10)
(479.939 4.28995 -5.35995e-10)
(479.882 5.04508 6.50318e-11)
(479.808 5.66615 4.68446e-10)
(479.75 6.27077 5.67013e-10)
(479.643 7.06747 4.20204e-10)
(479.586 7.43708 4.01079e-10)
(479.446 8.49201 2.29507e-10)
(479.389 8.5408 -1.73063e-10)
(479.217 9.93204 -3.72948e-10)
(479.159 9.5875 -2.71536e-10)
(478.957 11.3697 -2.29184e-10)
(478.892 10.5969 6.17272e-12)
(478.673 12.7692 3.31356e-10)
(478.58 11.6162 1.63111e-10)
(478.374 14.0431 -1.48808e-10)
(478.203 12.7978 -1.84016e-10)
(478.089 15.0106 8.53747e-11)
(477.747 14.1663 2.06662e-10)
(478.771 0.415753 -5.26808e-09)
(478.76 1.13866 1.6709e-09)
(478.75 1.64891 -5.5739e-10)
(478.716 2.50382 7.3123e-11)
(478.693 2.99994 4.44109e-11)
(478.645 3.84879 -5.31595e-10)
(478.603 4.37888 -5.49348e-10)
(478.548 5.1545 6.61369e-11)
(478.478 5.78284 4.34623e-10)
(478.424 6.40936 4.91719e-10)
(478.322 7.2126 4.21553e-10)
(478.269 7.6047 4.72247e-10)
(478.135 8.66665 2.54483e-10)
(478.083 8.73692 -1.85702e-10)
(477.917 10.1376 -3.68377e-10)
(477.866 9.81085 -2.49772e-10)
(477.67 11.6081 -2.54378e-10)
(477.613 10.8448 -5.89393e-11)
(477.399 13.0439 3.45511e-10)
(477.317 11.8825 1.90158e-10)
(477.114 14.368 -1.68199e-10)
(476.961 13.0635 -1.89809e-10)
(476.844 15.3929 9.78469e-11)
(476.522 14.442 1.80132e-10)
(477.375 0.424198 -5.34738e-09)
(477.363 1.15975 1.65043e-09)
(477.354 1.68073 -5.47405e-10)
(477.321 2.55149 6.06768e-11)
(477.301 3.05685 -3.67624e-12)
(477.254 3.92343 -5.58994e-10)
(477.215 4.46113 -5.38802e-10)
(477.163 5.25628 5.4792e-11)
(477.097 5.8908 4.49152e-10)
(477.047 6.53833 5.30149e-10)
(476.949 7.34699 4.29119e-10)
(476.902 7.7608 4.55751e-10)
(476.773 8.82862 2.67625e-10)
(476.727 8.91981 -1.51903e-10)
(476.567 10.3288 -3.63512e-10)
(476.523 10.0196 -2.73167e-10)
(476.333 11.8305 -2.483e-10)
(476.284 11.0771 -2.49261e-11)
(476.076 13.3009 3.53601e-10)
(476.005 12.1326 2.23592e-10)
(475.805 14.6713 -9.91709e-11)
(475.668 13.312 -2.12278e-10)
(475.549 15.7552 3.6256e-11)
(475.249 14.699 1.52835e-10)
(475.926 0.431952 -5.29195e-09)
(475.915 1.17917 1.72064e-09)
(475.907 1.7099 -5.07282e-10)
(475.875 2.59543 1.00881e-10)
(475.856 3.10905 2.69785e-11)
(475.812 3.99233 -5.35442e-10)
(475.776 4.53663 -5.21627e-10)
(475.727 5.35032 6.86205e-11)
(475.664 5.98997 4.57759e-10)
(475.619 6.6576 5.32208e-10)
(475.525 7.47053 4.24184e-10)
(475.483 7.90524 4.38769e-10)
(475.359 8.9777 2.42542e-10)
(475.32 9.08918 -1.77143e-10)
(475.165 10.5052 -4.03781e-10)
(475.128 10.2132 -3.20729e-10)
(474.945 12.0366 -3.01029e-10)
(474.905 11.2931 -1.30137e-11)
(474.702 13.54 3.55646e-10)
(474.642 12.3662 2.12957e-10)
(474.446 14.9526 -1.12405e-10)
(474.326 13.5432 -1.73616e-10)
(474.204 16.096 7.48085e-11)
(473.927 14.9361 1.81853e-10)
(474.426 0.438999 -5.32954e-09)
(474.415 1.19688 1.69952e-09)
(474.408 1.73637 -5.46796e-10)
(474.377 2.63559 1.01097e-10)
(474.361 3.15646 1.45153e-11)
(474.319 4.05538 -5.64286e-10)
(474.285 4.60526 -5.10451e-10)
(474.239 5.43654 6.33815e-11)
(474.18 6.08025 4.40726e-10)
(474.139 6.7671 5.59919e-10)
(474.05 7.58315 4.3211e-10)
(474.013 8.03799 4.33879e-10)
(473.894 9.1138 2.82039e-10)
(473.861 9.24493 -1.59958e-10)
(473.712 10.6665 -3.9907e-10)
(473.683 10.3913 -2.73559e-10)
(473.505 12.2256 -2.68673e-10)
(473.475 11.4924 -5.94701e-11)
(473.278 13.7604 3.57433e-10)
(473.228 12.5826 2.0182e-10)
(473.037 15.2122 -1.52865e-10)
(472.932 13.7572 -1.62473e-10)
(472.81 16.4144 7.57142e-11)
(472.555 15.1529 1.5959e-10)
(472.874 0.445332 -5.40167e-09)
(472.864 1.21288 1.70645e-09)
(472.857 1.76012 -5.11065e-10)
(472.828 2.67191 6.07743e-11)
(472.813 3.199 2.08008e-11)
(472.773 4.11252 -5.19454e-10)
(472.743 4.66695 -5.50692e-10)
(472.7 5.51484 7.10903e-11)
(472.645 6.16157 4.88665e-10)
(472.607 6.86677 5.23196e-10)
(472.523 7.68481 4.40088e-10)
(472.491 8.15901 4.86264e-10)
(472.377 9.23689 2.49427e-10)
(472.35 9.38701 -1.5497e-10)
(472.208 10.8127 -3.47095e-10)
(472.186 10.5539 -3.04779e-10)
(472.015 12.3975 -2.62695e-10)
(471.993 11.6743 -1.12624e-11)
(471.803 13.9617 3.25249e-10)
(471.764 12.7808 2.08105e-10)
(471.578 15.4503 -9.95024e-11)
(471.488 13.9545 -1.92079e-10)
(471.364 16.7097 8.29587e-11)
(471.132 15.3492 2.07331e-10)
(471.271 0.45095 -5.3857e-09)
(471.261 1.22716 1.751e-09)
(471.255 1.78114 -4.81042e-10)
(471.227 2.70438 9.63304e-11)
(471.214 3.23667 -1.79823e-11)
(471.176 4.16371 -5.62919e-10)
(471.148 4.72165 -5.19493e-10)
(471.109 5.58516 9.90989e-11)
(471.058 6.23385 5.17677e-10)
(471.024 6.95652 5.58564e-10)
(470.944 7.77543 4.01306e-10)
(470.917 8.26827 4.42615e-10)
(470.809 9.34694 2.76941e-10)
(470.788 9.51547 -1.30711e-10)
(470.652 10.9437 -3.28219e-10)
(470.637 10.7008 -2.86983e-10)
(470.472 12.552 -3.11835e-10)
(470.46 11.8386 -5.35891e-11)
(470.276 14.1434 3.40794e-10)
(470.248 12.9602 2.20737e-10)
(470.067 15.6664 -7.94146e-11)
(469.993 14.135 -1.81048e-10)
(469.868 16.9812 2.88217e-11)
(469.659 15.5243 1.60243e-10)
(469.616 0.455861 -5.46725e-09)
(469.606 1.23974 1.68369e-09)
(469.601 1.79946 -5.67902e-10)
(469.574 2.73304 4.75772e-11)
(469.563 3.26949 -1.82155e-11)
(469.527 4.20896 -5.86273e-10)
(469.502 4.76935 -5.67706e-10)
(469.466 5.64747 3.18899e-11)
(469.418 6.29701 4.32722e-10)
(469.389 7.03629 5.13695e-10)
(469.314 7.85492 4.0277e-10)
(469.292 8.36568 4.24326e-10)
(469.189 9.44388 2.29622e-10)
(469.174 9.63029 -1.96682e-10)
(469.044 11.0597 -4.19733e-10)
(469.037 10.8323 -3.25862e-10)
(468.878 12.6891 -3.05731e-10)
(468.874 11.9854 -7.18776e-11)
(468.697 14.3053 3.00604e-10)
(468.681 13.1202 1.66467e-10)
(468.505 15.8598 -1.71123e-10)
(468.445 14.2981 -2.1794e-10)
(468.321 17.2285 3.62248e-11)
(468.135 15.6779 1.48903e-10)
(467.909 0.460076 -5.42439e-09)
(467.899 1.25064 1.72996e-09)
(467.895 1.81512 -5.57392e-10)
(467.869 2.75792 1.1253e-10)
(467.86 3.2975 2.17345e-11)
(467.826 4.24831 -5.67751e-10)
(467.804 4.81009 -5.0184e-10)
(467.771 5.70179 8.16508e-11)
(467.727 6.35107 4.62327e-10)
(467.702 7.10603 5.90939e-10)
(467.631 7.92319 4.5956e-10)
(467.614 8.45115 4.5266e-10)
(467.517 9.52759 3.06593e-10)
(467.509 9.73137 -1.45508e-10)
(467.384 11.1604 -3.86415e-10)
(467.384 10.9482 -3.1383e-10)
(467.231 12.809 -3.13698e-10)
(467.237 12.1147 -3.37498e-11)
(467.066 14.4476 3.23983e-10)
(467.061 13.2606 1.67001e-10)
(466.891 16.0303 -1.22082e-10)
(466.846 14.4428 -1.94154e-10)
(466.722 17.4505 3.67141e-11)
(466.559 15.8099 1.92843e-10)
(466.149 0.463606 -5.44049e-09)
(466.14 1.25989 1.74568e-09)
(466.136 1.82816 -5.53431e-10)
(466.112 2.77908 1.20514e-10)
(466.104 3.32079 2.84025e-11)
(466.073 4.28186 -5.63325e-10)
(466.054 4.84395 -4.96525e-10)
(466.024 5.74819 8.99816e-11)
(465.984 6.39605 4.71474e-10)
(465.962 7.16574 5.31278e-10)
(465.896 7.98021 3.98537e-10)
(465.885 8.52459 4.67877e-10)
(465.793 9.59795 2.5108e-10)
(465.791 9.81859 -1.9995e-10)
(465.672 11.2458 -3.74145e-10)
(465.68 11.0486 -3.01749e-10)
(465.533 12.9117 -3.00634e-10)
(465.548 12.2268 -2.04912e-11)
(465.382 14.5704 3.40628e-10)
(465.389 13.3818 1.80064e-10)
(465.225 16.1784 -1.08705e-10)
(465.194 14.5677 -1.82708e-10)
(465.073 17.6455 5.8349e-11)
(464.933 15.9204 2.12561e-10)
(464.338 0.466463 -5.48274e-09)
(464.329 1.26752 1.80049e-09)
(464.326 1.83863 -5.28744e-10)
(464.303 2.79659 6.23297e-11)
(464.297 3.33942 2.81224e-11)
(464.268 4.30968 -5.08128e-10)
(464.251 4.87101 -5.25633e-10)
(464.224 5.78676 4.15933e-11)
(464.188 6.43206 4.80835e-10)
(464.17 7.21552 5.96547e-10)
(464.109 8.02601 4.49492e-10)
(464.102 8.58601 4.35116e-10)
(464.016 9.65486 2.72972e-10)
(464.02 9.89181 -1.27148e-10)
(463.907 11.3156 -3.90023e-10)
(463.923 11.1333 -3.29094e-10)
(463.783 12.9968 -2.72747e-10)
(463.806 12.3217 -7.03335e-12)
(463.647 14.674 3.42963e-10)
(463.664 13.4841 1.67925e-10)
(463.506 16.3047 -1.38892e-10)
(463.489 14.6718 -1.64559e-10)
(463.371 17.8121 6.62394e-11)
(463.254 16.0093 1.44479e-10)
(462.475 0.468652 -5.53438e-09)
(462.465 1.27353 1.73806e-09)
(462.463 1.84655 -5.65009e-10)
(462.441 2.81047 4.7694e-11)
(462.437 3.35346 -3.4089e-11)
(462.41 4.33183 -6.19766e-10)
(462.396 4.89137 -5.34376e-10)
(462.372 5.81759 1.36007e-10)
(462.339 6.45918 5.32719e-10)
(462.326 7.25545 6.06197e-10)
(462.269 8.06069 4.79726e-10)
(462.267 8.63545 4.85296e-10)
(462.186 9.69833 2.80877e-10)
(462.197 9.95097 -1.62292e-10)
(462.09 11.3698 -3.98949e-10)
(462.113 11.202 -3.16719e-10)
(461.979 13.0643 -3.02919e-10)
(462.012 12.3989 -7.21285e-11)
(461.86 14.758 2.93445e-10)
(461.888 13.5675 1.49067e-10)
(461.735 16.4095 -1.32798e-10)
(461.731 14.756 -1.33212e-10)
(461.617 17.9504 1.26055e-10)
(461.522 16.0757 2.21308e-10)
(460.558 0.470173 -5.58682e-09)
(460.549 1.27794 1.75406e-09)
(460.548 1.85193 -5.33362e-10)
(460.527 2.82074 4.06069e-11)
(460.525 3.36291 -1.38798e-11)
(460.5 4.34836 -5.70848e-10)
(460.488 4.90507 -5.29253e-10)
(460.467 5.84076 1.0137e-10)
(460.438 6.47751 4.50308e-10)
(460.429 7.28564 5.51724e-10)
(460.376 8.08434 4.60131e-10)
(460.38 8.67304 4.2402e-10)
(460.304 9.72843 2.45241e-10)
(460.321 9.99614 -1.70394e-10)
(460.22 11.4082 -3.78939e-10)
(460.251 11.2545 -2.70471e-10)
(460.123 13.1137 -2.964e-10)
(460.166 12.4581 -3.881e-11)
(460.019 14.822 3.62262e-10)
(460.059 13.6316 1.62324e-10)
(459.912 16.4927 -1.64119e-10)
(459.922 14.8206 -1.91438e-10)
(459.811 18.0611 8.92646e-11)
(459.737 16.1203 2.09296e-10)
(458.589 0.471024 -5.54158e-09)
(458.58 1.28074 1.78618e-09)
(458.58 1.85478 -5.56592e-10)
(458.56 2.8274 5.58503e-11)
(458.56 3.36779 -2.80991e-11)
(458.537 4.35925 -5.51185e-10)
(458.528 4.91212 -5.52258e-10)