/*--------------------------------*- C++ -*----------------------------------*\
  =========                 |
  \\      /  F ield         | OpenFOAM: The Open Source CFD Toolbox
   \\    /   O peration     | Website:  https://openfoam.org
    \\  /    A nd           | Version:  10
     \\/     M anipulation  |
\*---------------------------------------------------------------------------*/
FoamFile
{
    format      ascii;
    class       volScalarField;
    location    "0.01";
    object      p;
}
// * * * * * * * * * * * * * * * * * * * * * * * * * * * * * * * * * * * * * //

dimensions      [1 -1 -2 0 0 0 0];

internalField   nonuniform List<scalar> 
4176
(
3788.26
3788.32
3788.42
3788.59
3788.8
3789.08
3789.4
3789.78
3790.22
3790.71
3791.27
3791.86
3792.56
3793.26
3794.1
3794.92
3795.9
3796.87
3797.95
3799.19
3800.13
3801.97
3802.35
3804.78
3858.15
3858.21
3858.31
3858.48
3858.7
3858.98
3859.31
3859.7
3860.14
3860.64
3861.21
3861.82
3862.53
3863.24
3864.1
3864.94
3865.94
3866.93
3868.05
3869.3
3870.41
3872.17
3872.95
3875.75
3938.25
3938.31
3938.42
3938.6
3938.82
3939.1
3939.43
3939.83
3940.27
3940.77
3941.35
3941.95
3942.66
3943.37
3944.22
3945.05
3946.04
3947.02
3948.13
3949.35
3950.46
3952.15
3952.98
3955.77
4017.86
4017.93
4018.04
4018.22
4018.44
4018.73
4019.05
4019.44
4019.88
4020.37
4020.94
4021.53
4022.23
4022.91
4023.75
4024.55
4025.52
4026.45
4027.53
4028.7
4029.69
4031.37
4032.02
4034.49
4097.69
4097.77
4097.88
4098.06
4098.27
4098.55
4098.87
4099.25
4099.68
4100.15
4100.71
4101.27
4101.95
4102.6
4103.42
4104.16
4105.11
4105.98
4107.02
4108.11
4109.03
4110.62
4111.2
4113.45
4177.88
4177.96
4178.07
4178.25
4178.46
4178.73
4179.04
4179.41
4179.82
4180.27
4180.8
4181.33
4181.99
4182.6
4183.39
4184.08
4184.99
4185.79
4186.79
4187.77
4188.69
4190.13
4190.72
4192.83
4258.46
4258.55
4258.66
4258.83
4259.04
4259.3
4259.6
4259.94
4260.34
4260.76
4261.27
4261.76
4262.4
4262.94
4263.71
4264.33
4265.2
4265.93
4266.87
4267.77
4268.66
4269.96
4270.53
4272.47
4339.6
4339.69
4339.79
4339.97
4340.16
4340.41
4340.69
4341.02
4341.4
4341.79
4342.28
4342.71
4343.34
4343.81
4344.56
4345.09
4345.94
4346.57
4347.47
4348.27
4349.13
4350.27
4350.83
4352.58
4421.29
4421.39
4421.49
4421.66
4421.84
4422.09
4422.35
4422.66
4423.02
4423.36
4423.85
4424.21
4424.84
4425.2
4425.97
4426.37
4427.23
4427.73
4428.62
4429.29
4430.11
4431.11
4431.65
4433.21
4503.7
4503.8
4503.89
4504.06
4504.23
4504.46
4504.7
4504.99
4505.34
4505.63
4506.11
4506.4
4507.01
4507.31
4508.05
4508.36
4509.2
4509.58
4510.45
4510.98
4511.77
4512.61
4513.14
4514.5
4586.76
4586.86
4586.96
4587.12
4587.28
4587.5
4587.73
4587.99
4588.3
4588.58
4589
4589.27
4589.83
4590.07
4590.77
4591
4591.8
4592.08
4592.91
4593.32
4594.08
4594.75
4595.27
4596.43
4670.68
4670.78
4670.88
4671.02
4671.18
4671.38
4671.59
4671.83
4672.1
4672.36
4672.73
4672.98
4673.47
4673.68
4674.32
4674.48
4675.23
4675.41
4676.21
4676.48
4677.22
4677.73
4678.23
4679.2
4755.35
4755.45
4755.54
4755.68
4755.83
4756.01
4756.2
4756.42
4756.66
4756.9
4757.22
4757.44
4757.86
4758.05
4758.59
4758.72
4759.41
4759.49
4760.25
4760.39
4761.1
4761.45
4761.93
4762.7
4840.93
4841.04
4841.13
4841.26
4841.4
4841.56
4841.73
4841.93
4842.14
4842.34
4842.62
4842.81
4843.17
4843.32
4843.8
4843.88
4844.48
4844.49
4845.2
4845.22
4845.89
4846.09
4846.54
4847.12
4927.36
4927.47
4927.56
4927.69
4927.81
4927.96
4928.11
4928.28
4928.46
4928.63
4928.87
4929.02
4929.33
4929.43
4929.84
4929.87
4930.4
4930.34
4930.98
4930.88
4931.52
4931.56
4931.99
4932.37
5014.8
5014.91
5014.99
5015.11
5015.22
5015.36
5015.49
5015.63
5015.79
5015.93
5016.12
5016.23
5016.49
5016.54
5016.9
5016.86
5017.33
5017.19
5017.76
5017.56
5018.16
5018.04
5018.46
5018.65
5103.08
5103.2
5103.28
5103.39
5103.49
5103.61
5103.72
5103.84
5103.96
5104.07
5104.22
5104.29
5104.5
5104.5
5104.8
5104.7
5105.11
5104.89
5105.39
5105.08
5105.64
5105.36
5105.76
5105.76
5192.5
5192.62
5192.7
5192.81
5192.89
5193
5193.08
5193.18
5193.27
5193.35
5193.46
5193.5
5193.66
5193.6
5193.85
5193.68
5194.03
5193.73
5194.17
5193.75
5194.26
5193.84
5194.22
5194.02
5282.77
5282.89
5282.96
5283.06
5283.14
5283.22
5283.29
5283.36
5283.43
5283.48
5283.54
5283.54
5283.65
5283.54
5283.73
5283.5
5283.79
5283.4
5283.79
5283.26
5283.73
5283.16
5283.51
5283.12
5374.22
5374.35
5374.41
5374.51
5374.57
5374.65
5374.69
5374.74
5374.77
5374.79
5374.82
5374.77
5374.83
5374.68
5374.81
5374.51
5374.74
5374.27
5374.61
5373.97
5374.39
5373.67
5374
5373.43
5466.59
5466.72
5466.79
5466.88
5466.93
5466.99
5467.01
5467.04
5467.04
5467.03
5467.01
5466.93
5466.94
5466.73
5466.82
5466.44
5466.63
5466.06
5466.35
5465.61
5465.98
5465.12
5465.43
5464.68
5560.12
5560.26
5560.31
5560.4
5560.44
5560.48
5560.49
5560.49
5560.46
5560.42
5560.36
5560.24
5560.2
5559.94
5559.97
5559.53
5559.66
5559.01
5559.25
5558.4
5558.73
5557.73
5558.01
5557.08
5654.67
5654.81
5654.86
5654.94
5654.97
5655
5654.98
5654.96
5654.9
5654.83
5654.73
5654.57
5654.48
5654.18
5654.15
5653.65
5653.72
5652.99
5653.18
5652.22
5652.51
5651.38
5651.63
5650.53
5750.33
5750.48
5750.53
5750.6
5750.61
5750.63
5750.59
5750.54
5750.46
5750.35
5750.21
5750.02
5749.88
5749.53
5749.45
5748.88
5748.9
5748.08
5748.22
5747.16
5747.41
5746.15
5746.37
5745.1
5847.07
5847.22
5847.27
5847.34
5847.34
5847.34
5847.28
5847.21
5847.1
5846.95
5846.78
5846.56
5846.35
5845.96
5845.82
5845.19
5845.16
5844.27
5844.36
5843.19
5843.39
5842.01
5842.2
5840.76
5944.92
5945.07
5945.12
5945.18
5945.17
5945.15
5945.08
5944.98
5944.84
5944.66
5944.45
5944.19
5943.93
5943.5
5943.31
5942.62
5942.53
5941.56
5941.6
5940.33
5940.49
5938.98
5939.15
5937.55
6043.87
6044.02
6044.06
6044.12
6044.09
6044.06
6043.97
6043.84
6043.68
6043.47
6043.22
6042.92
6042.61
6042.14
6041.89
6041.15
6041
6039.96
6039.95
6038.58
6038.7
6037.07
6037.21
6035.45
6143.91
6144.07
6144.1
6144.16
6144.12
6144.07
6143.96
6143.81
6143.62
6143.38
6143.09
6142.75
6142.4
6141.89
6141.58
6140.78
6140.58
6139.47
6139.41
6137.95
6138.02
6136.28
6136.39
6134.48
6245.05
6245.22
6245.25
6245.3
6245.24
6245.18
6245.05
6244.88
6244.65
6244.38
6244.06
6243.69
6243.28
6242.74
6242.37
6241.53
6241.27
6240.08
6239.96
6238.44
6238.46
6236.61
6236.68
6234.63
6347.29
6347.46
6347.48
6347.53
6347.46
6347.38
6347.23
6347.04
6346.79
6346.48
6346.13
6345.72
6345.27
6344.69
6344.25
6343.37
6343.06
6341.81
6341.65
6340.03
6340
6338.05
6338.1
6335.91
6450.61
6450.79
6450.8
6450.84
6450.77
6450.68
6450.51
6450.29
6450.01
6449.68
6449.29
6448.84
6448.34
6447.73
6447.24
6446.32
6445.94
6444.64
6444.42
6442.73
6442.65
6440.61
6440.62
6438.3
6555.01
6555.19
6555.2
6555.24
6555.15
6555.04
6554.86
6554.62
6554.31
6553.95
6553.52
6553.04
6552.5
6551.86
6551.31
6550.35
6549.91
6548.56
6548.28
6546.53
6546.4
6544.27
6544.25
6541.8
6660.47
6660.66
6660.66
6660.7
6660.6
6660.48
6660.27
6660.01
6659.68
6659.29
6658.84
6658.32
6657.74
6657.06
6656.45
6655.46
6654.97
6653.57
6653.24
6651.42
6651.24
6649.03
6648.98
6646.41
6766.98
6767.17
6767.18
6767.2
6767.1
6766.96
6766.74
6766.46
6766.11
6765.69
6765.21
6764.65
6764.03
6763.33
6762.66
6761.65
6761.09
6759.66
6759.26
6757.4
6757.17
6754.87
6754.8
6752.12
6874.52
6874.72
6874.72
6874.74
6874.63
6874.48
6874.25
6873.95
6873.58
6873.13
6872.62
6872.03
6871.38
6870.64
6869.93
6868.88
6868.27
6866.8
6866.35
6864.44
6864.16
6861.8
6861.69
6858.91
6983.08
6983.28
6983.28
6983.3
6983.18
6983.02
6982.77
6982.45
6982.06
6981.6
6981.06
6980.44
6979.76
6978.99
6978.23
6977.16
6976.49
6975
6974.49
6972.54
6972.21
6969.79
6969.65
6966.77
7092.62
7092.83
7092.83
7092.84
7092.72
7092.55
7092.29
7091.96
7091.55
7091.06
7090.5
7089.86
7089.15
7088.35
7087.54
7086.46
7085.73
7084.22
7083.66
7081.67
7081.29
7078.82
7078.65
7075.68
7203.14
7203.35
7203.35
7203.36
7203.23
7203.06
7202.79
7202.44
7202.02
7201.51
7200.93
7200.27
7199.53
7198.71
7197.86
7196.76
7195.98
7194.45
7193.84
7191.82
7191.4
7188.88
7188.68
7185.64
7314.6
7314.82
7314.82
7314.83
7314.69
7314.51
7314.23
7313.87
7313.44
7312.92
7312.32
7311.64
7310.88
7310.03
7309.15
7308.04
7307.21
7305.68
7305
7302.97
7302.5
7299.94
7299.72
7296.6
7426.98
7427.2
7427.2
7427.21
7427.07
7426.88
7426.6
7426.23
7425.79
7425.25
7424.64
7423.94
7423.17
7422.31
7421.4
7420.28
7419.39
7417.86
7417.14
7415.1
7414.58
7411.99
7411.74
7408.57
7540.24
7540.47
7540.47
7540.48
7540.34
7540.15
7539.86
7539.49
7539.04
7538.49
7537.87
7537.16
7536.37
7535.49
7534.56
7533.44
7532.52
7530.99
7530.21
7528.17
7527.6
7525
7524.71
7521.49
7654.36
7654.59
7654.6
7654.6
7654.47
7654.28
7653.99
7653.61
7653.15
7652.61
7651.97
7651.26
7650.46
7649.57
7648.62
7647.5
7646.54
7645.02
7644.19
7642.16
7641.55
7638.93
7638.62
7635.35
7769.29
7769.53
7769.54
7769.55
7769.42
7769.23
7768.94
7768.56
7768.1
7767.55
7766.92
7766.19
7765.39
7764.5
7763.54
7762.41
7761.42
7759.91
7759.04
7757.02
7756.37
7753.75
7753.41
7750.11
7885
7885.25
7885.26
7885.27
7885.15
7884.96
7884.67
7884.3
7883.84
7883.29
7882.65
7881.93
7881.12
7880.23
7879.26
7878.14
7877.12
7875.63
7874.72
7872.72
7872.03
7869.41
7869.05
7865.72
8001.44
8001.68
8001.71
8001.72
8001.61
8001.42
8001.14
8000.77
8000.31
7999.76
7999.13
7998.41
7997.61
7996.71
7995.74
7994.63
7993.59
7992.12
7991.18
7989.19
7988.47
7985.86
7985.48
7982.14
8118.53
8118.78
8118.81
8118.83
8118.72
8118.54
8118.26
8117.9
8117.45
8116.91
8116.28
8115.57
8114.77
8113.88
8112.91
8111.81
8110.76
8109.31
8108.34
8106.38
8105.63
8103.03
8102.63
8099.29
8236.19
8236.45
8236.49
8236.51
8236.41
8236.24
8235.97
8235.62
8235.17
8234.64
8234.02
8233.32
8232.52
8231.64
8230.68
8229.59
8228.53
8227.11
8226.12
8224.19
8223.41
8220.84
8220.42
8217.08
8354.32
8354.58
8354.63
8354.66
8354.56
8354.4
8354.14
8353.79
8353.36
8352.84
8352.24
8351.54
8350.76
8349.88
8348.93
8347.85
8346.8
8345.4
8344.39
8342.5
8341.7
8339.16
8338.72
8335.41
8472.75
8473.02
8473.08
8473.11
8473.03
8472.87
8472.62
8472.29
8471.86
8471.36
8470.76
8470.08
8469.31
8468.45
8467.51
8466.45
8465.4
8464.03
8463.01
8461.15
8460.34
8457.85
8457.38
8454.1
8591.29
8591.57
8591.62
8591.67
8591.59
8591.44
8591.2
8590.88
8590.47
8589.98
8589.39
8588.73
8587.97
8587.13
8586.21
8585.16
8584.12
8582.78
8581.76
8579.95
8579.11
8576.68
8576.19
8572.96
8709.65
8709.94
8709.99
8710.04
8709.97
8709.84
8709.61
8709.3
8708.9
8708.42
8707.85
8707.2
8706.46
8705.64
8704.73
8703.71
8702.69
8701.37
8700.36
8698.6
8697.75
8695.39
8694.88
8691.71
8827.46
8827.75
8827.8
8827.87
8827.8
8827.68
8827.46
8827.16
8826.78
8826.31
8825.76
8825.13
8824.41
8823.6
8822.73
8821.71
8820.74
8819.44
8818.44
8816.75
8815.87
8813.6
8813.07
8809.99
8944.23
8944.52
8944.58
8944.66
8944.58
8944.48
8944.27
8943.98
8943.62
8943.17
8942.63
8942.02
8941.32
8940.55
8939.7
8938.7
8937.76
8936.5
8935.51
8933.9
8933.01
8930.84
8930.28
8927.3
9059.33
9059.62
9059.68
9059.76
9059.71
9059.6
9059.4
9059.13
9058.78
9058.35
9057.84
9057.25
9056.57
9055.82
9054.99
9054.07
9053.12
9051.93
9050.95
9049.43
9048.53
9046.48
9045.89
9043.05
9171.96
9172.25
9172.31
9172.39
9172.35
9172.25
9172.06
9171.81
9171.47
9171.06
9170.57
9170.01
9169.37
9168.65
9167.85
9166.98
9166.04
9164.95
9163.98
9162.54
9161.64
9159.73
9159.13
9156.44
9281.15
9281.43
9281.5
9281.57
9281.54
9281.45
9281.28
9281.04
9280.72
9280.34
9279.88
9279.34
9278.74
9278.05
9277.3
9276.47
9275.57
9274.57
9273.6
9272.3
9271.41
9269.64
9269.03
9266.52
9385.75
9386.01
9386.09
9386.16
9386.14
9386.05
9385.9
9385.67
9385.38
9385.02
9384.59
9384.09
9383.53
9382.89
9382.19
9381.41
9380.57
9379.65
9378.72
9377.54
9376.67
9375.06
9374.46
9372.14
9484.46
9484.71
9484.79
9484.85
9484.84
9484.76
9484.62
9484.42
9484.15
9483.82
9483.43
9482.97
9482.45
9481.87
9481.22
9480.51
9479.74
9478.9
9478.02
9476.98
9476.14
9474.71
9474.11
9472.03
9575.91
9576.14
9576.22
9576.28
9576.28
9576.21
9576.09
9575.91
9575.67
9575.37
9575.02
9574.6
9574.14
9573.61
9573.03
9572.39
9571.69
9570.94
9570.14
9569.23
9568.44
9567.2
9566.63
9564.79
9658.79
9659
9659.08
9659.13
9659.13
9659.07
9658.97
9658.81
9658.6
9658.34
9658.03
9657.67
9657.26
9656.8
9656.28
9655.72
9655.11
9654.45
9653.75
9652.97
9652.25
9651.2
9650.67
9649.09
9732.01
9732.19
9732.26
9732.31
9732.31
9732.27
9732.18
9732.05
9731.87
9731.65
9731.38
9731.08
9730.72
9730.33
9729.89
9729.41
9728.89
9728.33
9727.73
9727.07
9726.44
9725.57
9725.1
9723.78
9794.88
9795.04
9795.1
9795.15
9795.15
9795.12
9795.05
9794.94
9794.79
9794.61
9794.39
9794.13
9793.84
9793.51
9793.15
9792.76
9792.32
9791.86
9791.36
9790.82
9790.29
9789.59
9789.18
9788.12
9847.22
9847.35
9847.41
9847.45
9847.46
9847.43
9847.37
9847.29
9847.17
9847.03
9846.85
9846.65
9846.41
9846.15
9845.86
9845.54
9845.2
9844.82
9844.42
9844
9843.56
9843.02
9842.68
9841.85
9889.38
9889.49
9889.53
9889.57
9889.57
9889.55
9889.51
9889.45
9889.36
9889.25
9889.11
9888.95
9888.77
9888.57
9888.34
9888.1
9887.83
9887.54
9887.23
9886.91
9886.57
9886.16
9885.89
9885.26
9922.19
9922.27
9922.31
9922.33
9922.34
9922.33
9922.3
9922.25
9922.18
9922.1
9922
9921.88
9921.74
9921.59
9921.43
9921.24
9921.04
9920.83
9920.6
9920.35
9920.1
9919.81
9919.6
9919.14
9946.83
9946.89
9946.92
9946.94
9946.95
9946.94
9946.92
9946.89
9946.84
9946.78
9946.71
9946.62
9946.53
9946.42
9946.29
9946.16
9946.02
9945.87
9945.7
9945.53
9945.34
9945.14
9944.98
9944.67
9964.71
9964.75
9964.77
9964.79
9964.79
9964.79
9964.77
9964.75
9964.72
9964.68
9964.63
9964.57
9964.5
9964.43
9964.34
9964.25
9964.15
9964.04
9963.93
9963.81
9963.68
9963.55
9963.44
9963.22
9977.23
9977.26
9977.27
9977.29
9977.29
9977.29
9977.28
9977.26
9977.24
9977.22
9977.18
9977.14
9977.1
9977.05
9976.99
9976.93
9976.86
9976.79
9976.72
9976.64
9976.55
9976.46
9976.39
9976.25
9985.71
9985.73
9985.74
9985.75
9985.75
9985.75
9985.75
9985.74
9985.72
9985.71
9985.68
9985.66
9985.63
9985.6
9985.56
9985.52
9985.48
9985.43
9985.38
9985.33
9985.28
9985.22
9985.17
9985.09
9991.27
9991.28
9991.29
9991.3
9991.3
9991.3
9991.3
9991.29
9991.28
9991.27
9991.26
9991.24
9991.22
9991.2
9991.18
9991.16
9991.13
9991.1
9991.07
9991.04
9991.01
9990.97
9990.94
9990.89
9994.8
9994.81
9994.82
9994.82
9994.82
9994.82
9994.82
9994.82
9994.81
9994.81
9994.8
9994.79
9994.78
9994.76
9994.75
9994.74
9994.72
9994.7
9994.69
9994.67
9994.65
9994.63
9994.61
9994.58
9996.98
9996.99
9996.99
9996.99
9996.99
9997
9996.99
9996.99
9996.99
9996.99
9996.98
9996.98
9996.97
9996.96
9996.95
9996.95
9996.94
9996.93
9996.92
9996.9
9996.89
9996.88
9996.87
9996.85
9998.29
9998.29
9998.3
9998.3
9998.3
9998.3
9998.3
9998.3
9998.29
9998.29
9998.29
9998.29
9998.28
9998.28
9998.27
9998.27
9998.26
9998.26
9998.25
9998.25
9998.24
9998.23
9998.23
9998.22
9999.05
9999.06
9999.06
9999.06
9999.06
9999.06
9999.06
9999.06
9999.06
9999.06
9999.05
9999.05
9999.05
9999.05
9999.05
9999.04
9999.04
9999.04
9999.03
9999.03
9999.03
9999.02
9999.02
9999.02
9999.49
9999.49
9999.49
9999.49
9999.49
9999.49
9999.49
9999.49
9999.49
9999.49
9999.49
9999.49
9999.49
9999.48
9999.48
9999.48
9999.48
9999.48
9999.48
9999.48
9999.47
9999.47
9999.47
9999.47
9999.73
9999.73
9999.73
9999.73
9999.73
9999.73
9999.73
9999.73
9999.73
9999.73
9999.73
9999.73
9999.73
9999.73
9999.73
9999.73
9999.72
9999.72
9999.72
9999.72
9999.72
9999.72
9999.72
9999.72
9999.86
9999.86
9999.86
9999.86
9999.86
9999.86
9999.86
9999.86
9999.86
9999.86
9999.86
9999.86
9999.86
9999.86
9999.86
9999.86
9999.86
9999.86
9999.86
9999.86
9999.86
9999.86
9999.85
9999.85
9999.93
9999.93
9999.93
9999.93
9999.93
9999.93
9999.93
9999.93
9999.93
9999.93
9999.93
9999.93
9999.93
9999.93
9999.93
9999.93
9999.93
9999.93
9999.93
9999.93
9999.93
9999.93
9999.93
9999.93
9999.96
9999.96
9999.96
9999.96
9999.96
9999.96
9999.96
9999.96
9999.96
9999.96
9999.96
9999.96
9999.96
9999.96
9999.96
9999.96
9999.96
9999.96
9999.96
9999.96
9999.96
9999.96
9999.96
9999.96
9999.98
9999.98
9999.98
9999.98
9999.98
9999.98
9999.98
9999.98
9999.98
9999.98
9999.98
9999.98
9999.98
9999.98
9999.98
9999.98
9999.98
9999.98
9999.98
9999.98
9999.98
9999.98
9999.98
9999.98
9999.99
9999.99
9999.99
9999.99
9999.99
9999.99
9999.99
9999.99
9999.99
9999.99
9999.99
9999.99
9999.99
9999.99
9999.99
9999.99
9999.99
9999.99
9999.99
9999.99
9999.99
9999.99
9999.99
9999.99
10000
10000
10000
10000
10000
10000
10000
10000
10000
10000
10000
10000
10000
10000
10000
10000
10000
10000
10000
10000
10000
10000
10000
10000
10000
10000
10000
10000
10000
10000
10000
10000
10000
10000
10000
10000
10000
10000
10000
10000
10000
10000
10000
10000
10000
10000
10000
10000
10000
10000
10000
10000
10000
10000
10000
10000
10000
10000
10000
10000
10000
10000
10000
10000
10000
10000
10000
10000
10000
10000
10000
10000
10000
10000
10000
10000
10000
10000
10000
10000
10000
10000
10000
10000
10000
10000
10000
10000
10000
10000
10000
10000
10000
10000
10000
10000
10000
10000
10000
10000
10000
10000
10000
10000
10000
10000
10000
10000
10000
10000
10000
10000
10000
10000
10000
10000
10000
10000
10000
10000
10000
10000
10000
10000
10000
10000
10000
10000
10000
10000
10000
10000
10000
10000
10000
10000
10000
10000
10000
10000
10000
10000
10000
10000
10000
10000
10000
10000
10000
10000
10000
10000
10000
10000
10000
10000
10000
10000
10000
10000
10000
10000
10000
10000
10000
10000
10000
10000
10000
10000
10000
10000
10000
10000
10000
10000
10000
10000
10000
10000
10000
10000
10000
10000
10000
10000
10000
10000
10000
10000
10000
10000
10000
10000
10000
10000
10000
10000
10000
10000
10000
10000
10000
10000
10000
10000
10000
10000
10000
10000
10000
10000
10000
10000
10000
10000
10000
10000
10000
10000
10000
10000
10000
10000
10000
10000
10000
10000
10000
10000
10000
10000
10000
10000
10000
10000
10000
10000
10000
10000
10000
10000
10000
10000
10000
10000
10000
10000
10000
10000
10000
10000
10000
10000
10000
10000
10000
10000
10000
10000
10000
10000
10000
10000
10000
10000
10000
10000
10000
10000
10000
10000
10000
10000
10000
10000
10000
10000
10000
10000
10000
10000
10000
10000
10000
10000
10000
10000
10000
10000
10000
10000
10000
10000
10000
10000
10000
10000
10000
10000
10000
10000
10000
10000
10000
10000
10000
10000
10000
10000
10000
10000
10000
10000
10000
10000
10000
10000
10000
10000
10000
10000
10000
10000
10000
10000
10000
10000
10000
10000
10000
10000
10000
10000
10000
10000
10000
10000
10000
10000
10000
10000
10000
10000
10000
10000
10000
10000
10000
10000
10000
10000
10000
10000
10000
10000
10000
10000
10000
10000
10000
10000
10000
10000
10000
10000
10000
10000
10000
10000
10000
10000
10000
10000
10000
10000
10000
10000
10000
10000
10000
10000
10000
10000
10000
10000
10000
10000
10000
10000
10000
10000
10000
10000
10000
10000
10000
10000
10000
10000
10000
10000
10000
10000
10000
10000
10000
10000
10000
10000
10000
10000
10000
10000
10000
10000
10000
10000
10000
10000
10000
10000
10000
10000
10000
10000
10000
10000
10000
10000
10000
10000
10000
10000
10000
10000
10000
10000
10000
10000
10000
10000
10000
10000
10000
10000
10000
10000
10000
10000
10000
10000
10000
10000
10000
10000
10000
10000
10000
10000
10000
10000
10000
10000
10000
10000
10000
10000
10000
10000
10000
10000
10000
10000
10000
10000
10000
10000
10000
10000
10000
10000
10000
10000
10000
10000
10000
10000
10000
10000
10000
10000
10000
10000
10000
10000
10000
10000
10000
10000
10000
10000
10000
10000
10000
10000
10000
10000
10000
10000
10000
10000
10000
10000
10000
10000
10000
10000
10000
10000
10000
10000
10000
10000
10000
10000
10000
10000
10000
10000
10000
10000
10000
10000
10000
10000
10000
10000
10000
10000
10000
10000
10000
10000
10000
10000
10000
10000
10000
10000
10000
10000
10000
10000
10000
10000
10000
10000
10000
10000
10000
10000
10000
10000
10000
10000
10000
10000
10000
10000
10000
10000
10000
10000
10000
10000
10000
10000
10000
10000
10000
10000
10000
10000
10000
10000
10000
10000
10000
10000
10000
10000
10000
10000
10000
10000
10000
10000
10000
10000
10000
10000
10000
10000
10000
10000
10000
10000
10000
10000
10000
10000
10000
10000
10000
10000
10000
10000
10000
10000
10000
10000
10000
10000
10000
10000
10000
10000
10000
10000
10000
10000
10000
10000
10000
10000
10000
10000
10000
10000
10000
10000
10000
10000
10000
10000
10000
10000
10000
10000
10000
10000
10000
10000
10000
10000
10000
10000
10000
10000
10000
10000
10000
10000
10000
10000
10000
10000
10000
10000
10000
10000
10000
10000
10000
10000
10000
10000
10000
10000
10000
10000
10000
10000
10000
10000
10000
10000
10000
10000
10000
10000
10000
10000
10000
10000
10000
10000
10000
10000
10000
10000
10000
10000
10000
10000
10000
10000
10000
10000
10000
10000
10000
10000
10000
10000
10000
10000
10000
10000
10000
10000
10000
10000
10000
10000
10000
10000
10000
10000
10000
10000
10000
10000
10000
10000
10000
10000
10000
10000
10000
10000
10000
10000
10000
10000
10000
10000
10000
10000
10000
10000
10000
10000
10000
10000
10000
10000
10000
10000
10000
10000
10000
10000
10000
10000
10000
10000
10000
10000
10000
10000
10000
10000
10000
10000
10000
10000
10000
10000
10000
10000
10000
10000
10000
10000
10000
10000
10000
10000
10000
10000
10000
10000
10000
10000
10000
10000
10000
10000
10000
10000
10000
10000
10000
10000
10000
10000
10000
10000
10000
10000
10000
10000
10000
10000
10000
10000
10000
10000
10000
10000
10000
10000
10000
10000
10000
10000
10000
10000
10000
10000
10000
10000
10000
10000
10000
10000
10000
10000
10000
10000
10000
10000
10000
10000
10000
10000
10000
10000
10000
10000
10000
10000
10000
10000
10000
10000
10000
10000
10000
10000
10000
10000
10000
10000
10000
10000
10000
10000
10000
10000
10000
10000
10000
10000
10000
10000
10000
10000
10000
10000
10000
10000
10000
10000
10000
10000
10000
10000
10000
10000
10000
10000
10000
10000
10000
10000
10000
10000
10000
10000
10000
10000
10000
10000
10000
10000
10000
10000
10000
10000
10000
10000
10000
10000
10000
10000
10000
10000
10000
10000
10000
10000
10000
10000
10000
10000
10000
10000
10000
10000
10000
10000
10000
10000
10000
10000
10000
10000
10000
10000
10000
10000
10000
10000
10000
10000
10000
10000
10000
10000
10000
10000
10000
10000
10000
10000
10000
10000
10000
10000
10000
10000
10000
10000
10000
10000
10000
10000
10000
10000
10000
10000
10000
10000
10000
10000
10000
10000
10000
10000
10000
10000
10000
10000
10000
10000
10000
10000
10000
10000
10000
10000
10000
10000
10000
10000
10000
10000
10000
10000
10000
10000
10000
10000
10000
10000
10000
10000
10000
10000
10000
10000
10000
10000
10000
10000
10000
10000
10000
10000
10000
10000
10000
10000
10000
10000
10000
10000
10000
10000
10000
10000
10000
10000
10000
10000
10000
10000
10000
10000
10000
10000
10000
10000
10000
10000
10000
10000
10000
10000
10000
10000
10000
10000
10000
10000
10000
10000
10000
10000
10000
10000
10000
10000
10000
10000
10000
10000
10000
10000
10000
10000
10000
10000
10000
10000
10000
10000
10000
10000
10000
10000
10000
10000
10000
10000
10000
10000
10000
10000
10000
10000
10000
10000
10000
10000
10000
10000
10000
10000
10000
10000
10000
10000
10000
10000
10000
10000
10000
10000
10000
10000
10000
10000
10000
10000
10000
10000
10000
10000
10000
10000
10000
10000
10000
10000
10000
10000
10000
10000
10000
10000
10000
10000
10000
10000
10000
10000
10000
10000
10000
10000
10000
10000
10000
10000
10000
10000
10000
10000
10000
10000
10000
10000
10000
10000
10000
10000
10000
10000
10000
10000
10000
10000
10000
10000
10000
10000
10000
10000
10000
10000
10000
10000
10000
10000
10000
10000
10000
10000
10000
10000
10000
10000
10000
10000
10000
10000
10000
10000
10000
10000
10000
10000
10000
10000
10000
10000
10000
10000
10000
10000
10000
10000
10000
10000
10000
10000
10000
10000
10000
10000
10000
10000
10000
10000
10000
10000
10000
10000
10000
10000
10000
10000
10000
10000
10000
10000
10000
10000
10000
10000
10000
10000
10000
10000
10000
10000
10000
10000
10000
10000
10000
10000
10000
10000
10000
10000
10000
10000
10000
10000
10000
10000
10000
10000
10000
10000
10000
10000
10000
10000
10000
10000
10000
10000
10000
10000
10000
10000
10000
10000
10000
10000
10000
10000
10000
10000
10000
10000
10000
10000
10000
10000
10000
10000
10000
10000
10000
10000
10000
10000
10000
10000
10000
10000
10000
10000
10000
10000
10000
10000
10000
10000
10000
10000
10000
10000
10000
10000
10000
10000
10000
10000
10000
10000
10000
10000
10000
10000
10000
10000
10000
10000
10000
10000
10000
10000
10000
10000
10000
10000
10000
10000
10000
10000
10000
10000
10000
10000
10000
10000
10000
10000
10000
10000
10000
10000
10000
10000
10000
10000
10000
10000
10000
10000
10000
10000
10000
10000
10000
10000
10000
10000
10000
10000
10000
10000
10000
10000
10000
10000
10000
10000
10000
10000
10000
10000
10000
10000
10000
10000
10000
10000
10000
10000
10000
10000
10000
10000
10000
10000
10000
10000
10000
10000
10000
10000
10000
10000
10000
10000
10000
10000
10000
10000
10000
10000
10000
10000
10000
10000
10000
10000
10000
10000
10000
10000
10000
10000
10000
10000
10000
10000
10000
10000
10000
10000
10000
10000
10000
10000
10000
10000
10000
10000
10000
10000
10000
10000
10000
10000
10000
10000
10000
10000
10000
10000
10000
10000
10000
10000
10000
10000
10000
10000
10000
10000
10000
10000
10000
10000
10000
10000
10000
10000
10000
10000
10000
10000
10000
10000
10000
10000
10000
10000
10000
10000
10000
10000
10000
10000
10000
10000
10000
10000
10000
10000
10000
10000
10000
10000
10000
10000
10000
10000
10000
10000
10000
10000
10000
10000
10000
10000
10000
10000
10000
10000
10000
10000
10000
10000
10000
10000
10000
10000
10000
10000
10000
10000
10000
10000
10000
10000
10000
10000
10000
10000
10000
10000
10000
10000
10000
10000
10000
10000
10000
10000
10000
10000
10000
10000
10000
10000
10000
10000
10000
10000
10000
10000
10000
10000
10000
10000
10000
10000
10000
10000
10000
10000
10000
10000
10000
10000
10000
10000
10000
10000
10000
10000
10000
10000
10000
10000
10000
10000
10000
10000
10000
10000
10000
10000
10000
10000
10000
10000
10000
10000
10000
10000
10000
10000
10000
10000
10000
10000
10000
10000
10000
10000
10000
10000
10000
10000
10000
10000
10000
10000
10000
10000
10000
10000
10000
10000
10000
10000
10000
10000
10000
10000
10000
10000
10000
10000
10000
10000
10000
10000
10000
10000
10000
10000
10000
10000
10000
10000
10000
10000
10000
10000
10000
10000
10000
10000
10000
10000
10000
10000
10000
10000
10000
10000
10000
10000
10000
10000
10000
10000
10000
10000
10000
10000
10000
10000
10000
10000
10000
10000
10000
10000
10000
10000
10000
10000
10000
10000
10000
10000
10000
10000
10000
10000
10000
10000
10000
10000
10000
10000
10000
10000
10000
10000
10000
10000
10000
10000
10000
10000
10000
10000
10000
10000
10000
10000
10000
10000
10000
10000
10000
10000
10000
10000
10000
10000
10000
10000
10000
10000
10000
10000
10000
10000
10000
10000
10000
10000
10000
10000
10000
10000
10000
10000
10000
10000
10000
10000
10000
10000
10000
10000
10000
10000
10000
10000
10000
10000
10000
10000
10000
10000
10000
10000
10000
10000
10000
10000
10000
10000
10000
10000
10000
10000
10000
10000
10000
10000
10000
10000
10000
10000
10000
10000
10000
10000
10000
10000
10000
10000
10000
10000
10000
10000
10000
10000
10000
10000
10000
10000
10000
10000
10000
10000
10000
10000
10000
10000
10000
10000
10000
10000
10000
10000
10000
10000
10000
10000
10000
10000
10000
10000
10000
10000
10000
10000
10000
10000
10000
10000
10000
10000
10000
10000
10000
10000
10000
10000
10000
10000
10000
10000
10000
10000
10000
10000
10000
10000
10000
10000
10000
10000
10000
10000
10000
10000
10000
10000
10000
10000
10000
10000
10000
10000
10000
10000
10000
10000
10000
10000
10000
10000
10000
10000
10000
10000
10000
10000
10000
10000
10000
10000
10000
10000
10000
10000
10000
10000
10000
10000
10000
10000
10000
10000
10000
10000
10000
10000
10000
10000
10000
10000
10000
10000
10000
10000
10000
10000
10000
10000
10000
10000
10000
10000
10000
10000
10000
10000
10000
10000
10000
10000
10000
10000
10000
10000
10000
10000
10000
10000
10000
10000
10000
10000
10000
10000
10000
10000
10000
10000
10000
10000
10000
10000
10000
10000
10000
10000
10000
10000
10000
10000
10000
10000
10000
10000
10000
10000
10000
10000
10000
10000
10000
10000
10000
10000
10000
10000
10000
10000
10000
10000
10000
10000
10000
10000
10000
10000
10000
10000
10000
10000
10000
10000
10000
10000
10000
10000
10000
10000
10000
10000
10000
10000
10000
10000
10000
10000
10000
10000
10000
10000
10000
10000
10000
10000
10000
10000
10000
10000
10000
10000
10000
10000
10000
10000
10000
10000
10000
10000
10000
10000
10000
10000
10000
10000
10000
10000
10000
10000
10000
10000
10000
10000
10000
10000
10000
10000
10000
10000
10000
10000
10000
10000
10000
10000
10000
10000
10000
10000
10000
10000
10000
10000
10000
10000
10000
10000
10000
10000
10000
10000
10000
10000
10000
10000
10000
10000
10000
10000
10000
10000
10000
10000
10000
10000
10000
10000
10000
10000
10000
10000
10000
10000
10000
10000
10000
10000
10000
10000
10000
10000
10000
10000
10000
10000
10000
10000
10000
10000
10000
10000
10000
10000
10000
10000
10000
10000
10000
10000
10000
10000
10000
10000
10000
10000
10000
10000
10000
10000
10000
10000
10000
10000
10000
10000
10000
10000
10000
10000
10000
10000
10000
10000
10000
10000
10000
10000
10000
10000
10000
10000
10000
10000
10000
10000
10000
10000
10000
10000
10000
10000
10000
10000
10000
10000
10000
10000
10000
10000
10000
10000
10000
10000
10000
10000
10000
10000
10000
10000
10000
10000
10000
10000
10000
10000
10000
10000
10000
10000
10000
10000
10000
10000
10000
10000
10000
10000
10000
10000
10000
10000
10000
10000
10000
10000
10000
10000
10000
10000
10000
10000
10000
10000
10000
10000
10000
10000
10000
10000
10000
10000
10000
10000
10000
10000
10000
10000
10000
10000
10000
10000
10000
10000
10000
10000
10000
10000
10000
10000
10000
10000
10000
10000
10000
10000
10000
10000
10000
10000
10000
10000
)
;

boundaryField
{
    asym1
    {
        type            wedge;
    }
    asym2
    {
        type            wedge;
    }
    inlet
    {
        type            totalPressure;
        rho             none;
        psi             thermo:psi;
        gamma           1.4;
        p0              uniform 10000;
        value           uniform 10000;
    }
    nozzle
    {
        type            zeroGradient;
    }
    outlet
    {
        type            waveTransmissive;
        gamma           1.4;
        fieldInf        1600;
        lInf            0.5;