/*--------------------------------*- C++ -*----------------------------------*\
  =========                 |
  \\      /  F ield         | OpenFOAM: The Open Source CFD Toolbox
   \\    /   O peration     | Website:  https://openfoam.org
    \\  /    A nd           | Version:  10
     \\/     M anipulation  |
\*---------------------------------------------------------------------------*/
FoamFile
{
    format      ascii;
    class       surfaceScalarField;
    location    "0.01";
    object      phi;
}
// * * * * * * * * * * * * * * * * * * * * * * * * * * * * * * * * * * * * * //

dimensions      [1 0 -1 0 0 0 0];

internalField   nonuniform List<scalar> 
8154
(
4.93145e-08
1.92861e-07
4.30079e-07
7.57998e-07
1.16956e-06
1.65666e-06
2.20836e-06
2.81168e-06
3.45052e-06
4.1071e-06
4.7601e-06
5.38345e-06
5.95526e-06
6.43219e-06
6.8002e-06
6.98924e-06
7.00457e-06
6.7367e-06
6.25051e-06
5.29241e-06
4.3796e-06
2.53181e-06
1.35667e-06
-0.000227095
-0.000681263
5.43465e-08
-0.00113542
2.10599e-07
-0.00158957
4.68327e-07
-0.00204367
8.2526e-07
-0.00249774
1.27506e-06
-0.00295174
1.81151e-06
-0.00340569
2.42508e-06
-0.00385957
3.10546e-06
-0.00431335
3.8394e-06
-0.00476706
4.61131e-06
-0.00522062
5.40656e-06
-0.00567413
6.19663e-06
-0.0061274
6.97724e-06
-0.00658068
7.68966e-06
-0.00703356
8.35484e-06
-0.00748661
8.86896e-06
-0.00793899
9.28027e-06
-0.00839179
9.43724e-06
-0.00884355
9.39471e-06
-0.00929638
8.99374e-06
-0.00974704
8.03816e-06
-0.0102006
6.71171e-06
-0.010651
4.23174e-06
-0.00022566
-0.000676958
4.08228e-08
-0.00112824
1.5828e-07
-0.00157951
3.51957e-07
-0.00203073
6.20789e-07
-0.0024819
9.58983e-07
-0.00293301
1.36238e-06
-0.00338404
1.82286e-06
-0.00383498
2.33259e-06
-0.00428582
2.88091e-06
-0.00473656
3.45492e-06
-0.00518713
4.04592e-06
-0.00563764
4.62407e-06
-0.00608785
5.20198e-06
-0.0065381
5.70797e-06
-0.00698784
6.19874e-06
-0.00743779
6.54303e-06
-0.00788695
6.84583e-06
-0.00833655
6.92406e-06
-0.008785
6.89767e-06
-0.00923428
6.58086e-06
-0.00968162
5.8548e-06
-0.010131
5.01303e-06
-0.0105769
3.26202e-06
-0.000224115
-0.000672323
2.33593e-08
-0.00112051
8.84475e-08
-0.00156868
1.95517e-07
-0.0020168
3.44431e-07
-0.00246486
5.30259e-07
-0.00291285
7.50693e-07
-0.00336075
9.99001e-07
-0.00380855
1.26974e-06
-0.00425624
1.55486e-06
-0.00470381
1.84334e-06
-0.00515119
2.13278e-06
-0.0055985
2.39204e-06
-0.00604546
2.64522e-06
-0.0064925
2.81947e-06
-0.00693892
2.98137e-06
-0.00738563
3.00968e-06
-0.0078314
3.01333e-06
-0.00827771
2.83199e-06
-0.00872272
2.62525e-06
-0.00916841
2.13253e-06
-0.00961249
1.74735e-06
-0.0100578
8.73697e-07
-0.010499
4.09807e-07
-0.000222457
-0.000667349
1.62478e-08
-0.00111222
5.99499e-08
-0.00155707
1.31887e-07
-0.00200186
2.32931e-07
-0.00244659
3.58696e-07
-0.00289124
5.08891e-07
-0.00333579
6.77697e-07
-0.00378024
8.61999e-07
-0.00422455
1.05625e-06
-0.00466875
1.24994e-06
-0.00511272
1.44837e-06
-0.00555665
1.61613e-06
-0.00600017
1.7893e-06
-0.0064438
1.89219e-06
-0.00688673
1.99695e-06
-0.00733002
1.99301e-06
-0.00777226
1.977e-06
-0.00821515
1.81901e-06
-0.00865655
1.64787e-06
-0.00909895
1.26491e-06
-0.00953923
1.08612e-06
-0.00998155
5.01738e-07
-0.0104196
1.41685e-07
-0.000220696
-0.000662066
1.35081e-08
-0.00110341
4.94309e-08
-0.00154474
1.08089e-07
-0.00198599
1.92715e-07
-0.00242719
2.97593e-07
-0.0028683
4.25992e-07
-0.0033093
5.71374e-07
-0.0037502
7.33384e-07
-0.00419094
9.08979e-07
-0.00463158
1.08504e-06
-0.00507196
1.28198e-06
-0.00551231
1.4425e-06
-0.0059522
1.64508e-06
-0.00639225
1.75966e-06
-0.00683153
1.93734e-06
-0.00727122
1.97472e-06
-0.00770978
2.08133e-06
-0.00814906
2.01076e-06
-0.00858675
1.9853e-06
-0.00902576
1.81412e-06
-0.00946212
1.5683e-06
-0.00990109
1.23228e-06
-0.0103359
8.15397e-07
-0.000218839
-0.000656494
8.94597e-09
-0.00109412
3.12523e-08
-0.00153173
6.73252e-08
-0.00196926
1.21793e-07
-0.00240674
1.88261e-07
-0.00284411
2.72896e-07
-0.00328138
3.68307e-07
-0.00371854
4.76611e-07
-0.00415553
5.97468e-07
-0.00459243
7.13357e-07
-0.00502902
8.59237e-07
-0.00546565
9.6285e-07
-0.00590171
1.12253e-06
-0.00633805
1.19716e-06
-0.00677346
1.34479e-06
-0.00720945
1.37072e-06
-0.00764411
1.46843e-06
-0.00807968
1.42016e-06
-0.0085135
1.42582e-06
-0.00894868
1.26967e-06
-0.00938127
1.12824e-06
-0.00981639
8.46551e-07
-0.0102471
5.23168e-07
-0.000216862
-0.000650564
5.24232e-09
-0.00108424
1.66303e-08
-0.00151789
3.4375e-08
-0.00195146
6.46604e-08
-0.00238498
9.99339e-08
-0.00281839
1.49451e-07
-0.00325169
2.043e-07
-0.00368488
2.69276e-07
-0.00411789
3.4674e-07
-0.00455083
4.1365e-07
-0.0049834
5.17865e-07
-0.0054161
5.77655e-07
-0.0058481
6.9918e-07
-0.00628051
7.46203e-07
-0.00671184
8.64362e-07
-0.00714391
8.85679e-07
-0.00757448
9.72426e-07
-0.00800611
9.46381e-07
-0.00843584
9.74391e-07
-0.00886704
8.88988e-07
-0.00929558
7.81996e-07
-0.00972668
5.80705e-07
-0.0101534
3.5266e-07
-0.000214782
-0.000644324
2.31277e-09
-0.00107384
3.6515e-09
-0.00150333
9.15939e-09
-0.00193273
1.66341e-08
-0.00236208
2.93373e-08
-0.00279132
4.94807e-08
-0.00322046
7.02571e-08
-0.00364948
9.91476e-08
-0.00407829
1.39768e-07
-0.00450709
1.76741e-07
-0.00493544
2.23013e-07
-0.005364
2.7953e-07
-0.00579176
3.19198e-07
-0.00622005
3.98947e-07
-0.00664711
4.25245e-07
-0.00707507
5.09016e-07
-0.00750137
5.24762e-07
-0.00792887
5.63771e-07
-0.00835436
5.85946e-07
-0.00878135
5.23122e-07
-0.00920569
4.88936e-07
-0.00963259
3.70867e-07
-0.0100551
2.24969e-07
-0.000212608
-0.000637804
-1.22284e-10
-0.00106297
-6.15273e-09
-0.00148811
-1.22405e-08
-0.00191317
-2.1711e-08
-0.00233817
-2.8438e-08
-0.00276305
-3.339e-08
-0.00318783
-3.64367e-08
-0.00361251
-2.89983e-08
-0.00403695
-4.40878e-08
-0.00446141
-8.69871e-09
-0.00488539
-2.77575e-08
-0.00530959
3.74277e-08
-0.00573299
1.49704e-08
-0.0061569
1.09848e-07
-0.00657963
8.18708e-08
-0.00700319
1.96807e-07
-0.00742514
1.57146e-07
-0.0078483
2.68245e-07
-0.00826936
2.2167e-07
-0.00869205
2.58853e-07
-0.00911201
2.39841e-07
-0.00953452
2.08192e-07
-0.00995272
1.21911e-07
-0.000210341
-0.000631003
-2.1463e-09
-0.00105164
-1.38758e-08
-0.00147224
-3.10986e-08
-0.00189277
-5.38248e-08
-0.00231322
-7.75153e-08
-0.00273358
-1.05012e-07
-0.00315383
-1.29821e-07
-0.00357395
-1.51113e-07
-0.00399389
-1.82478e-07
-0.00441376
-1.83734e-07
-0.00483327
-2.21992e-07
-0.00525286
-1.7657e-07
-0.00567182
-2.29894e-07
-0.00609109
-1.6023e-07
-0.0065094
-1.88599e-07
-0.0069283
-1.02671e-07
-0.00734585
-1.19494e-07
-0.00776434
-2.58037e-08
-0.00818099
-3.48716e-08
-0.00859909
4.59851e-08
-0.00901459
3.64919e-08
-0.00943252
6.34057e-08
-0.00984629
3.272e-08
-0.000207938
-0.000623793
-3.90082e-09
-0.00103962
-2.06816e-08
-0.00145541
-4.65858e-08
-0.00187114
-8.03602e-08
-0.00228679
-1.19906e-07
-0.00270234
-1.63177e-07
-0.00311778
-2.09605e-07
-0.00353309
-2.55019e-07
-0.00394826
-3.00255e-07
-0.00436327
-3.31228e-07
-0.00477805
-3.80062e-07
-0.00519275
-3.79302e-07
-0.00560702
-4.15438e-07
-0.0060214
-3.70559e-07
-0.00643502
-4.31947e-07
-0.00684902
-3.55221e-07
-0.00726191
-3.67014e-07
-0.00767551
-2.79766e-07
-0.0080875
-2.68192e-07
-0.00850073
-1.70651e-07
-0.00891155
-1.46194e-07
-0.00932463
-6.62158e-08
-0.00973377
-4.66854e-08
-0.000205451
-0.000616333
-5.34527e-09
-0.00102719
-2.6492e-08
-0.00143801
-5.95543e-08
-0.00184876
-1.03365e-07
-0.00225943
-1.55316e-07
-0.00267001
-2.14542e-07
-0.00308048
-2.7762e-07
-0.00349082
-3.41328e-07
-0.00390102
-4.0563e-07
-0.00431106
-4.60269e-07
-0.00472091
-5.20608e-07
-0.00513058
-5.49288e-07
-0.00553999
-6.03931e-07
-0.00594928
-5.92287e-07
-0.00635809
-6.11299e-07
-0.00676703
-5.64469e-07
-0.00717509
-5.8926e-07
-0.00758362
-5.05953e-07
-0.00799081
-4.77368e-07
-0.00839899
-3.69214e-07
-0.00880501
-3.09531e-07
-0.00921306
-1.64294e-07
-0.00961741
-1.14012e-07
-0.000202883
-0.000608627
-6.46305e-09
-0.00101434
-3.14054e-08
-0.00142002
-7.06325e-08
-0.00182564
-1.23305e-07
-0.00223118
-1.85872e-07
-0.00263662
-2.58657e-07
-0.00304196
-3.35748e-07
-0.00344717
-4.16407e-07
-0.00385225
-4.97503e-07
-0.00425714
-5.70943e-07
-0.00466189
-6.47046e-07
-0.00506641
-6.98498e-07
-0.00547075
-7.58119e-07
-0.00587484
-7.72751e-07
-0.00627866
-8.0456e-07
-0.00668235
-7.90534e-07
-0.00708545
-7.83465e-07
-0.00748878
-7.04872e-07
-0.00789098
-6.68328e-07
-0.00829397
-5.57065e-07
-0.00869504
-4.61584e-07
-0.00909788
-3.2179e-07
-0.00949731
-1.86822e-07
-0.000200185
-0.000600535
-7.40884e-09
-0.00100086
-3.55136e-08
-0.00140115
-7.99525e-08
-0.00180137
-1.40273e-07
-0.00220152
-2.1185e-07
-0.00260158
-2.96173e-07
-0.00300153
-3.85572e-07
-0.00340136
-4.8104e-07
-0.00380106
-5.76417e-07
-0.00420057
-6.6696e-07
-0.00459998
-7.56491e-07
-0.00499911
-8.26219e-07
-0.00539815
-8.96762e-07
-0.00579684
-9.33159e-07
-0.0061954
-9.65676e-07
-0.00659365
-9.56321e-07
-0.00699155
-9.55531e-07
-0.00738946
-9.14063e-07
-0.00778646
-8.37897e-07
-0.00818408
-7.13758e-07
-0.00857998
-6.12216e-07
-0.00897745
-4.38855e-07
-0.00937178
-2.8086e-07
-0.00019738
-0.00059212
-8.39609e-09
-0.000986835
-3.92475e-08
-0.00138151
-8.828e-08
-0.00177612
-1.54946e-07
-0.00217066
-2.34465e-07
-0.00256512
-3.28362e-07
-0.00295947
-4.28815e-07
-0.00335369
-5.37122e-07
-0.0037478
-6.44785e-07
-0.00414171
-7.51252e-07
-0.00453555
-8.51779e-07
-0.00492907
-9.39668e-07
-0.00532256
-1.01897e-06
-0.00571563
-1.07312e-06
-0.00610868
-1.11094e-06
-0.00650131
-1.11743e-06
-0.00689374
-1.09404e-06
-0.00728599
-1.07545e-06
-0.00767757
-9.68008e-07
-0.00806955
-8.54914e-07
-0.00846004
-7.24776e-07
-0.00885186
-5.03049e-07
-0.00924089
-2.98521e-07
-0.000194528
-0.000583564
-9.13724e-09
-0.000972576
-4.23345e-08
-0.00136155
-9.52586e-08
-0.00175046
-1.67066e-07
-0.0021393
-2.53474e-07
-0.00252806
-3.54968e-07
-0.00291672
-4.65191e-07
-0.00330526
-5.8377e-07
-0.00369368
-7.02346e-07
-0.00408191
-8.22475e-07
-0.00447008
-9.3309e-07
-0.00485792
-1.03682e-06
-0.00524577
-1.12358e-06
-0.00563317
-1.19279e-06
-0.00602062
-1.23776e-06
-0.00640757
-1.26065e-06
-0.00679445
-1.24323e-06
-0.007181
-1.2057e-06
-0.00756708
-1.1048e-06
-0.00795337
-9.82531e-07
-0.00833841
-8.37265e-07
-0.00872454
-5.8416e-07
-0.00910818
-3.51983e-07
-0.000191518
-0.000574533
-9.90344e-09
-0.000957525
-4.5104e-08
-0.00134048
-1.01495e-07
-0.00172338
-1.77425e-07
-0.0021062
-2.69779e-07
-0.00248895
-3.77137e-07
-0.0028716
-4.9542e-07
-0.00325414
-6.22101e-07
-0.00363657
-7.50597e-07
-0.00401881
-8.82672e-07
-0.00440099
-1.00253e-06
-0.00478285
-1.12082e-06
-0.00516476
-1.2139e-06
-0.00554618
-1.30006e-06
-0.00592771
-1.34988e-06
-0.00630868
-1.39072e-06
-0.0066897
-1.37791e-06
-0.00707027
-1.32764e-06
-0.00745056
-1.20194e-06
-0.00783086
-1.10676e-06
-0.00821016
-9.44283e-07
-0.00859029
-6.71009e-07
-0.00896828
-4.21579e-07
-0.000188443
-0.000565309
-1.04543e-08
-0.000942153
-4.72924e-08
-0.00131895
-1.06602e-07
-0.00169571
-1.85837e-07
-0.00207239
-2.83189e-07
-0.002449
-3.95285e-07
-0.00282551
-5.20432e-07
-0.00320191
-6.53466e-07
-0.00357821
-7.9068e-07
-0.00395434
-9.32395e-07
-0.00433041
-1.0606e-06
-0.00470616
-1.19076e-06
-0.00508197
-1.2917e-06
-0.00545729
-1.39161e-06
-0.00583276
-1.44737e-06
-0.00620763
-1.49686e-06
-0.00658263
-1.46904e-06
-0.00695709
-1.43621e-06
-0.00733143
-1.35983e-06
-0.0077056
-1.21416e-06
-0.00807903
-1.03522e-06
-0.00845301
-7.39255e-07
-0.00882522
-4.63518e-07
-0.000185284
-0.000555831
-1.09095e-08
-0.000926357
-4.89381e-08
-0.00129684
-1.10505e-07
-0.00166728
-1.92351e-07
-0.00203765
-2.9377e-07
-0.00240796
-4.09767e-07
-0.00277816
-5.40536e-07
-0.00314827
-6.79162e-07
-0.00351828
-8.24112e-07
-0.00388813
-9.7229e-07
-0.00425792
-1.10896e-06
-0.00462742
-1.24955e-06
-0.00499697
-1.35829e-06
-0.00536605
-1.4712e-06
-0.0057353
-1.53083e-06
-0.00610393
-1.5897e-06
-0.00647278
-1.57492e-06
-0.00684099
-1.53686e-06
-0.00720925
-1.43473e-06
-0.00757716
-1.31096e-06
-0.00794459
-1.12085e-06
-0.00831229
-8.07947e-07
-0.00867862
-5.07597e-07
-0.000181993
-0.000545958
-1.1196e-08
-0.000909902
-5.00192e-08
-0.00127381
-1.13135e-07
-0.00163767
-1.96977e-07
-0.00200146
-3.01458e-07
-0.00236519
-4.20967e-07
-0.00272883
-5.55908e-07
-0.00309239
-6.99702e-07
-0.00345583
-8.5033e-07
-0.00381915
-1.0035e-06
-0.00418239
-1.14917e-06
-0.00454537
-1.29719e-06
-0.00490839
-1.41427e-06
-0.00527096
-1.53599e-06
-0.00563373
-1.60031e-06
-0.00599586
-1.66525e-06
-0.00635827
-1.66319e-06
-0.00671997
-1.62183e-06
-0.00708188
-1.47965e-06
-0.00744326
-1.38223e-06
-0.00780442
-1.19402e-06
-0.00816556
-8.64425e-07
-0.00852574
-5.43551e-07
-0.000178656
-0.000535948
-1.13506e-08
-0.00089322
-5.05452e-08
-0.00125045
-1.14505e-07
-0.00160765
-1.996e-07
-0.00196477
-3.06088e-07
-0.00232184
-4.28477e-07
-0.00267883
-5.66627e-07
-0.00303573
-7.14791e-07
-0.00339254
-8.69974e-07
-0.00374922
-1.02778e-06
-0.00410583
-1.18181e-06
-0.00446221
-1.33503e-06
-0.00481862
-1.46034e-06
-0.00517461
-1.58946e-06
-0.0055308
-1.65916e-06
-0.00588635
-1.73196e-06
-0.00624225
-1.71792e-06
-0.00659737
-1.70496e-06
-0.00695284
-1.59225e-06
-0.00730762
-1.46011e-06
-0.00766245
-1.26266e-06
-0.00801697
-9.19049e-07
-0.00837094
-5.78579e-07
-0.000175191
-0.000525554
-1.14518e-08
-0.000875897
-5.08134e-08
-0.0012262
-1.15184e-07
-0.00157647
-2.00953e-07
-0.00192668
-3.08578e-07
-0.00227683
-4.32999e-07
-0.00262691
-5.73592e-07
-0.00297691
-7.25441e-07
-0.00332682
-8.84906e-07
-0.00367662
-1.04755e-06
-0.00402634
-1.20859e-06
-0.00437587
-1.36536e-06
-0.00472541
-1.49888e-06
-0.00507457
-1.63358e-06
-0.00542393
-1.71037e-06
-0.00577266
-1.79114e-06
-0.00612178
-1.79181e-06
-0.00647009
-1.77911e-06
-0.00681886
-1.70247e-06
-0.00716681
-1.53093e-06
-0.00751505
-1.32398e-06
-0.00786269
-9.65813e-07
-0.00821021
-6.08213e-07
-0.000171664
-0.000514973
-1.15134e-08
-0.000858263
-5.0911e-08
-0.00120152
-1.15468e-07
-0.00154474
-2.01582e-07
-0.0018879
-3.09882e-07
-0.00223101
-4.35695e-07
-0.00257406
-5.78158e-07
-0.00291703
-7.33054e-07
-0.00325992
-8.96526e-07
-0.00360271
-1.06413e-06
-0.00394543
-1.23128e-06
-0.00428797
-1.39192e-06
-0.00463053
-1.53428e-06
-0.00497273
-1.67448e-06
-0.00531515
-1.75969e-06
-0.00565694
-1.84874e-06
-0.00599917
-1.8515e-06
-0.00634054
-1.84807e-06
-0.0066825
-1.76955e-06
-0.00702349
-1.59733e-06
-0.00736503
-1.38372e-06
-0.00770568
-1.01155e-06
-0.00804664
-6.3645e-07
-0.000168037
-0.000504093
-1.15666e-08
-0.00084013
-5.0961e-08
-0.00117613
-1.15631e-07
-0.0015121
-2.01982e-07
-0.00184802
-3.10813e-07
-0.0021839
-4.37776e-07
-0.00251971
-5.81884e-07
-0.00285545
-7.39482e-07
-0.00319113
-9.06722e-07
-0.00352672
-1.07924e-06
-0.00386223
-1.25233e-06
-0.0041976
-1.41826e-06
-0.00453297
-1.57074e-06
-0.00486803
-1.71674e-06
-0.0052033
-1.81155e-06
-0.00553796
-1.90903e-06
-0.00587311
-1.9179e-06
-0.00620734
-1.92117e-06
-0.0065423
-1.84849e-06
-0.00687614
-1.66881e-06
-0.0072108
-1.44838e-06
-0.00754427
-1.06151e-06
-0.00787848
-6.66688e-07
-0.000164334
-0.000492982
-1.16405e-08
-0.000821613
-5.10086e-08
-0.00115021
-1.15852e-07
-0.00147878
-2.02358e-07
-0.0018073
-3.11755e-07
-0.00213578
-4.39786e-07
-0.00246421
-5.85539e-07
-0.00279258
-7.45821e-07
-0.00312088
-9.16873e-07
-0.00344911
-1.09443e-06
-0.00377727
-1.27369e-06
-0.00410532
-1.44644e-06
-0.00443336
-1.60995e-06
-0.00476112
-1.76379e-06
-0.00508909
-1.8678e-06
-0.00541648
-1.97762e-06
-0.00574438
-1.98657e-06
-0.00607135
-2.01555e-06
-0.00639915
-2.05748e-06
-0.00672571
-1.76183e-06
-0.00705333
-1.53028e-06
-0.00737948
-1.13293e-06
-0.0077068
-7.19755e-07
-0.000160546
-0.000481618
-1.15259e-08
-0.000802674
-5.03846e-08
-0.0011237
-1.14342e-07
-0.0014447
-1.99803e-07
-0.00176566
-3.0783e-07
-0.00208658
-4.34791e-07
-0.00240745
-5.79521e-07
-0.00272827
-7.39439e-07
-0.00304904
-9.10969e-07
-0.00336975
-1.08997e-06
-0.00369039
-1.27149e-06
-0.00401094
-1.44733e-06
-0.00433148
-1.61851e-06
-0.00465179
-1.77103e-06
-0.00497228
-1.88617e-06
-0.00529225
-1.99051e-06
-0.00561273
-2.01101e-06
-0.0059323
-2.03106e-06
-0.00625276
-2.07929e-06
-0.00657188
-1.77831e-06
-0.00689231
-1.54635e-06
-0.00721097
-1.14254e-06
-0.00753127
-7.22243e-07
-0.00015668
-0.000470022
-1.14412e-08
-0.000783348
-4.97933e-08
-0.00109665
-1.12892e-07
-0.00140992
-1.9728e-07
-0.00172316
-3.03905e-07
-0.00203636
-4.29563e-07
-0.00234953
-5.72944e-07
-0.00266265
-7.31972e-07
-0.00297573
-9.03415e-07
-0.00328876
-1.08338e-06
-0.00360173
-1.2669e-06
-0.00391463
-1.44626e-06
-0.00422753
-1.62301e-06
-0.00454022
-1.77556e-06
-0.0048531
-1.89936e-06
-0.00516548
-1.99978e-06
-0.0054784
-2.02968e-06
-0.00579039
-2.0423e-06
-0.00610338
-2.09455e-06
-0.00641491
-1.78993e-06
-0.00672799
-1.55781e-06
-0.00703903
-1.14867e-06
-0.00735214
-7.23193e-07
-0.000152738
-0.000458196
-1.14381e-08
-0.00076364
-4.95173e-08
-0.00106906
-1.12225e-07
-0.00137445
-1.96116e-07
-0.00167982
-3.02105e-07
-0.00198516
-4.27222e-07
-0.00229046
-5.70033e-07
-0.00259574
-7.28809e-07
-0.00290097
-9.00702e-07
-0.00320617
-1.08221e-06
-0.00351132
-1.26855e-06
-0.00381642
-1.45256e-06
-0.00412152
-1.63466e-06
-0.00442644
-1.79043e-06
-0.00473156
-1.92174e-06
-0.00503619
-2.02437e-06
-0.00534142
-2.06494e-06
-0.00564566
-2.05662e-06
-0.00595105
-1.83988e-06
-0.00625484
-1.80264e-06
-0.00656041
-1.58899e-06
-0.00686368
-1.17249e-06
-0.00716944
-7.37727e-07
-0.000148723
-0.00044615
-1.1488e-08
-0.000743564
-4.95025e-08
-0.00104095
-1.12181e-07
-0.00133833
-1.96124e-07
-0.00163567
-3.02119e-07
-0.001933
-4.27443e-07
-0.0022303
-5.70438e-07
-0.00252757
-7.29571e-07
-0.00282482
-9.02268e-07
-0.00312204
-1.08539e-06
-0.00341923
-1.27451e-06
-0.00371638
-1.46302e-06
-0.00401354
-1.64982e-06
-0.00431054
-1.8093e-06
-0.00460776
-1.9487e-06
-0.0049045
-2.05457e-06
-0.00520188
-2.10013e-06
-0.00549825
-2.10961e-06
-0.00579587
-2.07364e-06
-0.00609179
-1.85846e-06
-0.00638971
-1.62644e-06
-0.00668507
-1.20281e-06
-0.00698334
-7.55799e-07
-0.000144637
-0.000433891
-1.1589e-08
-0.000723133
-4.97171e-08
-0.00101235
-1.12659e-07
-0.00130156
-1.97112e-07
-0.00159074
-3.03643e-07
-0.00187991
-4.29843e-07
-0.00216907
-5.7377e-07
-0.0024582
-7.3393e-07
-0.00274732
-9.07838e-07
-0.00303642
-1.09257e-06
-0.00332551
-1.28403e-06
-0.00361457
-1.47619e-06
-0.00390364
-1.66656e-06
-0.0041926
-1.82939e-06
-0.00448177
-1.97716e-06
-0.00477049
-2.08623e-06
-0.00505987
-2.13977e-06
-0.00534824
-2.14848e-06
-0.00563795
-2.09386e-06
-0.00592585
-1.899e-06
-0.00621598
-1.66539e-06
-0.0065033
-1.23442e-06
-0.00679394
-7.73857e-07
-0.000140482
-0.000421428
-1.17334e-08
-0.000702363
-5.0144e-08
-0.000983277
-1.1357e-07
-0.00126418
-1.98909e-07
-0.00154507
-3.06416e-07
-0.00182595
-4.34062e-07
-0.00210682
-5.7961e-07
-0.00238768
-7.41478e-07
-0.00266853
-9.17104e-07
-0.00294938
-1.10356e-06
-0.00323022
-1.29692e-06
-0.00351106
-1.49166e-06
-0.00379192
-1.68419e-06
-0.00407269
-1.84973e-06
-0.00435367
-2.00531e-06
-0.00463424
-2.1166e-06
-0.00491549
-2.17841e-06
-0.00519573
-2.1865e-06
-0.00547738
-2.12245e-06
-0.00575715
-1.93806e-06
-0.00603935
-1.70159e-06
-0.00631849
-1.2645e-06
-0.00660136
-7.90459e-07
-0.000136263
-0.00040877
-1.19245e-08
-0.000681268
-5.07604e-08
-0.000953746
-1.14851e-07
-0.00122622
-2.01393e-07
-0.00149868
-3.10257e-07
-0.00177114
-4.39806e-07
-0.00204359
-5.87533e-07
-0.00231605
-7.51703e-07
-0.00258851
-9.29573e-07
-0.00286097
-1.11803e-06
-0.00313345
-1.31311e-06
-0.00340593
-1.50954e-06
-0.00367844
-1.70295e-06
-0.00395089
-1.87041e-06
-0.00422356
-2.03216e-06
-0.00449585
-2.14405e-06
-0.00476884
-2.21373e-06
-0.00504081
-2.22091e-06
-0.00531428
-2.15304e-06
-0.00558579
-1.97231e-06
-0.00585992
-1.73231e-06
-0.00613078
-1.29094e-06
-0.00640575
-8.04413e-07
-0.000131982
-0.000395926
-1.21557e-08
-0.000659862
-5.15444e-08
-0.000923781
-1.16468e-07
-0.0011877
-2.04482e-07
-0.00145161
-3.15025e-07
-0.00171552
-4.46818e-07
-0.00197944
-5.97131e-07
-0.00224337
-7.64044e-07
-0.00250731
-9.44589e-07
-0.00277127
-1.13538e-06
-0.00303525
-1.33224e-06
-0.00329925
-1.5299e-06
-0.00356329
-1.72332e-06
-0.0038273
-1.892e-06
-0.00409153
-2.05742e-06
-0.00435542
-2.16782e-06
-0.00462001
-2.24408e-06
-0.00488361
-2.24965e-06
-0.00514876
-2.18212e-06
-0.0054119
-2.00017e-06
-0.00567782
-1.7558e-06
-0.00594028
-1.31144e-06
-0.00620721
-8.14074e-07
-0.000127642
-0.000382906
-1.24223e-08
-0.000638163
-5.24777e-08
-0.000893404
-1.18388e-07
-0.00114865
-2.08094e-07
-0.00140389
-3.2058e-07
-0.00165914
-4.54861e-07
-0.0019144
-6.08025e-07
-0.00216968
-7.7795e-07
-0.00242499
-9.61439e-07
-0.00268032
-1.1548e-06
-0.00293569
-1.35357e-06
-0.00319109
-1.55229e-06
-0.00344655
-1.74533e-06
-0.003702
-1.91467e-06
-0.00395767
-2.08113e-06
-0.00421304
-2.18808e-06
-0.00446911
-2.26864e-06
-0.00472422
-2.27065e-06
-0.00498094
-2.20283e-06
-0.00523558
-2.02042e-06
-0.00549318
-1.77106e-06
-0.00574711
-1.32402e-06
-0.00600588
-8.17882e-07
-0.000123246
-0.000369719
-1.2719e-08
-0.000616185
-5.35343e-08
-0.000862638
-1.20561e-07
-0.0011091
-2.12118e-07
-0.00135556
-3.26744e-07
-0.00160203
-4.63659e-07
-0.00184853
-6.19807e-07
-0.00209505
-7.9285e-07
-0.00234161
-9.79367e-07
-0.0025882
-1.17536e-06
-0.00283484
-1.37604e-06
-0.00308154
-1.57569e-06
-0.0033283
-1.76814e-06
-0.00357507
-1.93765e-06
-0.00382207
-2.10292e-06
-0.00406881
-2.20514e-06
-0.00431625
-2.28717e-06
-0.00456276
-2.28328e-06
-0.00481091
-2.21598e-06
-0.00505696
-2.03229e-06
-0.0053061
-1.77716e-06
-0.00555142
-1.32789e-06
-0.00580189
-8.15428e-07
-0.000118798
-0.000356374
-1.30378e-08
-0.000593945
-5.46787e-08
-0.000831504
-1.22917e-07
-0.00106907
-2.16409e-07
-0.00130665
-3.33286e-07
-0.00154425
-4.72871e-07
-0.00178187
-6.31993e-07
-0.00201953
-8.08097e-07
-0.00225723
-9.97537e-07
-0.00249498
-1.19602e-06
-0.00273279
-1.39843e-06
-0.00297067
-1.59875e-06
-0.00320862
-1.79036e-06
-0.00344662
-1.95944e-06
-0.00368483
-2.12166e-06
-0.00392283
-2.21851e-06
-0.00416154
-2.29933e-06
-0.00439933
-2.28769e-06
-0.00463881
-2.22085e-06
-0.00487615
-2.03486e-06
-0.00511673
-1.77359e-06
-0.00535332
-1.32364e-06
-0.00559537
-8.07346e-07
-0.000114301
-0.000342882
-1.33684e-08
-0.000571459
-5.58665e-08
-0.000800027
-1.25363e-07
-0.00102861
-2.20791e-07
-0.0012572
-3.39924e-07
-0.00148582
-4.82085e-07
-0.00171447
-6.44012e-07
-0.00194316
-8.22929e-07
-0.00217191
-1.01497e-06
-0.00240072
-1.21557e-06
-0.0026296
-1.41929e-06
-0.00285856
-1.61982e-06
-0.00308761
-1.81017e-06
-0.00331672
-1.97801e-06
-0.00354605
-2.13568e-06
-0.00377521
-2.22689e-06
-0.00400507
-2.3043e-06
-0.00423406
-2.28392e-06
-0.00446475
-2.21645e-06
-0.00469329
-2.02732e-06
-0.00492519
-1.7606e-06
-0.00515296
-1.3121e-06
-0.00538647
-7.94423e-07
-0.000109758
-0.000329253
-1.36977e-08
-0.000548745
-5.70415e-08
-0.000768229
-1.27783e-07
-0.000987728
-2.25049e-07
-0.00120724
-3.4632e-07
-0.00142679
-4.90815e-07
-0.00164638
-6.55196e-07
-0.00186602
-8.36455e-07
-0.00208572
-1.03052e-06
-0.00230549
-1.23257e-06
-0.00252534
-1.43689e-06
-0.00274529
-1.63692e-06
-0.00296534
-1.82538e-06
-0.00318547
-1.99107e-06
-0.00340583
-2.14297e-06
-0.00362604
-2.22849e-06
-0.00384695
-2.30076e-06
-0.00406704
-2.27153e-06
-0.00428884
-2.20168e-06
-0.0045085
-2.00938e-06
-0.00473159
-1.73849e-06
-0.00495046
-1.29388e-06
-0.00517532
-7.77201e-07
-0.000105173
-0.000315497
-1.40081e-08
-0.000525818
-5.813e-08
-0.000736134
-1.30025e-07
-0.000946467
-2.28913e-07
-0.00115682
-3.52063e-07
-0.00136721
-4.98484e-07
-0.00157765
-6.64765e-07
-0.00178815
-8.47663e-07
-0.00199871
-1.04291e-06
-0.00220936
-1.24544e-06
-0.0024201
-1.44936e-06
-0.00263094
-1.6479e-06
-0.0028419
-1.83361e-06
-0.00305296
-1.99617e-06
-0.00326425
-2.14141e-06
-0.00347544
-2.22144e-06
-0.00368731
-2.28732e-06
-0.0038984
-2.25009e-06
-0.00411122
-2.17708e-06
-0.0043219
-1.98087e-06
-0.00453609
-1.70762e-06
-0.00474597
-1.26955e-06
-0.00496205
-7.56256e-07
-0.000100548
-0.000301623
-1.42706e-08
-0.000502696
-5.90172e-08
-0.000703764
-1.31844e-07
-0.000904853
-2.31959e-07
-0.00110597
-3.56521e-07
-0.00130712
-5.04224e-07
-0.00150833
-6.71598e-07
-0.0017096
-8.55159e-07
-0.00191095
-1.05046e-06
-0.0021124
-1.25226e-06
-0.00231394
-1.45452e-06
-0.0025156
-1.6504e-06
-0.00271738
-1.8324e-06
-0.00291929
-1.99089e-06
-0.00312143
-2.12884e-06
-0.0033235
-2.20392e-06
-0.00352624
-2.26251e-06
-0.00372826
-2.21882e-06
-0.00393199
-2.14217e-06
-0.00413361
-1.94191e-06
-0.0043388
-1.66823e-06
-0.00453961
-1.23932e-06
-0.00474682
-7.31819e-07
-9.58881e-05
-0.000287642
-1.44444e-08
-0.000479395
-5.95516e-08
-0.000671145
-1.32908e-07
-0.000862916
-2.33631e-07
-0.00105472
-3.58863e-07
-0.00124656
-5.06918e-07
-0.00143847
-6.74295e-07
-0.00163045
-8.57282e-07
-0.00182251
-1.05128e-06
-0.00201467
-1.25097e-06
-0.00220694
-1.45023e-06
-0.00239934
-1.64227e-06
-0.00259187
-1.81966e-06
-0.00278455
-1.97338e-06
-0.00297745
-2.10381e-06
-0.00317033
-2.17501e-06
-0.00336387
-2.22573e-06
-0.00355672
-2.17795e-06
-0.00375129
-2.09768e-06
-0.00394377
-1.8947e-06
-0.00413987
-1.62231e-06
-0.00433153
-1.20462e-06
-0.00452976
-7.04565e-07
-9.11957e-05
-0.000273565
-1.44933e-08
-0.000455932
-5.95399e-08
-0.000638299
-1.32827e-07
-0.000820689
-2.33234e-07
-0.00100311
-3.58087e-07
-0.00118558
-5.05229e-07
-0.00136812
-6.71204e-07
-0.00155073
-8.52114e-07
-0.00173344
-1.04329e-06
-0.00191625
-1.23935e-06
-0.00209918
-1.43427e-06
-0.00228224
-1.62138e-06
-0.00246546
-1.79348e-06
-0.00264883
-1.9421e-06
-0.00283243
-2.06537e-06
-0.00301605
-2.13507e-06
-0.00320029
-2.17688e-06
-0.00338392
-2.13149e-06
-0.00356924
-2.04445e-06
-0.00375251
-1.84642e-06
-0.00393943
-1.5782e-06
-0.00412188
-1.17503e-06
-0.00431102
-6.84528e-07
-8.64747e-05
-0.000259401
-1.42331e-08
-0.000432326
-5.84002e-08
-0.000605251
-1.30217e-07
-0.000778201
-2.28424e-07
-0.000951188
-3.5056e-07
-0.00112423
-4.94062e-07
-0.00129733
-6.55592e-07
-0.00147052
-8.3112e-07
-0.00164381
-1.01599e-06
-0.00181721
-1.2049e-06
-0.00199074
-1.39198e-06
-0.00216441
-1.57085e-06
-0.00233824
-1.73464e-06
-0.00251224
-1.87544e-06
-0.00268647
-1.99007e-06
-0.00286075
-2.05597e-06
-0.00303564
-2.08944e-06
-0.00320998
-2.04595e-06
-0.00338597
-1.95285e-06
-0.00355997
-1.76528e-06
-0.00373762
-1.50566e-06
-0.00391081
-1.12443e-06
-0.00409079
-6.52282e-07
-8.17288e-05
-0.000245163
-1.35762e-08
-0.000408595
-5.57101e-08
-0.000572029
-1.2403e-07
-0.000735489
-2.17449e-07
-0.000898988
-3.33525e-07
-0.00106254
-4.69542e-07
-0.00122617
-6.22362e-07
-0.00138988
-7.87856e-07
-0.00155369
-9.61516e-07
-0.00171763
-1.13822e-06
-0.0018817
-1.31242e-06
-0.00204592
-1.47811e-06
-0.00221031
-1.62887e-06
-0.00237488
-1.75744e-06
-0.00253968
-1.86011e-06
-0.00270458
-1.91641e-06
-0.00287004
-1.94374e-06
-0.00303504
-1.89786e-06
-0.00320162
-1.85678e-06
-0.0033663
-1.62887e-06
-0.00353461
-1.3759e-06
-0.00369848
-1.02559e-06
-0.00386921
-5.83599e-07
-7.69623e-05
-0.000230862
-1.26752e-08
-0.000384762
-5.18393e-08
-0.000538662
-1.15414e-07
-0.000692589
-2.02191e-07
-0.000846558
-3.10009e-07
-0.00100058
-4.36066e-07
-0.00115468
-5.77554e-07
-0.00130888
-7.30302e-07
-0.00146317
-8.9012e-07
-0.0016176
-1.0522e-06
-0.00177216
-1.2114e-06
-0.00192689
-1.36224e-06
-0.00208179
-1.49879e-06
-0.00223688
-1.61461e-06
-0.0023922
-1.70509e-06
-0.00254765
-1.75372e-06
-0.00270365
-1.77453e-06
-0.00285924
-1.73521e-06
-0.00301636
-1.80678e-06
-0.00317166
-1.48509e-06
-0.00333057
-1.24233e-06
-0.00348506
-9.26605e-07
-0.00364645
-5.21165e-07
-7.21798e-05
-0.000216514
-1.1455e-08
-0.000360847
-4.67984e-08
-0.000505183
-1.04148e-07
-0.000649545
-1.82379e-07
-0.000793951
-2.79488e-07
-0.000938414
-3.92935e-07
-0.00108296
-5.20162e-07
-0.00122759
-6.57192e-07
-0.00137234
-8.00244e-07
-0.00151722
-9.44949e-07
-0.00166224
-1.08668e-06
-0.00180743
-1.22051e-06
-0.0019528
-1.34109e-06
-0.00209837
-1.44289e-06
-0.00224418
-1.52117e-06
-0.00239014
-1.56229e-06
-0.00253661
-1.57935e-06
-0.00268275
-1.54185e-06
-0.00283038
-1.58076e-06
-0.00297625
-1.31475e-06
-0.00312568
-1.09732e-06
-0.00327076
-8.1866e-07
-0.00342274
-4.55402e-07
-6.73868e-05
-0.000202134
-9.92977e-09
-0.000336881
-4.05923e-08
-0.00047163
-9.02219e-08
-0.000606404
-1.58053e-07
-0.000741226
-2.42019e-07
-0.000876105
-3.4013e-07
-0.00101106
-4.50218e-07
-0.00114612
-5.68493e-07
-0.00128129
-6.91676e-07
-0.0014166
-8.15997e-07
-0.00155205
-9.37442e-07
-0.00168768
-1.05181e-06
-0.00182349
-1.15468e-06
-0.00195951
-1.24128e-06
-0.00209577
-1.30814e-06
-0.0022322
-1.34195e-06
-0.00236913
-1.35808e-06
-0.00250578
-1.31925e-06
-0.00264386
-1.3213e-06
-0.00278028
-1.12063e-06
-0.00292018
-9.38542e-07
-0.00305583
-6.99624e-07
-0.00319832
-3.83984e-07
-6.259e-05
-0.000187743
-8.14581e-09
-0.000312895
-3.33656e-08
-0.000438049
-7.39688e-08
-0.000563229
-1.29706e-07
-0.000688456
-1.98135e-07
-0.000813742
-2.7885e-07
-0.000939111
-3.68609e-07
-0.00106458
-4.65319e-07
-0.00119016
-5.65727e-07
-0.00131588
-6.66822e-07
-0.00144176
-7.65297e-07
-0.0015678
-8.57759e-07
-0.00169404
-9.40732e-07
-0.0018205
-1.011e-06
-0.00194719
-1.06696e-06
-0.00207407
-1.09188e-06
-0.00220144
-1.10907e-06
-0.00232857
-1.07247e-06
-0.0024571
-1.03456e-06
-0.00258402
-9.07943e-07
-0.00271436
-7.61317e-07
-0.00284056
-5.68178e-07
-0.00297352
-3.04994e-07
-5.77977e-05
-0.000173366
-6.16471e-09
-0.000288932
-2.55515e-08
-0.0004045
-5.59187e-08
-0.000520095
-9.81471e-08
-0.000635736
-1.4927e-07
-0.000751437
-2.10138e-07
-0.000867222
-2.77052e-07
-0.000983106
-3.49717e-07
-0.00109911
-4.2512e-07
-0.00121525
-5.00986e-07
-0.00133155
-5.74765e-07
-0.00144802
-6.44086e-07
-0.00156469
-7.07252e-07
-0.00168158
-7.56983e-07
-0.0017987
-8.00775e-07
-0.00191603
-8.12147e-07
-0.00203384
-8.30156e-07
-0.00215141
-7.84474e-07
-0.0022704
-7.65227e-07
-0.00238782
-6.72437e-07
-0.00250858
-5.62031e-07
-0.00262532
-4.22924e-07
-0.00274871
-2.18537e-07
-5.30209e-05
-0.000159034
-4.00938e-09
-0.000265046
-1.73636e-08
-0.000371058
-3.5831e-08
-0.000477098
-6.39829e-08
-0.000583182
-9.72477e-08
-0.000689329
-1.36332e-07
-0.000795558
-1.79764e-07
-0.000901887
-2.26797e-07
-0.00100834
-2.7544e-07
-0.00111492
-3.24359e-07
-0.00122167
-3.71931e-07
-0.00132859
-4.16841e-07
-0.00143571
-4.57986e-07
-0.00154305
-4.88929e-07
-0.00165064
-5.15778e-07
-0.00175841
-5.14571e-07
-0.00186671
-5.42344e-07
-0.00197473
-4.93858e-07
-0.00208418
-4.86825e-07
-0.00219211
-4.27269e-07
-0.00230328
-3.5169e-07
-0.0024106