/*--------------------------------*- C++ -*----------------------------------*\
  =========                 |
  \\      /  F ield         | OpenFOAM: The Open Source CFD Toolbox
   \\    /   O peration     | Website:  https://openfoam.org
    \\  /    A nd           | Version:  10
     \\/     M anipulation  |
\*---------------------------------------------------------------------------*/
FoamFile
{
    format      ascii;
    class       volScalarField;
    location    "0.01";
    object      rho;
}
// * * * * * * * * * * * * * * * * * * * * * * * * * * * * * * * * * * * * * //

dimensions      [1 -3 0 0 0 0 0];

internalField   nonuniform List<scalar> 
4176
(
0.0554722
0.05547
0.0554715
0.0554738
0.0554765
0.05548
0.055484
0.0554887
0.0554941
0.0555001
0.055507
0.0555143
0.0555227
0.0555316
0.0555415
0.055552
0.0555634
0.0555758
0.0555883
0.0556039
0.0556148
0.0556373
0.0556418
0.055671
0.0559267
0.0559245
0.055926
0.0559283
0.0559309
0.0559343
0.0559382
0.0559429
0.0559482
0.0559542
0.055961
0.0559683
0.0559766
0.0559854
0.0559952
0.0560056
0.0560169
0.0560293
0.0560419
0.0560572
0.05607
0.0560907
0.0561002
0.0561334
0.0568413
0.0568393
0.0568409
0.0568432
0.0568459
0.0568492
0.0568532
0.0568578
0.0568631
0.0568691
0.0568758
0.056883
0.0568912
0.0568998
0.0569095
0.0569197
0.0569308
0.0569428
0.0569552
0.05697
0.0569823
0.0570022
0.0570114
0.0570436
0.0577082
0.0577064
0.0577079
0.0577102
0.0577128
0.0577161
0.05772
0.0577246
0.0577297
0.0577355
0.0577421
0.0577491
0.0577571
0.0577653
0.0577748
0.0577845
0.0577953
0.0578067
0.0578185
0.0578326
0.0578434
0.0578632
0.0578699
0.057898
0.0585979
0.0585961
0.0585977
0.0585999
0.0586025
0.0586058
0.0586095
0.058614
0.058619
0.0586245
0.0586308
0.0586375
0.0586452
0.0586531
0.0586621
0.0586713
0.0586817
0.0586924
0.0587037
0.0587168
0.0587268
0.0587454
0.0587518
0.0587774
0.0594706
0.0594688
0.0594703
0.0594726
0.0594751
0.0594782
0.0594818
0.0594861
0.0594908
0.0594961
0.0595022
0.0595085
0.0595158
0.0595232
0.0595318
0.0595404
0.0595501
0.0595602
0.0595708
0.0595829
0.0595929
0.0596096
0.0596159
0.0596404
0.0603689
0.0603673
0.0603688
0.060371
0.0603734
0.0603765
0.0603799
0.0603839
0.0603885
0.0603935
0.0603992
0.0604051
0.0604121
0.0604189
0.0604271
0.0604349
0.0604443
0.0604534
0.0604636
0.0604745
0.0604843
0.0604994
0.0605056
0.0605279
0.0612405
0.0612389
0.0612404
0.0612425
0.0612449
0.0612477
0.061251
0.0612548
0.0612591
0.0612638
0.0612692
0.0612746
0.0612813
0.0612873
0.0612953
0.0613021
0.0613112
0.0613191
0.0613289
0.0613386
0.061348
0.0613614
0.0613675
0.0613877
0.0621475
0.0621462
0.0621475
0.0621497
0.0621518
0.0621546
0.0621577
0.0621612
0.0621653
0.0621694
0.0621748
0.0621793
0.0621861
0.0621908
0.0621991
0.0622043
0.0622137
0.0622199
0.0622296
0.0622378
0.0622469
0.0622586
0.0622644
0.0622825
0.0630343
0.063033
0.0630342
0.0630363
0.0630383
0.063041
0.0630438
0.063047
0.063051
0.0630545
0.0630598
0.0630634
0.0630701
0.0630738
0.0630821
0.0630859
0.0630953
0.0630999
0.0631097
0.063116
0.0631249
0.0631346
0.0631404
0.0631561
0.063959
0.0639578
0.0639591
0.0639611
0.063963
0.0639655
0.0639681
0.0639711
0.0639747
0.063978
0.0639828
0.063986
0.0639924
0.0639953
0.0640032
0.0640061
0.0640152
0.0640185
0.0640281
0.0640329
0.0640416
0.0640495
0.0640552
0.0640689
0.0648364
0.0648353
0.0648365
0.0648384
0.0648403
0.0648425
0.064845
0.0648478
0.064851
0.064854
0.0648583
0.0648612
0.0648669
0.0648694
0.0648768
0.0648788
0.0648875
0.0648898
0.0648989
0.0649024
0.0649108
0.0649169
0.0649224
0.064934
0.0657843
0.0657832
0.0657845
0.0657863
0.065788
0.0657901
0.0657923
0.0657947
0.0657976
0.0658002
0.065804
0.0658065
0.0658115
0.0658136
0.06582
0.0658216
0.0658294
0.0658308
0.0658391
0.0658414
0.0658491
0.0658535
0.0658588
0.0658681
0.0666871
0.0666861
0.0666873
0.066689
0.0666905
0.0666924
0.0666944
0.0666966
0.066699
0.0667014
0.0667046
0.0667067
0.0667111
0.0667126
0.0667183
0.0667193
0.0667261
0.0667266
0.0667344
0.0667351
0.0667425
0.0667452
0.0667501
0.0667571
0.0676309
0.0676302
0.0676314
0.0676331
0.0676346
0.0676364
0.0676382
0.0676403
0.0676425
0.0676447
0.0676476
0.0676494
0.0676534
0.0676547
0.0676598
0.0676604
0.0676668
0.0676667
0.0676742
0.067674
0.0676814
0.0676827
0.0676875
0.0676931
0.0685398
0.068539
0.06854
0.0685415
0.0685427
0.0685442
0.0685456
0.0685472
0.0685489
0.0685505
0.0685527
0.0685539
0.0685569
0.0685574
0.0685614
0.068561
0.0685662
0.068565
0.068571
0.0685692
0.0685755
0.0685745
0.0685789
0.0685814
0.0695346
0.0695341
0.0695351
0.0695367
0.0695379
0.0695394
0.0695408
0.0695423
0.0695439
0.0695454
0.0695474
0.0695485
0.0695512
0.0695516
0.0695554
0.0695547
0.0695597
0.069558
0.069564
0.0695615
0.0695681
0.069566
0.0695705
0.0695721
0.0704138
0.0704132
0.0704141
0.0704155
0.0704165
0.0704177
0.0704187
0.0704198
0.0704209
0.0704219
0.0704232
0.0704237
0.0704256
0.0704252
0.0704281
0.0704264
0.0704304
0.0704274
0.0704324
0.0704284
0.0704338
0.0704297
0.0704337
0.0704323
0.0714457
0.0714454
0.0714463
0.0714476
0.0714485
0.0714496
0.0714505
0.0714514
0.0714523
0.0714531
0.071454
0.0714542
0.0714557
0.0714549
0.0714573
0.0714552
0.0714587
0.0714551
0.0714597
0.0714547
0.0714601
0.0714546
0.0714585
0.0714557
0.0723465
0.0723462
0.0723471
0.0723483
0.0723491
0.07235
0.0723506
0.0723513
0.0723518
0.0723522
0.0723527
0.0723524
0.0723533
0.072352
0.0723538
0.0723508
0.0723537
0.0723491
0.072353
0.0723468
0.0723515
0.0723445
0.0723481
0.0723431
0.0733633
0.0733631
0.073364
0.0733651
0.0733658
0.0733665
0.0733669
0.0733673
0.0733675
0.0733675
0.0733676
0.073367
0.0733673
0.0733654
0.0733666
0.073363
0.0733653
0.0733598
0.0733631
0.0733559
0.0733601
0.0733516
0.0733549
0.0733481
0.0743139
0.0743138
0.0743146
0.0743157
0.0743163
0.0743168
0.0743171
0.0743172
0.0743171
0.0743169
0.0743164
0.0743155
0.0743153
0.074313
0.0743136
0.0743093
0.074311
0.0743047
0.0743075
0.0742992
0.074303
0.0742931
0.0742961
0.0742874
0.0753143
0.0753144
0.0753151
0.0753161
0.0753165
0.0753169
0.0753169
0.0753168
0.0753164
0.0753158
0.0753149
0.0753136
0.0753128
0.07531
0.07531
0.0753051
0.0753062
0.0752989
0.0753012
0.0752918
0.0752951
0.0752838
0.0752865
0.0752761
0.0762995
0.0762997
0.0763004
0.0763014
0.0763016
0.0763019
0.0763016
0.0763013
0.0763006
0.0762996
0.0762984
0.0762967
0.0762954
0.0762921
0.0762915
0.076286
0.0762865
0.0762785
0.0762803
0.0762698
0.0762726
0.0762601
0.0762625
0.0762503
0.0773016
0.0773019
0.0773025
0.0773034
0.0773035
0.0773036
0.0773032
0.0773026
0.0773016
0.0773003
0.0772987
0.0772966
0.0772948
0.077291
0.0772899
0.0772837
0.0772837
0.0772749
0.0772761
0.0772645
0.0772669
0.0772531
0.0772552
0.0772413
0.0783062
0.0783066
0.0783071
0.078308
0.0783079
0.0783079
0.0783073
0.0783064
0.0783051
0.0783035
0.0783015
0.078299
0.0782967
0.0782925
0.0782907
0.0782841
0.0782834
0.0782739
0.0782746
0.078262
0.0782639
0.0782489
0.0782507
0.0782352
0.0793187
0.0793192
0.0793197
0.0793205
0.0793203
0.0793201
0.0793193
0.0793182
0.0793166
0.0793147
0.0793123
0.0793095
0.0793066
0.079302
0.0792996
0.0792924
0.0792912
0.079281
0.0792811
0.0792676
0.0792691
0.0792529
0.0792544
0.0792374
0.080337
0.0803376
0.0803381
0.0803388
0.0803385
0.0803381
0.0803371
0.0803357
0.0803339
0.0803316
0.0803289
0.0803257
0.0803223
0.0803173
0.0803144
0.0803067
0.0803049
0.0802939
0.0802936
0.0802792
0.0802802
0.0802629
0.080264
0.0802456
0.0813614
0.0813622
0.0813626
0.0813632
0.0813628
0.0813623
0.081361
0.0813594
0.0813573
0.0813547
0.0813517
0.0813481
0.0813442
0.0813389
0.0813354
0.0813272
0.0813248
0.0813132
0.0813122
0.0812974
0.0812977
0.0812793
0.0812802
0.0812603
0.0823917
0.0823925
0.0823929
0.0823934
0.0823929
0.0823922
0.0823908
0.0823889
0.0823866
0.0823837
0.0823803
0.0823763
0.082372
0.0823664
0.0823622
0.0823537
0.0823507
0.0823386
0.0823371
0.0823212
0.0823212
0.0823019
0.0823024
0.0822812
0.0834275
0.0834284
0.0834287
0.0834292
0.0834286
0.0834277
0.0834261
0.0834241
0.0834214
0.0834182
0.0834145
0.0834102
0.0834054
0.0833995
0.0833948
0.0833858
0.0833823
0.0833696
0.0833676
0.0833511
0.0833505
0.0833303
0.0833305
0.0833081
0.0844685
0.0844696
0.0844698
0.0844703
0.0844695
0.0844686
0.0844668
0.0844645
0.0844616
0.0844581
0.0844541
0.0844494
0.0844442
0.084438
0.0844327
0.0844235
0.0844193
0.0844062
0.0844036
0.0843865
0.0843854
0.0843644
0.0843643
0.0843407
0.0855146
0.0855157
0.085516
0.0855164
0.0855155
0.0855144
0.0855125
0.08551
0.0855068
0.0855031
0.0854987
0.0854937
0.0854882
0.0854816
0.0854758
0.0854663
0.0854615
0.0854481
0.0854449
0.0854273
0.0854257
0.0854039
0.0854034
0.0853788
0.0865653
0.0865666
0.0865667
0.0865671
0.0865662
0.0865649
0.0865628
0.0865601
0.0865568
0.0865528
0.0865481
0.0865429
0.0865369
0.0865301
0.0865238
0.086514
0.0865086
0.0864949
0.0864911
0.0864731
0.086471
0.0864485
0.0864477
0.0864221
0.0876204
0.0876217
0.0876219
0.0876222
0.0876212
0.0876198
0.0876176
0.0876147
0.0876112
0.0876069
0.087602
0.0875964
0.0875902
0.0875831
0.0875763
0.0875663
0.0875604
0.0875463
0.087542
0.0875236
0.087521
0.087498
0.0874969
0.0874703
0.0886794
0.0886809
0.088681
0.0886812
0.0886802
0.0886787
0.0886763
0.0886733
0.0886696
0.0886652
0.08866
0.0886542
0.0886477
0.0886403
0.088633
0.0886229
0.0886164
0.0886021
0.0885973
0.0885786
0.0885755
0.088552
0.0885506
0.0885232
0.0897421
0.0897436
0.0897437
0.0897439
0.0897428
0.0897412
0.0897388
0.0897356
0.0897317
0.0897271
0.0897218
0.0897157
0.0897089
0.0897014
0.0896937
0.0896834
0.0896764
0.089662
0.0896566
0.0896376
0.0896341
0.0896102
0.0896085
0.0895804
0.090808
0.0908096
0.0908097
0.0908099
0.0908087
0.090807
0.0908045
0.0908013
0.0907972
0.0907925
0.0907869
0.0907807
0.0907737
0.0907659
0.0907579
0.0907475
0.09074
0.0907255
0.0907196
0.0907005
0.0906965
0.0906723
0.0906702
0.0906415
0.0918768
0.0918785
0.0918785
0.0918787
0.0918775
0.0918758
0.0918732
0.0918698
0.0918657
0.0918608
0.0918551
0.0918487
0.0918415
0.0918336
0.0918253
0.0918148
0.0918068
0.0917924
0.091786
0.0917668
0.0917623
0.0917378
0.0917355
0.0917063
0.092948
0.0929498
0.0929499
0.09295
0.0929488
0.092947
0.0929443
0.0929409
0.0929367
0.0929317
0.0929259
0.0929194
0.0929121
0.092904
0.0928954
0.0928849
0.0928766
0.0928621
0.0928553
0.092836
0.0928312
0.0928065
0.092804
0.0927743
0.0940212
0.0940231
0.0940232
0.0940233
0.0940221
0.0940203
0.0940176
0.0940141
0.0940099
0.0940048
0.093999
0.0939923
0.0939849
0.0939767
0.093968
0.0939575
0.0939488
0.0939344
0.0939271
0.093908
0.0939027
0.093878
0.0938751
0.0938451
0.0950961
0.095098
0.0950981
0.0950982
0.095097
0.0950952
0.0950925
0.0950891
0.0950848
0.0950797
0.0950738
0.0950671
0.0950596
0.0950514
0.0950425
0.095032
0.095023
0.0950088
0.0950011
0.0949821
0.0949764
0.0949517
0.0949486
0.0949183
0.096172
0.096174
0.0961742
0.0961743
0.0961731
0.0961713
0.0961687
0.0961652
0.0961609
0.0961558
0.0961499
0.0961432
0.0961357
0.0961274
0.0961185
0.096108
0.0960988
0.0960848
0.0960767
0.0960579
0.0960519
0.0960272
0.0960239
0.0959934
0.0972486
0.0972506
0.0972508
0.097251
0.0972499
0.0972481
0.0972454
0.097242
0.0972377
0.0972327
0.0972268
0.0972201
0.0972126
0.0972044
0.0971954
0.0971851
0.0971756
0.0971619
0.0971534
0.0971349
0.0971285
0.097104
0.0971005
0.09707
0.0983251
0.0983273
0.0983275
0.0983277
0.0983266
0.0983249
0.0983223
0.0983189
0.0983147
0.0983097
0.0983039
0.0982972
0.0982898
0.0982816
0.0982727
0.0982624
0.0982529
0.0982394
0.0982307
0.0982124
0.0982058
0.0981815
0.0981777
0.0981473
0.099401
0.0994032
0.0994035
0.0994037
0.0994027
0.099401
0.0993985
0.0993952
0.0993911
0.0993861
0.0993804
0.0993739
0.0993665
0.0993584
0.0993495
0.0993394
0.0993298
0.0993166
0.0993077
0.0992896
0.0992829
0.0992589
0.099255
0.0992246
0.100475
0.100478
0.100478
0.100478
0.100477
0.100476
0.100473
0.10047
0.100466
0.100461
0.100456
0.100449
0.100442
0.100434
0.100425
0.100415
0.100406
0.100393
0.100384
0.100366
0.100359
0.100335
0.100331
0.100301
0.101547
0.101549
0.10155
0.10155
0.101549
0.101548
0.101545
0.101542
0.101538
0.101534
0.101528
0.101522
0.101515
0.101507
0.101498
0.101488
0.101479
0.101466
0.101457
0.10144
0.101433
0.10141
0.101405
0.101376
0.102615
0.102617
0.102618
0.102618
0.102617
0.102616
0.102613
0.10261
0.102607
0.102602
0.102597
0.102591
0.102584
0.102576
0.102567
0.102558
0.102548
0.102536
0.102527
0.10251
0.102503
0.10248
0.102476
0.102447
0.103677
0.103679
0.10368
0.10368
0.103679
0.103678
0.103676
0.103673
0.103669
0.103665
0.10366
0.103654
0.103647
0.103639
0.103631
0.103622
0.103612
0.1036
0.103591
0.103575
0.103568
0.103546
0.103541
0.103512
0.10473
0.104733
0.104733
0.104734
0.104733
0.104732
0.10473
0.104727
0.104723
0.104719
0.104714
0.104708
0.104702
0.104694
0.104686
0.104677
0.104668
0.104656
0.104648
0.104632
0.104624
0.104603
0.104598
0.10457
0.105772
0.105775
0.105775
0.105776
0.105775
0.105774
0.105772
0.10577
0.105766
0.105762
0.105757
0.105752
0.105745
0.105738
0.10573
0.105721
0.105713
0.105701
0.105693
0.105678
0.10567
0.10565
0.105645
0.105618
0.106799
0.106802
0.106802
0.106803
0.106802
0.106801
0.106799
0.106797
0.106794
0.10679
0.106785
0.10678
0.106773
0.106767
0.106759
0.10675
0.106742
0.106731
0.106722
0.106708
0.1067
0.106681
0.106676
0.10665
0.107805
0.107807
0.107808
0.107809
0.107808
0.107807
0.107806
0.107803
0.1078
0.107796
0.107792
0.107787
0.107781
0.107774
0.107767
0.107759
0.107751
0.10774
0.107732
0.107718
0.107711
0.107692
0.107687
0.107663
0.108784
0.108786
0.108787
0.108787
0.108787
0.108786
0.108785
0.108782
0.108779
0.108776
0.108772
0.108767
0.108761
0.108755
0.108748
0.10874
0.108732
0.108723
0.108714
0.108702
0.108694
0.108677
0.108672
0.108649
0.109728
0.10973
0.109731
0.109731
0.109731
0.10973
0.109729
0.109727
0.109724
0.109721
0.109717
0.109712
0.109707
0.109701
0.109694
0.109687
0.109679
0.109671
0.109662
0.109651
0.109644
0.109628
0.109623
0.109601
0.110628
0.11063
0.110631
0.110631
0.110631
0.11063
0.110629
0.110627
0.110624
0.110621
0.110618
0.110613
0.110608
0.110603
0.110597
0.11059
0.110583
0.110575
0.110567
0.110557
0.110549
0.110536
0.11053
0.11051
0.111473
0.111475
0.111476
0.111477
0.111476
0.111476
0.111475
0.111473
0.111471
0.111468
0.111464
0.11146
0.111456
0.111451
0.111445
0.111439
0.111433
0.111426
0.111418
0.111409
0.111402
0.11139
0.111384
0.111367
0.112254
0.112256
0.112257
0.112257
0.112257
0.112256
0.112255
0.112254
0.112252
0.112249
0.112246
0.112243
0.112239
0.112234
0.112229
0.112224
0.112218
0.112212
0.112205
0.112197
0.11219
0.11218
0.112175
0.112159
0.11296
0.112961
0.112962
0.112962
0.112962
0.112962
0.112961
0.11296
0.112958
0.112956
0.112953
0.11295
0.112947
0.112943
0.112938
0.112933
0.112928
0.112923
0.112917
0.11291
0.112904
0.112895
0.11289
0.112877
0.113582
0.113583
0.113584
0.113584
0.113584
0.113584
0.113583
0.113582
0.113581
0.113579
0.113576
0.113574
0.113571
0.113568
0.113564
0.11356
0.113555
0.113551
0.113545
0.11354
0.113535
0.113527
0.113523
0.113512
0.114116
0.114117
0.114117
0.114118
0.114118
0.114118
0.114117
0.114116
0.114115
0.114113
0.114111
0.114109
0.114107
0.114104
0.114101
0.114098
0.114094
0.11409
0.114086
0.114081
0.114077
0.114071
0.114067
0.114058
0.11456
0.114561
0.114561
0.114562
0.114562
0.114562
0.114561
0.11456
0.114559
0.114558
0.114557
0.114555
0.114553
0.114551
0.114548
0.114546
0.114543
0.114539
0.114536
0.114532
0.114529
0.114524
0.114521
0.114514
0.114918
0.114919
0.114919
0.114919
0.114919
0.114919
0.114919
0.114918
0.114918
0.114917
0.114916
0.114914
0.114913
0.114911
0.114909
0.114907
0.114905
0.114902
0.1149
0.114897
0.114894
0.11489
0.114888
0.114883
0.115197
0.115197
0.115198
0.115198
0.115198
0.115198
0.115198
0.115197
0.115197
0.115196
0.115195
0.115194
0.115193
0.115192
0.11519
0.115189
0.115187
0.115185
0.115183
0.115181
0.115179
0.115176
0.115175
0.115171
0.115407
0.115407
0.115407
0.115408
0.115408
0.115408
0.115407
0.115407
0.115407
0.115406
0.115406
0.115405
0.115404
0.115403
0.115402
0.115401
0.1154
0.115398
0.115397
0.115395
0.115394
0.115392
0.115391
0.115388
0.115559
0.11556
0.11556
0.11556
0.11556
0.11556
0.11556
0.11556
0.115559
0.115559
0.115558
0.115558
0.115557
0.115557
0.115556
0.115555
0.115554
0.115553
0.115553
0.115552
0.11555
0.115549
0.115548
0.115546
0.115666
0.115667
0.115667
0.115667
0.115667
0.115667
0.115667
0.115667
0.115666
0.115666
0.115666
0.115666
0.115665
0.115665
0.115664
0.115664
0.115663
0.115663
0.115662
0.115661
0.11566
0.11566
0.115659
0.115658
0.115739
0.115739
0.115739
0.115739
0.115739
0.115739
0.115739
0.115739
0.115739
0.115739
0.115739
0.115739
0.115738
0.115738
0.115738
0.115737
0.115737
0.115737
0.115736
0.115736
0.115735
0.115735
0.115734
0.115734
0.115787
0.115787
0.115787
0.115787
0.115787
0.115787
0.115787
0.115787
0.115787
0.115787
0.115787
0.115787
0.115786
0.115786
0.115786
0.115786
0.115786
0.115785
0.115785
0.115785
0.115784
0.115784
0.115784
0.115783
0.115817
0.115817
0.115817
0.115817
0.115817
0.115817
0.115817
0.115817
0.115817
0.115817
0.115817
0.115817
0.115817
0.115817
0.115817
0.115817
0.115817
0.115816
0.115816
0.115816
0.115816
0.115816
0.115816
0.115815
0.115836
0.115836
0.115836
0.115836
0.115836
0.115836
0.115836
0.115836
0.115836
0.115836
0.115836
0.115836
0.115836
0.115836
0.115836
0.115836
0.115836
0.115836
0.115835
0.115835
0.115835
0.115835
0.115835
0.115835
0.115847
0.115847
0.115847
0.115847
0.115847
0.115847
0.115847
0.115847
0.115847
0.115847
0.115847
0.115847
0.115847
0.115847
0.115847
0.115847
0.115847
0.115847
0.115847
0.115847
0.115847
0.115847
0.115847
0.115847
0.115854
0.115854
0.115854
0.115854
0.115854
0.115854
0.115854
0.115854
0.115854
0.115854
0.115854
0.115854
0.115854
0.115854
0.115854
0.115854
0.115854
0.115854
0.115854
0.115854
0.115854
0.115854
0.115854
0.115854
0.115858
0.115858
0.115858
0.115858
0.115858
0.115858
0.115858
0.115858
0.115858
0.115858
0.115858
0.115858
0.115858
0.115858
0.115858
0.115858
0.115858
0.115858
0.115858
0.115858
0.115858
0.115858
0.115858
0.115858
0.11586
0.11586
0.11586
0.11586
0.11586
0.11586
0.11586
0.11586
0.11586
0.11586
0.11586
0.11586
0.11586
0.11586
0.11586
0.11586
0.11586
0.11586
0.11586
0.11586
0.11586
0.11586
0.11586
0.11586
0.115861
0.115861
0.115861
0.115861
0.115861
0.115861
0.115861
0.115861
0.115861
0.115861
0.115861
0.115861
0.115861
0.115861
0.115861
0.115861
0.115861
0.115861
0.115861
0.115861
0.115861
0.115861
0.115861
0.115861
0.115862
0.115862
0.115862
0.115862
0.115862
0.115862
0.115862
0.115862
0.115862
0.115862
0.115862
0.115862
0.115862
0.115862
0.115862
0.115862
0.115862
0.115862
0.115862
0.115862
0.115862
0.115862
0.115862
0.115862
0.115862
0.115862
0.115862
0.115862
0.115862
0.115862
0.115862
0.115862
0.115862
0.115862
0.115862
0.115862
0.115862
0.115862
0.115862
0.115862
0.115862
0.115862
0.115862
0.115862
0.115862
0.115862
0.115862
0.115862
0.115862
0.115862
0.115862
0.115862
0.115862
0.115862
0.115862
0.115862
0.115862
0.115862
0.115862
0.115862
0.115862
0.115862
0.115862
0.115862
0.115862
0.115862
0.115862
0.115862
0.115862
0.115862
0.115862
0.115862
0.115862
0.115862
0.115862
0.115862
0.115862
0.115862
0.115862
0.115862
0.115862
0.115862
0.115862
0.115862
0.115862
0.115862
0.115862
0.115862
0.115862
0.115862
0.115862
0.115862
0.115862
0.115862
0.115862
0.115862
0.115862
0.115862
0.115862
0.115862
0.115862
0.115862
0.115862
0.115862
0.115862
0.115862
0.115862
0.115862
0.115862
0.115862
0.115862
0.115862
0.115862
0.115862
0.115862
0.115862
0.115862
0.115862
0.115862
0.115862
0.115862
0.115862
0.115862
0.115862
0.115862
0.115862
0.115862
0.115862
0.115862
0.115862
0.115862
0.115862
0.115862
0.115862
0.115862
0.115862
0.115862
0.115862
0.115862
0.115862
0.115862
0.115862
0.115862
0.115862
0.115862
0.115862
0.115862
0.115862
0.115862
0.115862
0.115862
0.115862
0.115862
0.115862
0.115862
0.115862
0.115862
0.115862
0.115862
0.115862
0.115862
0.115862
0.115862
0.115862
0.115862
0.115862
0.115862
0.115862
0.115862
0.115862
0.115862
0.115862
0.115862
0.115862
0.115862
0.115862
0.115862
0.115862
0.115862
0.115862
0.115862
0.115862
0.115862
0.115862
0.115862
0.115862
0.115862
0.115862
0.115862
0.115862
0.115862
0.115862
0.115862
0.115862
0.115862
0.115862
0.115862
0.115862
0.115862
0.115862
0.115862
0.115862
0.115862
0.115862
0.115862
0.115862
0.115862
0.115862
0.115862
0.115862
0.115862
0.115862
0.115862
0.115862
0.115862
0.115862
0.115862
0.115862
0.115862
0.115862
0.115862
0.115862
0.115862
0.115862
0.115862
0.115862
0.115862
0.115862
0.115862
0.115862
0.115862
0.115862
0.115862
0.115862
0.115862
0.115862
0.115862
0.115862
0.115862
0.115862
0.115862
0.115862
0.115862
0.115862
0.115862
0.115862
0.115862
0.115862
0.115862
0.115862
0.115862
0.115862
0.115862
0.115862
0.115862
0.115862
0.115862
0.115862
0.115862
0.115862
0.115862
0.115862
0.115862
0.115862
0.115862
0.115862
0.115862
0.115862
0.115862
0.115862
0.115862
0.115862
0.115862
0.115862
0.115862
0.115862
0.115862
0.115862
0.115862
0.115862
0.115862
0.115862
0.115862
0.115862
0.115862
0.115862
0.115862
0.115862
0.115862
0.115862
0.115862
0.115862
0.115862
0.115862
0.115862
0.115862
0.115862
0.115862
0.115862
0.115862
0.115862
0.115862
0.115862
0.115862
0.115862
0.115862
0.115862
0.115862
0.115862
0.115862
0.115862
0.115862
0.115862
0.115862
0.115862
0.115862
0.115862
0.115862
0.115862
0.115862
0.115862
0.115862
0.115862
0.115862
0.115862
0.115862
0.115862
0.115862
0.115862
0.115862
0.115862
0.115862
0.115862
0.115862
0.115862
0.115862
0.115862
0.115862
0.115862
0.115862
0.115862
0.115862
0.115862
0.115862
0.115862
0.115862
0.115862
0.115862
0.115862
0.115862
0.115862
0.115862
0.115862
0.115862
0.115862
0.115862
0.115862
0.115862
0.115862
0.115862
0.115862
0.115862
0.115862
0.115862
0.115862
0.115862
0.115862
0.115862
0.115862
0.115862
0.115862
0.115862
0.115862
0.115862
0.115862
0.115862
0.115862
0.115862
0.115862
0.115862
0.115862
0.115862
0.115862
0.115862
0.115862
0.115862
0.115862
0.115862
0.115862
0.115862
0.115862
0.115862
0.115862
0.115862
0.115862
0.115862
0.115862
0.115862
0.115862
0.115862
0.115862
0.115862
0.115862
0.115862
0.115862
0.115862
0.115862
0.115862
0.115862
0.115862
0.115862
0.115862
0.115862
0.115862
0.115862
0.115862
0.115862
0.115862
0.115862
0.115862
0.115862
0.115862
0.115862
0.115862
0.115862
0.115862
0.115862
0.115862
0.115862
0.115862
0.115862
0.115862
0.115862
0.115862
0.115862
0.115862
0.115862
0.115862
0.115862
0.115862
0.115862
0.115862
0.115862
0.115862
0.115862
0.115862
0.115862
0.115862
0.115862
0.115862
0.115862
0.115862
0.115862
0.115862
0.115862
0.115862
0.115862
0.115862
0.115862
0.115862
0.115862
0.115862
0.115862
0.115862
0.115862
0.115862
0.115862
0.115862
0.115862
0.115862
0.115862
0.115862
0.115862
0.115862
0.115862
0.115862
0.115862
0.115862
0.115862
0.115862
0.115862
0.115862
0.115862
0.115862
0.115862
0.115862
0.115862
0.115862
0.115862
0.115862
0.115862
0.115862
0.115862
0.115862
0.115862
0.115862
0.115862
0.115862
0.115862
0.115862
0.115862
0.115862
0.115862
0.115862
0.115862
0.115862
0.115862
0.115862
0.115862
0.115862
0.115862
0.115862
0.115862
0.115862
0.115862
0.115862
0.115862
0.115862
0.115862
0.115862
0.115862
0.115862
0.115862
0.115862
0.115862
0.115862
0.115862
0.115862
0.115862
0.115862
0.115862
0.115862
0.115862
0.115862
0.115862
0.115862
0.115862
0.115862
0.115862
0.115862
0.115862
0.115862
0.115862
0.115862
0.115862
0.115862
0.115862
0.115862
0.115862
0.115862
0.115862
0.115862
0.115862
0.115862
0.115862
0.115862
0.115862
0.115862
0.115862
0.115862
0.115862
0.115862
0.115862
0.115862
0.115862
0.115862
0.115862
0.115862
0.115862
0.115862
0.115862
0.115862
0.115862
0.115862
0.115862
0.115862
0.115862
0.115862
0.115862
0.115862
0.115862
0.115862
0.115862
0.115862
0.115862
0.115862
0.115862
0.115862
0.115862
0.115862
0.115862
0.115862
0.115862
0.115862
0.115862
0.115862
0.115862
0.115862
0.115862
0.115862
0.115862
0.115862
0.115862
0.115862
0.115862
0.115862
0.115862
0.115862
0.115862
0.115862
0.115862
0.115862
0.115862
0.115862
0.115862
0.115862
0.115862
0.115862
0.115862
0.115862
0.115862
0.115862
0.115862
0.115862
0.115862
0.115862
0.115862
0.115862
0.115862
0.115862
0.115862
0.115862
0.115862
0.115862
0.115862
0.115862
0.115862
0.115862
0.115862
0.115862
0.115862
0.115862
0.115862
0.115862
0.115862
0.115862
0.115862
0.115862
0.115862
0.115862
0.115862
0.115862
0.115862
0.115862
0.115862
0.115862
0.115862
0.115862
0.115862
0.115862
0.115862
0.115862
0.115862
0.115862
0.115862
0.115862
0.115862
0.115862
0.115862
0.115862
0.115862
0.115862
0.115862
0.115862
0.115862
0.115862
0.115862
0.115862
0.115862
0.115862
0.115862
0.115862
0.115862
0.115862
0.115862
0.115862
0.115862
0.115862
0.115862
0.115862
0.115862
0.115862
0.115862
0.115862
0.115862
0.115862
0.115862
0.115862
0.115862
0.115862
0.115862
0.115862
0.115862
0.115862
0.115862
0.115862
0.115862
0.115862
0.115862
0.115862
0.115862
0.115862
0.115862
0.115862
0.115862
0.115862
0.115862
0.115862
0.115862
0.115862
0.115862
0.115862
0.115862
0.115862
0.115862
0.115862
0.115862
0.115862
0.115862
0.115862
0.115862
0.115862
0.115862
0.115862
0.115862
0.115862
0.115862
0.115862
0.115862
0.115862
0.115862
0.115862
0.115862
0.115862
0.115862
0.115862
0.115862
0.115862
0.115862
0.115862
0.115862
0.115862
0.115862
0.115862
0.115862
0.115862
0.115862
0.115862
0.115862
0.115862
0.115862
0.115862
0.115862
0.115862
0.115862
0.115862
0.115862
0.115862
0.115862
0.115862
0.115862
0.115862
0.115862
0.115862
0.115862
0.115862
0.115862
0.115862
0.115862
0.115862
0.115862
0.115862
0.115862
0.115862
0.115862
0.115862
0.115862
0.115862
0.115862
0.115862
0.115862
0.115862
0.115862
0.115862
0.115862
0.115862
0.115862
0.115862
0.115862
0.115862
0.115862
0.115862
0.115862
0.115862
0.115862
0.115862
0.115862
0.115862
0.115862
0.115862
0.115862
0.115862
0.115862
0.115862
0.115862
0.115862
0.115862
0.115862
0.115862
0.115862
0.115862
0.115862
0.115862
0.115862
0.115862
0.115862
0.115862
0.115862
0.115862
0.115862
0.115862
0.115862
0.115862
0.115862
0.115862
0.115862
0.115862
0.115862
0.115862
0.115862
0.115862
0.115862
0.115862
0.115862
0.115862
0.115862
0.115862
0.115862
0.115862
0.115862
0.115862
0.115862
0.115862
0.115862
0.115862
0.115862
0.115862
0.115862
0.115862
0.115862
0.115862
0.115862
0.115862
0.115862
0.115862
0.115862
0.115862
0.115862
0.115862
0.115862
0.115862
0.115862
0.115862
0.115862
0.115862
0.115862
0.115862
0.115862
0.115862
0.115862
0.115862
0.115862
0.115862
0.115862
0.115862
0.115862
0.115862
0.115862
0.115862
0.115862
0.115862
0.115862
0.115862
0.115862
0.115862
0.115862
0.115862
0.115862
0.115862
0.115862
0.115862
0.115862
0.115862
0.115862
0.115862
0.115862
0.115862
0.115862
0.115862
0.115862
0.115862
0.115862
0.115862
0.115862
0.115862
0.115862
0.115862
0.115862
0.115862
0.115862
0.115862
0.115862
0.115862
0.115862
0.115862
0.115862
0.115862
0.115862
0.115862
0.115862
0.115862
0.115862
0.115862
0.115862
0.115862
0.115862
0.115862
0.115862
0.115862
0.115862
0.115862
0.115862
0.115862
0.115862
0.115862
0.115862
0.115862
0.115862
0.115862
0.115862
0.115862
0.115862
0.115862
0.115862
0.115862
0.115862
0.115862
0.115862
0.115862
0.115862
0.115862
0.115862
0.115862
0.115862
0.115862
0.115862
0.115862
0.115862
0.115862
0.115862
0.115862
0.115862
0.115862
0.115862
0.115862
0.115862
0.115862
0.115862
0.115862
0.115862
0.115862
0.115862
0.115862
0.115862
0.115862
0.115862
0.115862
0.115862
0.115862
0.115862
0.115862
0.115862
0.115862
0.115862
0.115862
0.115862
0.115862
0.115862
0.115862
0.115862
0.115862
0.115862
0.115862
0.115862
0.115862
0.115862
0.115862
0.115862
0.115862
0.115862
0.115862
0.115862
0.115862
0.115862
0.115862
0.115862
0.115862
0.115862
0.115862
0.115862
0.115862
0.115862
0.115862
0.115862
0.115862
0.115862
0.115862
0.115862
0.115862
0.115862
0.115862
0.115862
0.115862
0.115862
0.115862
0.115862
0.115862
0.115862
0.115862
0.115862
0.115862
0.115862
0.115862
0.115862
0.115862
0.115862
0.115862
0.115862
0.115862
0.115862
0.115862
0.115862
0.115862
0.115862
0.115862
0.115862
0.115862
0.115862
0.115862
0.115862
0.115862
0.115862
0.115862
0.115862
0.115862
0.115862
0.115862
0.115862
0.115862
0.115862
0.115862
0.115862
0.115862
0.115862
0.115862
0.115862
0.115862
0.115862
0.115862
0.115862
0.115862
0.115862
0.115862
0.115862
0.115862
0.115862
0.115862
0.115862
0.115862
0.115862
0.115862
0.115862
0.115862
0.115862
0.115862
0.115862
0.115862
0.115862
0.115862
0.115862
0.115862
0.115862
0.115862
0.115862
0.115862
0.115862
0.115862
0.115862
0.115862
0.115862
0.115862
0.115862
0.115862
0.115862
0.115862
0.115862
0.115862
0.115862
0.115862
0.115862
0.115862
0.115862
0.115862
0.115862
0.115862
0.115862
0.115862
0.115862
0.115862
0.115862
0.115862
0.115862
0.115862
0.115862
0.115862
0.115862
0.115862
0.115862
0.115862
0.115862
0.115862
0.115862
0.115862
0.115862
0.115862
0.115862
0.115862
0.115862
0.115862
0.115862
0.115862
0.115862
0.115862
0.115862
0.115862
0.115862
0.115862
0.115862
0.115862
0.115862
0.115862
0.115862
0.115862
0.115862
0.115862
0.115862
0.115862
0.115862
0.115862
0.115862
0.115862
0.115862
0.115862
0.115862
0.115862
0.115862
0.115862
0.115862
0.115862
0.115862
0.115862
0.115862
0.115862
0.115862
0.115862
0.115862
0.115862
0.115862
0.115862
0.115862
0.115862
0.115862
0.115862
0.115862
0.115862
0.115862
0.115862
0.115862
0.115862
0.115862
0.115862
0.115862
0.115862
0.115862
0.115862
0.115862
0.115862
0.115862
0.115862
0.115862
0.115862
0.115862
0.115862
0.115862
0.115862
0.115862
0.115862
0.115862
0.115862
0.115862
0.115862
0.115862
0.115862
0.115862
0.115862
0.115862
0.115862
0.115862
0.115862
0.115862
0.115862
0.115862
0.115862
0.115862
0.115862
0.115862
0.115862
0.115862
0.115862
0.115862
0.115862
0.115862
0.115862
0.115862
0.115862
0.115862
0.115862
0.115862
0.115862
0.115862
0.115862
0.115862
0.115862
0.115862
0.115862
0.115862
0.115862
0.115862
0.115862
0.115862
0.115862
0.115862
0.115862
0.115862
0.115862
0.115862
0.115862
0.115862
0.115862
0.115862
0.115862
0.115862
0.115862
0.115862
0.115862
0.115862
0.115862
0.115862
0.115862
0.115862
0.115862
0.115862
0.115862
0.115862
0.115862
0.115862
0.115862
0.115862
0.115862
0.115862
0.115862
0.115862
0.115862
0.115862
0.115862
0.115862
0.115862
0.115862
0.115862
0.115862
0.115862
0.115862
0.115862
0.115862
0.115862
0.115862
0.115862
0.115862
0.115862
0.115862
0.115862
0.115862