/*--------------------------------*- C++ -*----------------------------------*\
  =========                 |
  \\      /  F ield         | OpenFOAM: The Open Source CFD Toolbox
   \\    /   O peration     | Website:  https://openfoam.org
    \\  /    A nd           | Version:  10
     \\/     M anipulation  |
\*---------------------------------------------------------------------------*/
FoamFile
{
    format      ascii;
    class       volScalarField;
    location    "0.01";
    object      T;
}
// * * * * * * * * * * * * * * * * * * * * * * * * * * * * * * * * * * * * * //

dimensions      [0 0 0 1 0 0 0];

internalField   nonuniform List<scalar> 
4176
(
237.371
237.384
237.384
237.385
237.386
237.389
237.392
237.396
237.4
237.405
237.411
237.416
237.424
237.43
237.44
237.447
237.459
237.467
237.481
237.492
237.504
237.523
237.528
237.555
239.786
239.798
239.799
239.8
239.802
239.805
239.808
239.812
239.817
239.822
239.829
239.835
239.844
239.85
239.861
239.869
239.883
239.891
239.907
239.919
239.933
239.953
239.961
239.993
240.825
240.838
240.838
240.839
240.841
240.844
240.848
240.852
240.857
240.862
240.869
240.875
240.884
240.89
240.902
240.909
240.923
240.932
240.947
240.959
240.974
240.993
241.005
241.039
242.003
242.015
242.015
242.017
242.019
242.022
242.025
242.029
242.034
242.04
242.046
242.052
242.061
242.067
242.079
242.086
242.099
242.107
242.122
242.134
242.148
242.166
242.177
242.208
243.064
243.076
243.076
243.077
243.079
243.082
243.086
243.09
243.095
243.1
243.106
243.112
243.12
243.126
243.137
243.143
243.157
243.164
243.178
243.188
243.201
243.218
243.227
243.253
244.184
244.196
244.196
244.197
244.199
244.202
244.206
244.21
244.214
244.219
244.225
244.23
244.239
244.243
244.255
244.259
244.273
244.278
244.293
244.301
244.313
244.328
244.337
244.36
245.19
245.201
245.202
245.203
245.205
245.207
245.21
245.214
245.218
245.223
245.229
245.233
245.241
245.245
245.256
245.26
245.272
245.277
245.29
245.297
245.309
245.321
245.33
245.35
246.306
246.317
246.317
246.318
246.32
246.323
246.325
246.329
246.333
246.336
246.342
246.345
246.354
246.356
246.367
246.369
246.381
246.385
246.397
246.403
246.414
246.425
246.432
246.45
247.28
247.291
247.291
247.292
247.293
247.296
247.299
247.302
247.306
247.308
247.314
247.316
247.325
247.326
247.336
247.338
247.349
247.352
247.363
247.368
247.377
247.387
247.394
247.409
248.345
248.356
248.356
248.357
248.358
248.361
248.363
248.366
248.37
248.372
248.378
248.379
248.387
248.388
248.397
248.399
248.408
248.411
248.42
248.425
248.433
248.441
248.447
248.461
249.269
249.279
249.279
249.28
249.281
249.283
249.286
249.288
249.291
249.293
249.298
249.3
249.305
249.307
249.314
249.316
249.323
249.326
249.334
249.337
249.344
249.35
249.356
249.366
250.394
250.404
250.404
250.405
250.406
250.408
250.41
250.412
250.414
250.417
250.42
250.422
250.426
250.428
250.433
250.434
250.441
250.442
250.449
250.45
250.457
250.461
250.467
250.474
251.26
251.269
251.27
251.27
251.271
251.273
251.275
251.277
251.279
251.281
251.283
251.286
251.289
251.291
251.295
251.296
251.302
251.301
251.309
251.309
251.316
251.318
251.323
251.329
252.319
252.328
252.329
252.329
252.331
252.332
252.334
252.335
252.337
252.339
252.341
252.343
252.345
252.347
252.351
252.351
252.357
252.355
252.363
252.361
252.368
252.368
252.373
252.377
253.24
253.248
253.248
253.249
253.249
253.25
253.251
253.252
253.253
253.254
253.255
253.256
253.257
253.257
253.26
253.258
253.262
253.259
253.264
253.26
253.265
253.262
253.266
253.265
254.316
254.325
254.325
254.326
254.327
254.328
254.33
254.331
254.332
254.334
254.335
254.337
254.339
254.339
254.342
254.342
254.346
254.344
254.351
254.347
254.354
254.352
254.357
254.357
255.091
255.099
255.099
255.099
255.099
255.1
255.1
255.1
255.101
255.101
255.101
255.101
255.101
255.1
255.101
255.098
255.1
255.095
255.098
255.092
255.096
255.09
255.093
255.087
256.32
256.328
256.328
256.329
256.329
256.33
256.331
256.331
256.332
256.332
256.333
256.333
256.334
256.333
256.334
256.332
256.335
256.331
256.335
256.328
256.334
256.328
256.332
256.327
257.009
257.016
257.016
257.017
257.017
257.017
257.017
257.018
257.018
257.017
257.017
257.016
257.016
257.014
257.014
257.011
257.012
257.006
257.009
257.001
257.004
256.996
256.999
256.991
258.203
258.21
258.21
258.211
258.211
258.211
258.211
258.211
258.211
258.21
258.21
258.208
258.208
258.205
258.206
258.201
258.202
258.196
258.198
258.19
258.193
258.184
258.187
258.177
259.001
259.008
259.008
259.008
259.008
259.008
259.008
259.008
259.007
259.006
259.006
259.004
259.003
259
259
258.995
258.995
258.988
258.99
258.98
258.983
258.972
258.975
258.964
260.062
260.069
260.069
260.069
260.069
260.069
260.068
260.068
260.067
260.066
260.064
260.062
260.061
260.057
260.057
260.051
260.051
260.043
260.044
260.033
260.036
260.024
260.026
260.013
260.971
260.978
260.978
260.978
260.978
260.978
260.977
260.976
260.975
260.974
260.972
260.97
260.968
260.964
260.963
260.956
260.956
260.947
260.948
260.936
260.938
260.925
260.927
260.913
261.96
261.966
261.966
261.966
261.965
261.965
261.964
261.963
261.962
261.96
261.958
261.955
261.953
261.949
261.947
261.94
261.939
261.929
261.93
261.917
261.919
261.904
261.906
261.89
262.914
262.92
262.919
262.919
262.919
262.919
262.918
262.916
262.915
262.913
262.91
262.907
262.905
262.9
262.898
262.89
262.889
262.878
262.878
262.865
262.866
262.851
262.853
262.835
263.884
263.89
263.89
263.89
263.889
263.889
263.887
263.886
263.884
263.882
263.879
263.876
263.872
263.867
263.865
263.857
263.855
263.844
263.843
263.829
263.83
263.814
263.815
263.796
264.851
264.857
264.857
264.857
264.856
264.855
264.854
264.852
264.85
264.848
264.845
264.841
264.837
264.832
264.828
264.82
264.818
264.806
264.805
264.791
264.791
264.774
264.775
264.754
265.823
265.828
265.828
265.828
265.827
265.826
265.825
265.823
265.821
265.818
265.814
265.811
265.806
265.801
265.797
265.788
265.785
265.773
265.772
265.756
265.756
265.738
265.739
265.717
266.797
266.802
266.801
266.801
266.801
266.8
266.798
266.796
266.793
266.79
266.787
266.782
266.778
266.772
266.768
266.758
266.755
266.743
266.741
266.725
266.724
266.705
266.706
266.683
267.774
267.778
267.778
267.778
267.777
267.776
267.774
267.772
267.769
267.766
267.762
267.757
267.753
267.746
267.742
267.732
267.729
267.715
267.713
267.696
267.695
267.676
267.676
267.652
268.754
268.758
268.758
268.758
268.757
268.756
268.754
268.752
268.748
268.745
268.741
268.736
268.731
268.724
268.719
268.709
268.705
268.692
268.689
268.672
268.67
268.65
268.65
268.625
269.738
269.742
269.741
269.741
269.74
269.739
269.737
269.734
269.731
269.727
269.723
269.718
269.712
269.705
269.7
269.69
269.685
269.671
269.668
269.651
269.649
269.628
269.628
269.602
270.725
270.729
270.728
270.728
270.727
270.726
270.724
270.721
270.717
270.713
270.709
270.703
270.697
270.69
270.684
270.674
270.669
270.655
270.651
270.633
270.631
270.61
270.609
270.583
271.715
271.719
271.719
271.719
271.718
271.716
271.714
271.711
271.707
271.703
271.698
271.692
271.686
271.679
271.672
271.662
271.657
271.642
271.638
271.62
271.617
271.596
271.595
271.568
272.71
272.713
272.713
272.713
272.712
272.71
272.708
272.705
272.701
272.696
272.691
272.685
272.679
272.672
272.665
272.654
272.648
272.634
272.629
272.611
272.608
272.586
272.585
272.557
273.708
273.711
273.711
273.711
273.71
273.708
273.705
273.702
273.698
273.694
273.688
273.682
273.676
273.668
273.661
273.651
273.644
273.63
273.625
273.606
273.602
273.58
273.579
273.551
274.71
274.713
274.713
274.713
274.711
274.71
274.707
274.704
274.7
274.695
274.69
274.683
274.677
274.669
274.661
274.651
274.644
274.629
274.624
274.605
274.601
274.579
274.577
274.548
275.715
275.719
275.718
275.718
275.717
275.715
275.712
275.709
275.705
275.7
275.695
275.688
275.681
275.674
275.665
275.655
275.648
275.633
275.627
275.609
275.604
275.581
275.58
275.551
276.725
276.728
276.728
276.728
276.726
276.724
276.722
276.718
276.714
276.709
276.704
276.697
276.69
276.682
276.674
276.664
276.656
276.641
276.635
276.616
276.612
276.589
276.587
276.557
277.738
277.741
277.741
277.741
277.739
277.738
277.735
277.731
277.727
277.722
277.716
277.71
277.703
277.695
277.686
277.676
277.668
277.654
277.647
277.628
277.623
277.6
277.598
277.568
278.755
278.758
278.758
278.758
278.756
278.754
278.752
278.748
278.744
278.739
278.733
278.727
278.719
278.711
278.703
278.693
278.684
278.67
278.663
278.644
278.639
278.616
278.614
278.584
279.775
279.778
279.778
279.778
279.777
279.775
279.772
279.769
279.765
279.76
279.754
279.747
279.74
279.732
279.723
279.713
279.704
279.691
279.683
279.665
279.659
279.636
279.634
279.603
280.799
280.802
280.802
280.802
280.801
280.799
280.796
280.793
280.789
280.784
280.778
280.771
280.764
280.756
280.747
280.737
280.728
280.715
280.707
280.689
280.683
280.66
280.658
280.627
281.827
281.829
281.829
281.829
281.828
281.826
281.824
281.82
281.816
281.811
281.806
281.799
281.792
281.784
281.775
281.765
281.756
281.743
281.735
281.717
281.711
281.688
281.685
281.655
282.857
282.859
282.86
282.86
282.859
282.857
282.854
282.851
282.847
282.842
282.837
282.83
282.823
282.815
282.806
282.796
282.787
282.774
282.766
282.748
282.742
282.719
282.717
282.686
283.89
283.892
283.893
283.893
283.892
283.89
283.888
283.884
283.88
283.876
283.87
283.864
283.857
283.849
283.84
283.831
283.821
283.809
283.8
283.783
283.776
283.754
283.751
283.721
284.925
284.927
284.928
284.928
284.927
284.925
284.923
284.92
284.916
284.911
284.906
284.9
284.893
284.885
284.877
284.867
284.858
284.845
284.836
284.82
284.813
284.791
284.788
284.758
285.961
285.964
285.964
285.964
285.963
285.962
285.96
285.957
285.953
285.948
285.943
285.937
285.93
285.923
285.914
285.905
285.896
285.883
285.874
285.858
285.851
285.829
285.826
285.796
286.997
287
287
287.001
287
286.999
286.996
286.994
286.99
286.985
286.98
286.974
286.968
286.96
286.952
286.943
286.934
286.922
286.913
286.897
286.89
286.868
286.865
286.836
288.032
288.035
288.035
288.035
288.035
288.034
288.032
288.029
288.025
288.021
288.016
288.01
288.004
287.996
287.988
287.979
287.97
287.959
287.95
287.934
287.927
287.906
287.903
287.874
289.063
289.065
289.066
289.066
289.066
289.065
289.063
289.06
289.056
289.052
289.047
289.042
289.035
289.028
289.02
289.012
289.003
288.991
288.983
288.967
288.96
288.94
288.936
288.908
290.086
290.089
290.089
290.09
290.089
290.088
290.086
290.084
290.08
290.076
290.072
290.066
290.06
290.053
290.045
290.037
290.028
290.017
290.008
289.994
289.986
289.967
289.963
289.936
291.098
291.1
291.101
291.102
291.101
291.1
291.098
291.096
291.093
291.089
291.084
291.079
291.073
291.066
291.059
291.051
291.042
291.032
291.023
291.009
291.002
290.983
290.979
290.953
292.093
292.095
292.096
292.096
292.096
292.095
292.093
292.091
292.088
292.084
292.08
292.075
292.069
292.063
292.056
292.048
292.039
292.029
292.021
292.008
292
291.983
291.978
291.953
293.063
293.066
293.066
293.067
293.067
293.066
293.064
293.062
293.059
293.056
293.052
293.047
293.041
293.035
293.028
293.021
293.013
293.003
292.995
292.983
292.975
292.959
292.954
292.931
294.001
294.003
294.004
294.005
294.005
294.004
294.002
294
293.998
293.994
293.99
293.986
293.981
293.975
293.968
293.961
293.953
293.945
293.937
293.926
293.918
293.903
293.898
293.876
294.896
294.898
294.899
294.9
294.899
294.899
294.897
294.895
294.893
294.89
294.886
294.882
294.877
294.872
294.866
294.859
294.852
294.844
294.836
294.826
294.819
294.805
294.801
294.78
295.737
295.739
295.74
295.74
295.74
295.739
295.738
295.737
295.734
295.731
295.728
295.724
295.72
295.715
295.709
295.703
295.697
295.69
295.682
295.673
295.666
295.654
295.65
295.632
296.512
296.514
296.514
296.515
296.515
296.514
296.513
296.512
296.51
296.507
296.504
296.501
296.497
296.492
296.487
296.482
296.476
296.47
296.463
296.455
296.449
296.438
296.434
296.418
297.21
297.211
297.212
297.213
297.213
297.212
297.211
297.21
297.208
297.206
297.203
297.2
297.197
297.193
297.189
297.184
297.179
297.173
297.167
297.161
297.155
297.146
297.142
297.128
297.822
297.824
297.824
297.825
297.825
297.824
297.824
297.823
297.821
297.819
297.817
297.814
297.811
297.808
297.805
297.801
297.796
297.791
297.786
297.781
297.776
297.769
297.765
297.754
298.344
298.345
298.346
298.346
298.346
298.346
298.346
298.345
298.343
298.342
298.34
298.338
298.336
298.333
298.33
298.327
298.323
298.319
298.315
298.311
298.306
298.3
298.297
298.288
298.775
298.776
298.777
298.777
298.777
298.777
298.777
298.776
298.775
298.774
298.772
298.771
298.769
298.767
298.764
298.762
298.759
298.756
298.752
298.749
298.745
298.741
298.738
298.731
299.12
299.121
299.121
299.121
299.121
299.121
299.121
299.12
299.12
299.119
299.118
299.116
299.115
299.113
299.111
299.109
299.107
299.105
299.102
299.1
299.097
299.093
299.091
299.086
299.385
299.386
299.386
299.387
299.387
299.386
299.386
299.386
299.385
299.385
299.384
299.383
299.382
299.381
299.379
299.378
299.376
299.374
299.372
299.371
299.368
299.366
299.365
299.361
299.583
299.584
299.584
299.584
299.584
299.584
299.584
299.584
299.583
299.583
299.582
299.581
299.581
299.58
299.579
299.578
299.577
299.575
299.574
299.573
299.571
299.57
299.568
299.566
299.725
299.726
299.726
299.726
299.726
299.726
299.726
299.726
299.725
299.725
299.725
299.724
299.724
299.723
299.722
299.722
299.721
299.72
299.719
299.718
299.717
299.716
299.715
299.714
299.824
299.824
299.824
299.825
299.825
299.825
299.824
299.824
299.824
299.824
299.824
299.823
299.823
299.823
299.822
299.822
299.821
299.821
299.82
299.819
299.819
299.818
299.818
299.816
299.89
299.891
299.891
299.891
299.891
299.891
299.891
299.891
299.891
299.89
299.89
299.89
299.89
299.89
299.889
299.889
299.889
299.888
299.888
299.887
299.887
299.887
299.886
299.886
299.933
299.934
299.934
299.934
299.934
299.934
299.934
299.934
299.934
299.934
299.933
299.933
299.933
299.933
299.933
299.933
299.932
299.932
299.932
299.932
299.931
299.931
299.931
299.931
299.961
299.961
299.961
299.961
299.961
299.961
299.961
299.961
299.961
299.961
299.961
299.961
299.96
299.96
299.96
299.96
299.96
299.96
299.96
299.96
299.959
299.959
299.959
299.959
299.977
299.977
299.977
299.977
299.977
299.977
299.977
299.977
299.977
299.977
299.977
299.977
299.977
299.977
299.977
299.977
299.977
299.977
299.977
299.977
299.977
299.977
299.976
299.976
299.987
299.987
299.987
299.987
299.987
299.987
299.987
299.987
299.987
299.987
299.987
299.987
299.987
299.987
299.987
299.987
299.987
299.987
299.987
299.987
299.987
299.987
299.987
299.987
299.993
299.993
299.993
299.993
299.993
299.993
299.993
299.993
299.993
299.993
299.993
299.993
299.993
299.993
299.993
299.993
299.993
299.993
299.993
299.993
299.993
299.993
299.993
299.993
299.996
299.996
299.996
299.996
299.996
299.996
299.996
299.996
299.996
299.996
299.996
299.996
299.996
299.996
299.996
299.996
299.996
299.996
299.996
299.996
299.996
299.996
299.996
299.996
299.998
299.998
299.998
299.998
299.998
299.998
299.998
299.998
299.998
299.998
299.998
299.998
299.998
299.998
299.998
299.998
299.998
299.998
299.998
299.998
299.998
299.998
299.998
299.998
299.999
299.999
299.999
299.999
299.999
299.999
299.999
299.999
299.999
299.999
299.999
299.999
299.999
299.999
299.999
299.999
299.999
299.999
299.999
299.999
299.999
299.999
299.999
299.999
299.999
299.999
299.999
299.999
299.999
299.999
299.999
299.999
299.999
299.999
299.999
299.999
299.999
299.999
299.999
299.999
299.999
299.999
299.999
299.999
299.999
299.999
299.999
299.999
300
300
300
300
300
300
300
300
300
300
300
300
300
300
300
300
300
300
300
300
300
300
300
300
300
300
300
300
300
300
300
300
300
300
300
300
300
300
300
300
300
300
300
300
300
300
300
300
300
300
300
300
300
300
300
300
300
300
300
300
300
300
300
300
300
300
300
300
300
300
300
300
300
300
300
300
300
300
300
300
300
300
300
300
300
300
300
300
300
300
300
300
300
300
300
300
300
300
300
300
300
300
300
300
300
300
300
300
300
300
300
300
300
300
300
300
300
300
300
300
300
300
300
300
300
300
300
300
300
300
300
300
300
300
300
300
300
300
300
300
300
300
300
300
300
300
300
300
300
300
300
300
300
300
300
300
300
300
300
300
300
300
300
300
300
300
300
300
300
300
300
300
300
300
300
300
300
300
300
300
300
300
300
300
300
300
300
300
300
300
300
300
300
300
300
300
300
300
300
300
300
300
300
300
300
300
300
300
300
300
300
300
300
300
300
300
300
300
300
300
300
300
300
300
300
300
300
300
300
300
300
300
300
300
300
300
300
300
300
300
300
300
300
300
300
300
300
300
300
300
300
300
300
300
300
300
300
300
300
300
300
300
300
300
300
300
300
300
300
300
300
300
300
300
300
300
300
300
300
300
300
300
300
300
300
300
300
300
300
300
300
300
300
300
300
300
300
300
300
300
300
300
300
300
300
300
300
300
300
300
300
300
300
300
300
300
300
300
300
300
300
300
300
300
300
300
300
300
300
300
300
300
300
300
300
300
300
300
300
300
300
300
300
300
300
300
300
300
300
300
300
300
300
300
300
300
300
300
300
300
300
300
300
300
300
300
300
300
300
300
300
300
300
300
300
300
300
300
300
300
300
300
300
300
300
300
300
300
300
300
300
300
300
300
300
300
300
300
300
300
300
300
300
300
300
300
300
300
300
300
300
300
300
300
300
300
300
300
300
300
300
300
300
300
300
300
300
300
300
300
300
300
300
300
300
300
300
300
300
300
300
300
300
300
300
300
300
300
300
300
300
300
300
300
300
300
300
300
300
300
300
300
300
300
300
300
300
300
300
300
300
300
300
300
300
300
300
300
300
300
300
300
300
300
300
300
300
300
300
300
300
300
300
300
300
300
300
300
300
300
300
300
300
300
300
300
300
300
300
300
300
300
300
300
300
300
300
300
300
300
300
300
300
300
300
300
300
300
300
300
300
300
300
300
300
300
300
300
300
300
300
300
300
300
300
300
300
300
300
300
300
300
300
300
300
300
300
300
300
300
300
300
300
300
300
300
300
300
300
300
300
300
300
300
300
300
300
300
300
300
300
300
300
300
300
300
300
300
300
300
300
300
300
300
300
300
300
300
300
300
300
300
300
300
300
300
300
300
300
300
300
300
300
300
300
300
300
300
300
300
300
300
300
300
300
300
300
300
300
300
300
300
300
300
300
300
300
300
300
300
300
300
300
300
300
300
300
300
300
300
300
300
300
300
300
300
300
300
300
300
300
300
300
300
300
300
300
300
300
300
300
300
300
300
300
300
300
300
300
300
300
300
300
300
300
300
300
300
300
300
300
300
300
300
300
300
300
300
300
300
300
300
300
300
300
300
300
300
300
300
300
300
300
300
300
300
300
300
300
300
300
300
300
300
300
300
300
300
300
300
300
300
300
300
300
300
300
300
300
300
300
300
300
300
300
300
300
300
300
300
300
300
300
300
300
300
300
300
300
300
300
300
300
300
300
300
300
300
300
300
300
300
300
300
300
300
300
300
300
300
300
300
300
300
300
300
300
300
300
300
300
300
300
300
300
300
300
300
300
300
300
300
300
300
300
300
300
300
300
300
300
300
300
300
300
300
300
300
300
300
300
300
300
300
300
300
300
300
300
300
300
300
300
300
300
300
300
300
300
300
300
300
300
300
300
300
300
300
300
300
300
300
300
300
300
300
300
300
300
300
300
300
300
300
300
300
300
300
300
300
300
300
300
300
300
300
300
300
300
300
300
300
300
300
300
300
300
300
300
300
300
300
300
300
300
300
300
300
300
300
300
300
300
300
300
300
300
300
300
300
300
300
300
300
300
300
300
300
300
300
300
300
300
300
300
300
300
300
300
300
300
300
300
300
300
300
300
300
300
300
300
300
300
300
300
300
300
300
300
300
300
300
300
300
300
300
300
300
300
300
300
300
300
300
300
300
300
300
300
300
300
300
300
300
300
300
300
300
300
300
300
300
300
300
300
300
300
300
300
300
300
300
300
300
300
300
300
300
300
300
300
300
300
300
300
300
300
300
300
300
300
300
300
300
300
300
300
300
300
300
300
300
300
300
300
300
300
300
300
300
300
300
300
300
300
300
300
300
300
300
300
300
300
300
300
300
300
300
300
300
300
300
300
300
300
300
300
300
300
300
300
300
300
300
300
300
300
300
300
300
300
300
300
300
300
300
300
300
300
300
300
300
300
300
300
300
300
300
300
300
300
300
300
300
300
300
300
300
300
300
300
300
300
300
300
300
300
300
300
300
300
300
300
300
300
300
300
300
300
300
300
300
300
300
300
300
300
300
300
300
300
300
300
300
300
300
300
300
300
300
300
300
300
300
300
300
300
300
300
300
300
300
300
300
300
300
300
300
300
300
300
300
300
300
300
300
300
300
300
300
300
300
300
300
300
300
300
300
300
300
300
300
300
300
300
300
300
300
300
300
300
300
300
300
300
300
300
300
300
300
300
300
300
300
300
300
300
300
300
300
300
300
300
300
300
300
300
300
300
300
300
300
300
300
300
300
300
300
300
300
300
300
300
300
300
300
300
300
300
300
300
300
300
300
300
300
300
300
300
300
300
300
300
300
300
300
300
300
300
300
300
300
300
300
300
300
300
300
300
300
300
300
300
300
300
300
300
300
300
300
300
300
300
300
300
300
300
300
300
300
300
300
300
300
300
300
300
300
300
300
300
300
300
300
300
300
300
300
300
300
300
300
300
300
300
300
300
300
300
300
300
300
300
300
300
300
300
300
300
300
300
300
300
300
300
300
300
300
300
300
300
300
300
300
300
300
300
300
300
300
300
300
300
300
300
300
300
300
300
300
300
300
300
300
300
300
300
300
300
300
300
300
300
300
300
300
300
300
300
300
300
300
300
300
300
300
300
300
300
300
300
300
300
300
300
300
300
300
300
300
300
300
300
300
300
300
300
300
300
300
300
300
300
300
300
300
300
300
300
300
300
300
300
300
300
300
300
300
300
300
300
300
300
300
300
300
300
300
300
300
300
300
300
300
300
300
300
300
300
300
300
300
300
300
300
300
300
300
300
300
300
300
300
300
300
300
300
300
300
300
300
300
300
300
300
300
300
300
300
300
300
300
300
300
300
300
300
300
300
300
300
300
300
300
300
300
300
300
300
300
300
300
300
300
300
300
300
300
300
300
300
300
300
300
300
300
300
300
300
300
300
300
300
300
300
300
300
300
300
300
300
300
300
300
300
300
300
300
300
300
300
300
300
300
300
300
300
300
300
300
300
300
300
300
300
300
300
300
300
300
300
300
300
300
300
300
300
300
300
300
300
300
300
300
300
300
300
300
300
300
300
300
300
300
300
300
300
300
300
300
300
300
300
300
300
300
300
300
300
300
300
300
300
300
300
300
300
300
300
300
300
300
300
300
300
300
300
300
300
300
300
300
300
300
300
300
300
300
300
300
300
300
300
300
300
300
300
300
300
300
300
300
300
300
300
300
300
300
300
300
300
300
300
300
300
300
300
300
300
300
300
300
300
300
300
300
300
300
300
300
300
300
300
300
300
300
300
300
300
300
300
300
300
300
300
300
300
300
300
300
300
300
300
300
300
300
300
300
300
300
300
300
300
300
300
300
300
300
300
300
300
300
300
300
300
300
300
300
300
300
300
300
300
300
300
300
300
300
300
300
300
300
300
300
300
300
300
300
300
300
300
300
300
300
300
300
300
300
300
300
300
300
300
300
300
300
300
300
300
300
300
300
300
300
300
300
300
300
300
300
300
300
300
300
300
300
300
300
300
300
300
300
300
300
300
300
300
300
300
300
300
300
300
300
300
300
300
300
300
300
300
300
300
300
300
300
300
300
300
300
300
300
300
300
300
300
300
300
300
300
300
300
300
300
300
300
300
300
300
300
300
300
300
300
300
300
300
300
300
300
300
300
300
300
300
300
300
300
300
300
300
300
300
300
300
300
300
300
300
300
300
300
300
300
300
300
300
300
300
300
300
300
300
300
300
300
300
300
300
300
300
300
300
300
300
300
300
300
300
300
300
300
300
300
300
300
300
300
300
300
300
300
300
300
300
300
300
300
300
300
300
300
300
300
300
300
300
300
300
300
300
300
300
300
300
300
300
300
300
300
300
300
300
300
300
300
300
300
300
300
300
300
300
300
300
300
300
300
300
300
300
300
300
300
300
300
300
300
300
300
300
300
300
300
300
300
300
300
300
300
300
300
300
300
300
300
300
300
300
300
300
300
300
300
300
300
300
300
300
300
300
300
300
300
300
300
300
300
300
300
300
300
300
300
300
300
300
300
300
300
300
300
300
300
300
300
300
300
300
300
300
300
300
300
300
300
300
300
300
300
300
300
300
300
300
300
300
300
300
300
300
300
300
300
300
300
300
300
300
300
300
300
300
300
300
300
300
300
300
300
300
300
300
300
300
300
300
300
300
300
300
300
300
300
300
300
300
300
300
300
300
300
300
300
300
300
300
300
300
300
300
300
300
300
300
300
300
300
300
300
300
300
300
300
300
300
300
300
300
300
300
300
300
300
300
300
300
300
300
300
300
300
300
300
300
300
300
300
300
300
300
300
300
300
300
300
300
300
300
300
300
300
300
300
300
300
300
300
300
300
300
300
300
300
300
300
300
300
300
300
300
300
300
300
300
300
300
300
300
300
300
300
300
300
300
300
300
300
300
300
300
300
300
300
300
300
300
300
300
300
300
300
300
300
300
300
300
300
300
300
300
300
300
300
300
300
300
300
300
300
300
300
300
300
300
300
300
300
300
300
300
300
300
300
300
300
300
300
300
300
300
300
300
300
300
300
300
300
300
300
300
300
300
300
300
300
300
300
300
300
300
300
300
300
300
300
300
300
300
300
300
300
300
300
300
300
300
300
300
300
300
300
300
300
300
300
300
300
300
300
300
300
300
300
300
300
300
300
300
300
300
300
300
300
300
300
300
300
300
300
300
300
300
300
)
;

boundaryField
{
    asym1
    {
        type            wedge;
    }
    asym2
    {
        type            wedge;
    }
    inlet
    {
        type            fixedValue;
        value           uniform 300;
    }
    nozzle
    {
        type            zeroGradient;
    }
    outlet
    {
        type            zeroGradient;
    }
}


// ************************************************************************* //
