/*--------------------------------*- C++ -*----------------------------------*\
  =========                 |
  \\      /  F ield         | OpenFOAM: The Open Source CFD Toolbox
   \\    /   O peration     | Website:  https://openfoam.org
    \\  /    A nd           | Version:  10
     \\/     M anipulation  |
\*---------------------------------------------------------------------------*/
FoamFile
{
    format      ascii;
    class       volVectorField;
    location    "0.01";
    object      U;
}
// * * * * * * * * * * * * * * * * * * * * * * * * * * * * * * * * * * * * * //

dimensions      [0 1 -1 0 0 0 0];

internalField   nonuniform List<vector> 
4176
(
(233.773 0.0186783 -2.4947e-11)
(233.775 0.0260902 4.51162e-12)
(233.766 0.0583752 1.75097e-12)
(233.755 0.0679059 -1.87684e-12)
(233.739 0.0965472 1.59327e-12)
(233.719 0.109768 -1.43469e-12)
(233.695 0.133198 -4.53119e-13)
(233.667 0.148208 -3.33493e-12)
(233.635 0.168511 -1.76767e-12)
(233.599 0.180278 5.87601e-12)
(233.559 0.203552 3.79265e-13)
(233.513 0.201887 8.4221e-13)
(233.465 0.239746 6.99691e-13)
(233.409 0.209533 5.22987e-13)
(233.353 0.276236 -6.34247e-13)
(233.285 0.202991 -9.84352e-14)
(233.222 0.307499 -9.60851e-13)
(233.139 0.188565 -1.36951e-12)
(233.07 0.313426 -1.19264e-12)
(232.969 0.205552 -8.75516e-13)
(232.907 0.240275 1.212e-12)
(232.767 0.28636 7.21994e-13)
(232.738 0.106216 -4.73349e-14)
(232.559 0.388205 4.00976e-13)
(223.389 0.0251694 -2.15277e-11)
(223.389 0.0393363 4.19195e-12)
(223.379 0.0803889 1.95302e-12)
(223.366 0.097794 -2.18035e-12)
(223.349 0.135154 1.65227e-12)
(223.327 0.156648 -1.19708e-12)
(223.3 0.188799 -1.09459e-12)
(223.269 0.212501 -3.52531e-12)
(223.234 0.241734 -1.33609e-12)
(223.193 0.26241 5.22547e-12)
(223.149 0.295434 2.79474e-13)
(223.098 0.302329 1.27983e-12)
(223.045 0.351673 1.88654e-13)
(222.983 0.329093 3.81876e-13)
(222.921 0.409673 -3.23435e-13)
(222.846 0.342907 -5.34352e-13)
(222.776 0.464046 -1.60923e-12)
(222.685 0.34954 -1.19182e-12)
(222.609 0.497251 -2.05756e-12)
(222.496 0.379554 -1.07061e-12)
(222.423 0.459001 1.31501e-12)
(222.272 0.465199 -1.81625e-13)
(222.226 0.328966 -5.4098e-13)
(222.017 0.584138 1.10607e-13)
(218.936 0.0311536 -2.48634e-11)
(218.936 0.0523391 4.00427e-12)
(218.926 0.102366 -5.37687e-13)
(218.913 0.127987 -1.56338e-12)
(218.894 0.174407 8.59927e-13)
(218.872 0.20451 -2.26473e-12)
(218.845 0.24576 5.03725e-13)
(218.813 0.278491 -2.32205e-12)
(218.776 0.317084 -5.32347e-13)
(218.735 0.346948 5.35346e-12)
(218.689 0.390322 2.29543e-13)
(218.637 0.405839 8.23916e-13)
(218.583 0.467523 1.12161e-12)
(218.519 0.452467 1.12851e-12)
(218.457 0.547918 -1.90797e-13)
(218.378 0.487723 9.7841e-13)
(218.308 0.626466 -2.82296e-12)
(218.214 0.517588 -1.99956e-12)
(218.137 0.68792 -1.59819e-12)
(218.022 0.570813 -1.15639e-12)
(217.942 0.687615 8.51053e-13)
(217.794 0.672734 6.64554e-13)
(217.73 0.615768 -3.9021e-13)
(217.503 0.812072 3.37306e-13)
(214.186 0.0371579 -1.56237e-11)
(214.186 0.0656952 4.05709e-12)
(214.175 0.124693 -1.12083e-12)
(214.162 0.15866 -2.7344e-13)
(214.143 0.214242 -4.38711e-14)
(214.12 0.253039 -4.64523e-12)
(214.092 0.303508 7.12581e-13)
(214.06 0.345321 -3.64679e-12)
(214.023 0.393419 -3.42238e-12)
(213.981 0.432377 7.27325e-12)
(213.935 0.486414 8.09787e-13)
(213.883 0.510164 2.2839e-13)
(213.828 0.584647 1.97935e-12)
(213.763 0.576539 4.70711e-13)
(213.702 0.687195 -2.69876e-12)
(213.623 0.633012 1.88006e-13)
(213.554 0.789289 -1.85729e-12)
(213.459 0.685702 -1.8834e-12)
(213.384 0.878179 -4.85157e-13)
(213.269 0.762613 -1.35718e-12)
(213.193 0.913743 -4.9107e-13)
(213.045 0.881537 3.21987e-13)
(212.986 0.909696 -2.01626e-12)
(212.768 1.04335 -2.81238e-12)
(209.539 0.0430823 -1.23846e-11)
(209.538 0.0790939 6.05973e-12)
(209.527 0.14693 5.20581e-13)
(209.513 0.189273 -3.56433e-13)
(209.494 0.253959 9.07669e-13)
(209.471 0.301391 -2.2954e-12)
(209.444 0.36105 -5.07598e-14)
(209.411 0.411815 -2.49924e-12)
(209.375 0.469432 -1.28095e-12)
(209.333 0.517157 5.77296e-12)
(209.288 0.58202 1.04962e-12)
(209.235 0.61345 2.03155e-12)
(209.182 0.700857 8.30698e-13)
(209.117 0.699129 1.9763e-13)
(209.057 0.824787 -1.83115e-12)
(208.978 0.776048 -9.73204e-13)
(208.912 0.949273 -2.30978e-12)
(208.818 0.849834 -1.12875e-12)
(208.746 1.06421 -2.67323e-12)
(208.633 0.943756 1.02954e-12)
(208.564 1.13324 3.27381e-12)
(208.416 1.07747 1.51248e-12)
(208.368 1.16669 -1.54017e-13)
(208.167 1.25315 4.54263e-13)
(204.963 0.0488276 -1.59324e-11)
(204.962 0.0923758 6.58353e-12)
(204.951 0.168751 1.44207e-12)
(204.938 0.21941 -1.25013e-12)
(204.918 0.293021 -4.76974e-12)
(204.896 0.348893 -4.18366e-12)
(204.868 0.417616 1.66242e-12)
(204.837 0.477028 -3.73642e-12)
(204.801 0.544131 -1.12188e-12)
(204.759 0.600022 7.45969e-12)
(204.715 0.675911 1.44e-12)
(204.663 0.714149 -6.93005e-13)
(204.612 0.814641 2.37228e-13)
(204.547 0.818469 1.81058e-12)
(204.491 0.958943 -2.82535e-12)
(204.412 0.914975 4.19505e-13)
(204.349 1.10455 1.61977e-12)
(204.257 1.00861 5.85978e-13)
(204.188 1.24332 1.60054e-12)
(204.079 1.11553 1.88129e-12)
(204.013 1.34318 1.45594e-12)
(203.871 1.26444 -2.32989e-12)
(203.825 1.40339 -2.02543e-12)
(203.635 1.44837 5.01625e-13)
(200.454 0.0542229 -1.59499e-11)
(200.453 0.105455 6.96081e-12)
(200.442 0.189892 -6.49076e-12)
(200.429 0.248762 -1.47738e-12)
(200.409 0.331025 5.93449e-13)
(200.388 0.39502 -4.29106e-12)
(200.36 0.472648 -2.27035e-12)
(200.33 0.540222 -1.64687e-12)
(200.295 0.616851 1.2647e-12)
(200.254 0.679934 4.65242e-12)
(200.212 0.767326 6.27124e-13)
(200.16 0.811017 4.3235e-12)
(200.112 0.925078 6.08037e-12)
(200.048 0.93318 2.9892e-12)
(199.995 1.08859 -1.34914e-12)
(199.917 1.04843 2.00839e-12)
(199.859 1.25391 -1.75466e-12)
(199.767 1.16121 -1.42571e-12)
(199.704 1.41387 -3.93181e-13)
(199.597 1.28257 8.88792e-13)
(199.533 1.54342 9.61725e-13)
(199.399 1.44244 -2.48064e-12)
(199.353 1.63379 -1.03267e-12)
(199.171 1.63795 2.09685e-12)
(196.007 0.0592466 -1.77909e-11)
(196.006 0.118249 1.0086e-11)
(195.995 0.210138 2.50721e-12)
(195.982 0.27712 -1.03122e-12)
(195.963 0.367646 -5.3099e-12)
(195.942 0.439377 -3.20939e-12)
(195.915 0.525748 4.56362e-12)
(195.885 0.600797 -2.06407e-12)
(195.852 0.687172 -5.23207e-12)
(195.812 0.756185 3.26866e-12)
(195.772 0.855568 4.23965e-12)
(195.721 0.903477 1.80659e-12)
(195.676 1.03119 -2.6526e-12)
(195.613 1.04273 -3.35532e-13)
(195.563 1.21268 1.0841e-12)
(195.488 1.17574 -1.49996e-12)
(195.433 1.39645 -3.65954e-13)
(195.344 1.3065 5.97719e-12)
(195.285 1.57618 1.27387e-12)
(195.182 1.44304 -4.74654e-12)
(195.121 1.73328 9.104e-13)
(194.994 1.61187 3.30262e-12)
(194.949 1.85258 -2.18454e-12)
(194.777 1.81773 -5.61188e-12)
(191.615 0.0639567 -1.92922e-11)
(191.613 0.130653 6.15516e-12)
(191.602 0.229358 -7.52418e-12)
(191.59 0.304355 -5.27242e-12)
(191.571 0.402608 -6.03902e-12)
(191.551 0.481701 -6.01755e-12)
(191.525 0.576632 -5.22874e-13)
(191.496 0.658227 -2.68018e-12)
(191.464 0.75476 -3.04878e-12)
(191.425 0.828435 1.08898e-12)
(191.388 0.939883 -4.16449e-14)
(191.339 0.991428 9.79414e-13)
(191.296 1.13206 4.89143e-13)
(191.236 1.147 5.8358e-13)
(191.188 1.33038 -1.50629e-12)
(191.117 1.29653 -2.34597e-13)
(191.063 1.53169 -1.85899e-12)
(190.98 1.44371 1.89157e-12)
(190.923 1.72987 1.61907e-13)
(190.826 1.59581 -2.30813e-12)
(190.767 1.91233 2.19429e-13)
(190.648 1.77209 -5.44148e-13)
(190.604 2.05892 -1.27575e-12)
(190.443 1.98699 -2.52219e-13)
(187.274 0.0687615 -2.63732e-12)
(187.272 0.142175 1.80072e-11)
(187.262 0.247694 -9.90709e-13)
(187.249 0.330267 2.26502e-12)
(187.231 0.435657 3.87845e-13)
(187.211 0.52199 1.66495e-13)
(187.187 0.624883 6.03123e-12)
(187.159 0.712422 3.88299e-12)
(187.128 0.818727 3.42347e-12)
(187.092 0.89724 6.15294e-12)
(187.055 1.01907 5.77876e-12)
(187.01 1.07536 7.18362e-12)
(186.966 1.22663 6.88078e-12)
(186.912 1.24616 5.97884e-12)
(186.863 1.44097 3.07567e-12)
(186.8 1.41061 3.87588e-12)
(186.745 1.65941 2.83933e-12)
(186.67 1.57218 6.59226e-12)
(186.612 1.8759 5.37424e-12)
(186.523 1.73859 1.84467e-12)
(186.466 2.07997 5.12866e-12)
(186.355 1.92314 3.74517e-12)
(186.312 2.25276 3.06115e-12)
(186.162 2.14544 2.83865e-12)
(182.982 0.0735116 -3.04756e-12)
(182.979 0.152587 1.53087e-11)
(182.969 0.265346 -4.84087e-12)
(182.956 0.354434 -2.04949e-14)
(182.94 0.466885 -1.98259e-12)
(182.92 0.560053 -2.42196e-12)
(182.897 0.669674 4.34669e-12)
(182.871 0.764603 3.79372e-12)
(182.84 0.877757 2.64557e-12)
(182.808 0.962728 4.15405e-12)
(182.77 1.09286 5.60943e-12)
(182.73 1.15464 7.94823e-12)
(182.686 1.31501 7.86354e-12)
(182.638 1.33962 7.00232e-12)
(182.588 1.54431 4.45477e-12)
(182.532 1.51799 6.16565e-12)
(182.476 1.77882 5.38254e-12)
(182.41 1.69264 9.52169e-12)
(182.351 2.01318 9.26683e-12)
(182.271 1.87052 5.65342e-12)
(182.215 2.23732 8.29551e-13)
(182.113 2.06418 -7.88158e-12)
(182.07 2.43429 -8.91482e-12)
(181.931 2.2928 -7.11777e-12)
(178.734 0.0780666 2.15065e-12)
(178.731 0.162325 1.67531e-11)
(178.722 0.281822 -6.1918e-12)
(178.709 0.377094 -1.51763e-12)
(178.694 0.496033 -3.90393e-12)
(178.675 0.595672 -3.70055e-12)
(178.653 0.711609 1.82918e-12)
(178.628 0.813452 6.17912e-13)
(178.599 0.93232 -6.3728e-13)
(178.568 1.02494 -7.36613e-13)
(178.532 1.16084 2.02061e-12)
(178.496 1.22939 4.61874e-12)
(178.452 1.39718 4.27794e-12)
(178.41 1.42685 3.73253e-12)
(178.359 1.64058 -6.54247e-13)
(178.31 1.61822 9.74157e-13)
(178.254 1.88995 -2.695e-13)
(178.196 1.80484 5.08455e-12)
(178.137 2.14102 3.00469e-12)
(178.065 1.99306 -1.04364e-12)
(178.009 2.38423 2.81247e-12)
(177.917 2.19484 1.85881e-12)
(177.874 2.60354 1.60552e-12)
(177.747 2.42908 1.50714e-12)
(174.526 0.0824029 6.45133e-12)
(174.522 0.171416 1.71281e-11)
(174.513 0.297118 -8.52764e-12)
(174.501 0.398142 -3.15946e-12)
(174.486 0.523093 -6.69913e-12)
(174.468 0.628732 -6.81072e-12)
(174.447 0.75051 -2.98125e-12)
(174.424 0.858853 -4.80483e-12)
(174.396 0.982808 -6.69557e-12)
(174.368 1.08287 -9.06747e-12)
(174.333 1.22324 -6.63471e-12)
(174.3 1.29962 -4.81075e-12)
(174.257 1.4723 -6.32952e-12)
(174.22 1.50852 1.85829e-12)
(174.17 1.72964 6.8965e-12)
(174.127 1.71073 7.38054e-12)
(174.072 1.99294 5.88137e-12)
(174.02 1.9086 9.96352e-12)
(173.962 2.25932 7.24561e-12)
(173.899 2.10621 2.39702e-12)
(173.843 2.52036 5.81971e-12)
(173.761 2.31527 3.61323e-12)
(173.717 2.76052 3.74001e-12)
(173.602 2.55419 2.92007e-12)
(170.358 0.0864212 1.73562e-11)
(170.354 0.179776 2.40553e-11)
(170.345 0.311237 -9.64527e-12)
(170.334 0.41753 -8.19616e-12)
(170.32 0.548028 -7.49841e-12)
(170.303 0.659212 -3.04353e-12)
(170.283 0.786336 3.4527e-12)
(170.261 0.900743 7.88599e-12)
(170.235 1.02916 -7.01684e-13)
(170.208 1.13647 -1.06385e-11)
(170.175 1.28036 -2.89558e-12)
(170.145 1.36463 2.9079e-12)
(170.104 1.54089 6.67849e-12)
(170.071 1.58435 8.79559e-12)
(170.022 1.81076 -3.57753e-12)
(169.985 1.79633 -7.26743e-12)
(169.93 2.08785 -5.59204e-12)
(169.886 2.00361 3.85972e-12)
(169.829 2.36817 5.30756e-12)
(169.773 2.21005 4.25879e-12)
(169.719 2.6454 1.6208e-12)
(169.645 2.42578 -5.91596e-12)
(169.602 2.90555 -2.56538e-12)
(169.498 2.6682 2.30127e-12)
(166.227 0.0901176 2.02548e-11)
(166.223 0.187377 1.27102e-11)
(166.214 0.324205 -6.52907e-12)
(166.203 0.435233 9.34682e-12)
(166.19 0.570855 3.97629e-13)
(166.173 0.687097 -1.12089e-12)
(166.155 0.819071 -3.19814e-12)
(166.134 0.939114 -6.7272e-12)
(166.11 1.07136 -1.38829e-12)
(166.085 1.18569 1.2176e-12)
(166.054 1.33225 3.30302e-12)
(166.027 1.42436 8.13946e-13)
(165.988 1.60317 -4.34725e-12)
(165.958 1.65393 1.38103e-12)
(165.912 1.88435 4.12168e-12)
(165.879 1.87503 2.67014e-12)
(165.826 2.17413 -2.38177e-12)
(165.788 2.09029 4.92372e-13)
(165.732 2.46782 -8.08303e-12)
(165.684 2.30464 -5.45028e-12)
(165.63 2.75997 6.32896e-12)
(165.566 2.52586 1.71615e-12)
(165.523 3.03788 -2.69899e-12)
(165.431 2.77155 -5.09768e-12)
(162.128 0.093488 2.76992e-11)
(162.124 0.194154 2.25837e-11)
(162.116 0.336001 -7.65566e-12)
(162.105 0.451184 -7.79106e-12)
(162.093 0.591548 -7.71004e-12)
(162.077 0.712333 -2.87544e-13)
(162.06 0.848676 5.79283e-12)
(162.04 0.9739 9.92066e-12)
(162.018 1.10939 -8.54082e-14)
(161.995 1.23047 -1.32017e-11)
(161.966 1.37891 -1.19045e-12)
(161.942 1.47869 5.36614e-12)
(161.905 1.65917 8.47499e-12)
(161.879 1.71719 9.06921e-13)
(161.834 1.9506 -1.2967e-11)
(161.806 1.94642 -5.63948e-12)
(161.756 2.25165 -2.41824e-12)
(161.723 2.16891 9.2325e-12)
(161.669 2.55799 9.29105e-12)
(161.627 2.38986 -3.5012e-12)
(161.575 2.86366 -6.29705e-12)
(161.52 2.61624 -2.4503e-12)
(161.477 3.15769 1.75816e-12)
(161.396 2.86357 6.40219e-12)
(158.063 0.0965798 2.27159e-11)
(158.059 0.200148 8.03833e-12)
(158.051 0.346689 -1.24954e-11)
(158.04 0.465421 -8.8794e-12)
(158.029 0.610167 -5.45198e-12)
(158.014 0.734973 8.32885e-12)
(157.999 0.875226 7.16642e-12)
(157.98 1.00513 4.221e-12)
(157.96 1.14337 -5.57563e-13)
(157.938 1.27086 -1.09327e-11)
(157.912 1.42047 -4.36407e-12)
(157.889 1.5277 -4.61072e-12)
(157.855 1.70903 2.12474e-12)
(157.832 1.77419 1.0995e-11)
(157.79 2.00963 2.30773e-12)
(157.766 2.01062 1.89793e-12)
(157.718 2.32075 -1.26789e-12)
(157.69 2.23955 4.01809e-12)
(157.638 2.63865 -3.8922e-12)
(157.603 2.46602 -1.10447e-11)
(157.553 2.95662 -9.79292e-12)
(157.506 2.69666 -1.46817e-12)
(157.463 3.26598 7.80315e-12)
(157.393 2.94569 5.8234e-12)
(154.031 0.0993574 2.45047e-11)
(154.026 0.205335 1.2713e-11)
(154.019 0.356218 -1.84928e-12)
(154.009 0.47792 5.30658e-12)
(153.998 0.626661 1.44646e-12)
(153.984 0.754997 7.79705e-12)
(153.97 0.898694 9.27312e-12)
(153.953 1.03273 1.10936e-11)
(153.934 1.1734 1.16085e-11)
(153.914 1.30672 -8.40212e-12)
(153.89 1.45698 -9.1747e-12)
(153.869 1.57135 -6.04848e-12)
(153.838 1.75276 -8.04884e-12)
(153.818 1.82491 -4.76358e-12)
(153.779 2.06144 -9.40052e-12)
(153.758 2.06764 -6.11029e-12)
(153.713 2.38154 -6.24355e-12)
(153.69 2.30215 2.8038e-12)
(153.641 2.70975 -5.80657e-13)
(153.612 2.53323 -2.29499e-12)
(153.563 3.03887 4.40863e-12)
(153.525 2.76739 2.97405e-12)
(153.482 3.36226 3.89098e-12)
(153.423 3.01732 7.208e-12)
(150.023 0.101827 2.01495e-11)
(150.019 0.209797 4.27903e-12)
(150.012 0.364594 -8.28342e-12)
(150.002 0.48877 -1.31923e-12)
(149.992 0.641038 -8.74182e-12)
(149.979 0.772465 -3.71829e-12)
(149.966 0.919106 -4.25787e-12)
(149.95 1.05676 -3.5278e-12)
(149.933 1.19969 -4.60627e-12)
(149.915 1.33797 -1.62976e-11)
(149.893 1.48857 -5.6443e-12)
(149.874 1.60967 -4.75667e-12)
(149.846 1.79042 -1.00273e-11)
(149.828 1.86943 -7.06811e-12)
(149.792 2.10609 -1.4178e-11)
(149.775 2.11759 -1.34026e-11)
(149.732 2.43414 -2.42065e-12)
(149.714 2.35678 1.52195e-11)
(149.667 2.7714 1.05815e-11)
(149.645 2.59172 6.04248e-12)
(149.598 3.11054 1.14821e-11)
(149.567 2.82858 6.61948e-12)
(149.525 3.44653 6.54081e-12)
(149.477 3.07845 8.45888e-12)
(146.05 0.103965 1.73005e-11)
(146.045 0.213569 3.69953e-12)
(146.039 0.371799 3.96091e-13)
(146.029 0.498041 8.04956e-13)
(146.02 0.653307 -2.04148e-12)
(146.008 0.78743 9.47268e-12)
(145.996 0.936508 1.6264e-12)
(145.981 1.07725 -5.22147e-12)
(145.966 1.22233 7.94992e-14)
(145.949 1.36461 -5.67069e-12)
(145.93 1.51541 -1.90143e-12)
(145.913 1.64267 4.44202e-12)
(145.887 1.82215 3.23741e-12)
(145.872 1.90786 -9.2443e-13)
(145.839 2.14373 -1.17369e-12)
(145.825 2.16063 4.40912e-12)
(145.786 2.47871 -3.5969e-12)
(145.772 2.40367 -4.17162e-12)
(145.728 2.82377 -4.13135e-12)
(145.712 2.64162 -1.61742e-12)
(145.666 3.17186 -3.87287e-12)
(145.643 2.88042 -1.02971e-12)
(145.602 3.51917 2.8135e-12)
(145.564 3.12956 -1.7634e-12)
(142.098 0.105766 1.97403e-11)
(142.093 0.216684 3.9816e-12)
(142.086 0.37782 4.95098e-13)
(142.077 0.505764 1.16197e-11)
(142.069 0.663481 3.10643e-12)
(142.058 0.799902 -8.27364e-13)
(142.046 0.950921 -1.13168e-11)
(142.033 1.09425 -8.21629e-12)
(142.02 1.24124 -5.32715e-12)
(142.005 1.38657 -1.41126e-11)
(141.988 1.53757 -1.7908e-12)
(141.972 1.6703 3.50591e-12)
(141.95 1.84801 5.99438e-13)
(141.936 1.9402 7.0044e-12)
(141.907 2.1744 4.45766e-12)
(141.896 2.19678 5.50482e-12)
(141.86 2.51522 6.98253e-12)
(141.85 2.44282 2.17132e-12)
(141.808 2.86691 -1.29844e-11)
(141.798 2.68302 -1.11515e-11)
(141.754 3.22281 -3.80224e-12)
(141.739 2.92297 -4.47216e-12)
(141.698 3.58021 -5.37979e-12)
(141.671 3.17068 2.41848e-13)
(138.176 0.107239 9.6471e-12)
(138.17 0.219162 -8.43893e-12)
(138.164 0.382686 -5.71925e-12)
(138.156 0.511987 1.32805e-11)
(138.148 0.671634 -4.11896e-12)
(138.138 0.809954 -1.23672e-12)
(138.128 0.962453 -4.74507e-12)
(138.116 1.10786 2.8901e-12)
(138.104 1.25643 1.13943e-11)
(138.09 1.40398 -3.34846e-12)
(138.076 1.55522 2.23567e-12)
(138.062 1.69269 -2.02421e-14)
(138.043 1.86822 -1.12723e-11)
(138.031 1.9666 9.92599e-13)
(138.005 2.19833 3.64603e-12)
(137.997 2.22621 -7.05904e-13)
(137.964 2.54388 -4.49218e-12)
(137.958 2.47443 -4.91614e-12)
(137.919 2.90113 -1.74141e-12)
(137.914 2.71617 4.34395e-12)
(137.872 3.26372 5.87975e-12)
(137.865 2.95653 -1.96145e-12)
(137.824 3.63001 -9.786e-12)
(137.807 3.20216 1.1591e-12)
(134.275 0.108381 5.38266e-13)
(134.27 0.220985 -8.01613e-12)
(134.264 0.386383 -4.81126e-12)
(134.256 0.516685 1.61567e-11)
(134.249 0.67776 -1.71322e-12)
(134.24 0.817578 1.25725e-12)
(134.23 0.971116 -4.28233e-12)
(134.22 1.11811 -1.04076e-11)
(134.209 1.26785 -1.84077e-12)
(134.198 1.41696 -1.05514e-12)
(134.185 1.56842 5.19665e-12)
(134.173 1.70978 2.60782e-12)
(134.157 1.88284 -9.11443e-12)
(134.147 1.98706 3.36674e-12)
(134.124 2.21555 6.75904e-12)
(134.119 2.24894 5.98442e-13)
(134.089 2.56475 -2.98195e-12)
(134.087 2.49858 -3.34165e-12)
(134.051 2.92649 3.85275e-13)
(134.052 2.74115 7.22203e-12)
(134.012 3.29466 8.86279e-12)
(134.011 2.98119 6.35309e-13)
(133.971 3.66864 -5.95265e-12)
(133.963 3.22414 -6.11258e-12)
(130.401 0.109208 2.23566e-12)
(130.395 0.222163 3.01343e-13)
(130.389 0.388938 4.85245e-12)
(130.382 0.519878 5.89316e-12)
(130.375 0.681898 -1.75025e-11)
(130.367 0.822809 -2.58879e-12)
(130.359 0.976962 2.76488e-12)
(130.35 1.12507 -7.18296e-12)
(130.341 1.27559 -1.58675e-12)
(130.331 1.42569 -2.61524e-12)
(130.32 1.5773 -6.87445e-13)
(130.31 1.72168 6.44317e-12)
(130.296 1.89204 4.94446e-12)
(130.289 2.00165 2.09707e-12)
(130.269 2.22624 -9.85635e-12)
(130.266 2.26511 -6.15297e-12)
(130.239 2.578 1.58407e-12)
(130.242 2.51548 -2.75393e-12)
(130.208 2.94322 -1.56988e-12)
(130.214 2.75814 3.68095e-12)
(130.176 3.31593 1.80559e-12)
(130.182 2.99724 4.54338e-12)
(130.143 3.69644 8.39136e-12)
(130.145 3.23691 1.75633e-12)
(126.548 0.109726 2.08728e-11)
(126.542 0.222697 6.28967e-12)
(126.537 0.390365 1.04508e-11)
(126.53 0.521576 7.22189e-12)
(126.524 0.684067 -1.77254e-11)
(126.517 0.825664 -2.8421e-12)
(126.51 0.980012 1.83935e-12)
(126.502 1.12878 2.93647e-12)
(126.494 1.27967 7.81982e-12)
(126.486 1.43027 -6.32782e-12)
(126.477 1.58186 -7.17624e-12)
(126.469 1.72841 -1.86345e-12)
(126.458 1.89593 -4.35038e-12)
(126.452 2.0104 4.64008e-12)
(126.436 2.2305 5.18158e-12)
(126.436 2.27478 6.7331e-12)
(126.412 2.58376 -4.10502e-13)
(126.418 2.52521 -8.27351e-12)
(126.387 2.95146 -9.42156e-12)
(126.398 2.76725 -3.86572e-12)
(126.362 3.32762 5.7199e-12)
(126.375 3.00481 7.2996e-12)
(126.337 3.71354 1.03067e-11)
(126.347 3.24068 1.41267e-12)
(122.718 0.109939 3.63709e-11)
(122.713 0.222604 2.76452e-12)
(122.708 0.390688 -4.9423e-12)
(122.701 0.521807 9.14144e-12)
(122.696 0.684309 -1.3222e-11)
(122.689 0.82619 -3.50182e-12)
(122.683 0.98032 5.86887e-12)
(122.677 1.12931 -2.57569e-12)
(122.67 1.28016 -6.8202e-12)
(122.664 1.43082 -1.59077e-12)
(122.657 1.58215 2.21493e-12)
(122.65 1.73003 -2.8903e-12)
(122.642 1.89468 6.03609e-13)
(122.638 2.01333 2.326e-12)
(122.625 2.22856 -6.48077e-12)
(122.627 2.278 -4.88799e-13)
(122.607 2.58225 -2.21116e-12)
(122.616 2.52787 -6.37807e-12)
(122.588 2.95136 -3.17143e-12)
(122.603 2.76872 -5.43837e-12)
(122.57 3.32978 -4.73187e-12)
(122.589 3.00406 2.55781e-12)
(122.552 3.72001 -5.33494e-12)
(122.572 3.23555 -7.1851e-12)
(118.91 0.109838 3.0746e-11)
(118.905 0.221887 -1.21764e-12)
(118.9 0.389923 -5.03759e-12)
(118.894 0.520587 2.437e-12)
(118.889 0.682655 -1.30999e-11)
(118.883 0.824422 1.62751e-12)
(118.878 0.977934 3.07295e-12)
(118.873 1.12671 1.60453e-12)
(118.868 1.27713 3.58438e-12)
(118.863 1.42742 1.85377e-12)
(118.858 1.57819 1.08084e-11)
(118.853 1.72665 -2.60013e-12)
(118.848 1.88843 -5.95214e-12)
(118.846 2.01055 1.75323e-13)
(118.836 2.22061 -6.58726e-13)
(118.84 2.27487 -1.4271e-12)
(118.823 2.5737 2.55303e-12)
(118.835 2.52359 2.58889e-12)
(118.811 2.94299 -6.73719e-13)
(118.83 2.76274 1.96619e-12)
(118.798 3.32261 -5.98989e-12)
(118.824 2.99515 -3.77891e-12)
(118.788 3.71581 -5.39511e-12)
(118.816 3.22153 -3.7462e-12)
(115.124 0.10945 5.51011e-11)
(115.118 0.220547 8.21933e-12)
(115.113 0.388095 1.07497e-11)
(115.108 0.517942 2.83394e-12)
(115.103 0.679135 -2.07418e-11)
(115.099 0.820403 -3.42966e-12)
(115.095 0.972898 -8.00135e-13)
(115.091 1.12105 -7.43064e-13)
(115.087 1.27065 2.91043e-12)
(115.083 1.42016 5.50656e-12)
(115.08 1.57004 3.53365e-12)
(115.077 1.71843 -9.91528e-12)
(115.074 1.87724 -8.61333e-12)
(115.074 2.00226 -1.17862e-12)
(115.067 2.20676 9.9106e-13)
(115.073 2.26562 2.60687e-12)
(115.06 2.55824 1.03382e-11)
(115.075 2.51255 1.19499e-11)
(115.053 2.92672 -3.51712e-12)
(115.077 2.74941 -1.01055e-11)
(115.048 3.30647 -3.73697e-12)
(115.079 2.97833 7.99181e-13)
(115.044 3.70149 3.63687e-12)
(115.081 3.19911 7.16534e-12)
(111.358 0.108796 6.40681e-11)
(111.352 0.218596 2.30307e-12)
(111.348 0.385232 -6.6406e-12)
(111.342 0.513901 -1.03257e-12)
(111.339 0.673782 -4.32694e-12)
(111.335 0.814178 4.89993e-12)
(111.332 0.965262 -3.94899e-12)
(111.329 1.11239 -1.55576e-12)
(111.326 1.26078 -4.77884e-12)
(111.325 1.40913 -1.09131e-11)
(111.323 1.55777 3.59533e-12)
(111.322 1.70551 4.30083e-12)
(111.321 1.86125 -3.43598e-12)
(111.323 1.98863 -3.82278e-12)
(111.319 2.18713 2.38508e-12)
(111.327 2.25043 8.4668e-12)
(111.317 2.53605 6.23529e-12)
(111.335 2.49499 -2.59675e-12)
(111.316 2.90279 -6.04306e-13)
(111.343 2.72883 -4.01737e-12)
(111.317 3.2817 -8.68862e-12)
(111.354 2.95388 -6.05624e-13)
(111.32 3.67747 7.46376e-12)
(111.364 3.16868 1.77732e-12)
(107.612 0.107881 5.18934e-11)
(107.606 0.21605 -8.16709e-12)
(107.602 0.381358 -2.21356e-12)
(107.597 0.508503 -4.05719e-12)
(107.594 0.666643 -1.14638e-11)
(107.591 0.805797 1.26048e-12)
(107.589 0.955087 -2.51452e-12)
(107.587 1.1008 -5.32981e-12)
(107.586 1.24761 -2.34048e-12)
(107.586 1.39442 -3.53522e-12)
(107.586 1.54147 4.14595e-12)
(107.587 1.68804 -2.33161e-13)
(107.588 1.84061 -2.8045e-13)
(107.592 1.96978 4.0223e-12)
(107.59 2.16194 3.39875e-12)
(107.601 2.22947 4.11187e-12)
(107.593 2.50731 8.61518e-12)
(107.614 2.47098 5.64058e-12)
(107.598 2.87151 1.32991e-12)
(107.63 2.70134 4.18539e-12)
(107.605 3.24845 6.41602e-12)
(107.648 2.92202 -5.23563e-12)
(107.614 3.64399 -6.26008e-12)
(107.666 3.13047 -4.22856e-12)
(103.887 0.106709 5.79388e-11)
(103.88 0.21293 -2.1675e-12)
(103.877 0.376497 7.65891e-12)
(103.872 0.501786 5.04058e-12)
(103.87 0.657769 -1.78055e-12)
(103.867 0.795318 6.97166e-12)
(103.866 0.942442 1.56799e-12)
(103.866 1.08634 -4.19774e-12)
(103.866 1.23122 -2.70198e-13)
(103.867 1.37612 -3.56766e-12)
(103.869 1.52124 2.3035e-12)
(103.871 1.66614 -4.91425e-12)
(103.874 1.81549 -4.36862e-12)
(103.88 1.94582 -1.48214e-12)
(103.881 2.1314 -4.86259e-12)
(103.894 2.20284 -5.79271e-12)
(103.889 2.47228 -1.36939e-12)
(103.912 2.44083 8.68988e-12)
(103.9 2.83295 2.17214e-12)
(103.935 2.66703 3.15987e-12)
(103.912 3.20705 4.10407e-12)
(103.96 2.883 3.01041e-12)
(103.928 3.60126 3.14182e-12)
(103.987 3.08471 1.29721e-12)
(100.181 0.105286 3.9574e-11)
(100.174 0.209258 -9.98265e-12)
(100.171 0.370678 3.17126e-12)
(100.167 0.493796 4.71228e-12)
(100.165 0.647219 1.15193e-12)
(100.163 0.782806 1.50017e-12)
(100.163 0.927409 4.82188e-12)
(100.164 1.06912 -6.94333e-12)
(100.165 1.2117 -3.97254e-12)
(100.167 1.35433 2.10304e-12)
(100.171 1.49718 2.69412e-12)
(100.175 1.63999 -6.38579e-12)
(100.18 1.78604 3.85077e-12)
(100.188 1.91686 1.96311e-12)
(100.191 2.09571 -4.75254e-12)
(100.206 2.1707 4.44038e-12)
(100.204 2.4312 5.53394e-12)
(100.23 2.40466 -8.58145e-13)
(100.22 2.78741 3.03002e-12)
(100.258 2.62622 1.75368e-12)
(100.238 3.15769 -4.41075e-12)
(100.29 2.83707 5.99224e-12)
(100.26 3.54952 4.30305e-12)
(100.326 3.03163 -3.43156e-12)
(96.4942 0.103615 5.16581e-12)
(96.4878 0.205058 -1.30993e-11)
(96.4848 0.363931 1.31368e-11)
(96.4811 0.484578 1.66307e-12)
(96.4797 0.635059 6.461e-12)
(96.4787 0.768335 1.10092e-11)
(96.4792 0.910077 -1.8793e-12)
(96.4807 1.04923 -7.29465e-12)
(96.4834 1.18916 4.76635e-12)
(96.4872 1.32919 -5.60599e-12)
(96.492 1.46943 2.66392e-12)
(96.498 1.60973 4.46477e-12)
(96.505 1.75241 -1.5714e-12)
(96.514 1.88304 2.37422e-12)
(96.5205 2.05508 5.12666e-12)
(96.5367 2.1332 -8.61012e-13)
(96.5382 2.38432 7.79913e-12)
(96.5655 2.36267 8.58043e-12)
(96.5586 2.73514 -3.10356e-12)
(96.5997 2.57917 4.01659e-12)
(96.5824 3.10063 6.36873e-12)
(96.639 2.78448 2.30841e-13)
(96.6098 3.48906 6.68113e-12)
(96.6822 2.97152 4.9632e-12)
(92.827 0.101702 -6.31597e-12)
(92.8206 0.200355 -3.24984e-12)
(92.8178 0.356294 1.99162e-11)
(92.8144 0.474183 9.73413e-12)
(92.8135 0.621356 4.48399e-12)
(92.8133 0.751984 1.52437e-12)
(92.8145 0.890543 5.20583e-12)
(92.817 1.02679 -3.77521e-12)
(92.8208 1.16375 9.84877e-12)
(92.8259 1.30082 1.90901e-13)
(92.8322 1.43812 -6.22543e-12)
(92.8397 1.57556 -1.30083e-12)
(92.8485 1.71474 2.87236e-12)
(92.8591 1.84452 6.65674e-12)
(92.8681 2.00973 9.22883e-12)
(92.8858 2.09051 3.34726e-12)
(92.8902 2.3319 -1.04795e-12)
(92.9194 2.31509 3.81805e-14)
(92.9156 2.67643 -1.81006e-13)
(92.9593 2.52614 7.76421e-12)
(92.9446 3.03617 1.08899e-11)
(93.0051 2.72551 1.57197e-12)
(92.9774 3.42021 -4.31652e-12)
(93.0558 2.90466 -4.38695e-12)
(89.179 0.0995556 -2.72737e-11)
(89.1725 0.195179 -1.03862e-11)
(89.1699 0.347804 3.21979e-12)
(89.1669 0.462666 5.24439e-12)
(89.1664 0.606186 5.6847e-12)
(89.1668 0.73384 -4.9608e-12)
(89.1689 0.868915 -1.56967e-12)
(89.1723 1.00193 -1.73687e-11)
(89.1771 1.13559 -6.77213e-12)
(89.1834 1.26939 -9.64778e-12)
(89.191 1.40343 -7.64954e-12)
(89.2001 1.53767 -4.37451e-12)
(89.2105 1.67321 -5.81881e-12)
(89.2228 1.80149 -6.64111e-12)
(89.234 1.95989 -5.66927e-12)
(89.2532 2.04285 -3.39366e-12)
(89.2605 2.27421 -1.17848e-12)
(89.2914 2.26215 -4.85478e-12)
(89.2904 2.61157 -7.41892e-12)
(89.3365 2.46739 -1.21912e-12)
(89.3244 2.96463 -6.21258e-12)
(89.3886 2.66047 -6.35613e-12)
(89.3624 3.34332 -4.01439e-12)
(89.4464 2.83139 -7.94515e-12)
(85.55 0.097184 -2.51224e-11)
(85.5434 0.18956 2.52031e-12)
(85.541 0.338506 1.64108e-13)
(85.5384 0.450088 1.6215e-11)
(85.5383 0.589632 1.32224e-11)
(85.5393 0.714003 -4.83987e-12)
(85.5421 0.845307 1.17747e-11)
(85.5464 0.974773 -1.01721e-11)
(85.5522 1.10484 -4.37681e-12)
(85.5596 1.23507 2.68624e-12)
(85.5685 1.36555 9.88477e-13)
(85.5789 1.49628 1.12117e-12)
(85.5909 1.62799 5.92347e-12)
(85.6047 1.75418 1.57594e-12)
(85.6181 1.90584 -4.96298e-14)
(85.6387 1.99043 -1.31768e-12)
(85.6487 2.21154 -4.07958e-12)
(85.6811 2.20413 1.04372e-12)
(85.6831 2.5409 -3.73164e-12)
(85.7313 2.40322 -6.14676e-13)
(85.7216 2.88638 1.80905e-12)
(85.7891 2.58968 -3.71423e-12)
(85.7646 3.25877 -5.04807e-12)
(85.8537 2.75207 -9.94141e-13)
(81.94 0.0945965 -3.44752e-11)
(81.9334 0.183531 7.44429e-12)
(81.9312 0.328449 -1.47951e-12)
(81.9288 0.436515 2.10953e-11)
(81.9292 0.571784 1.34201e-11)
(81.9307 0.692576 -6.79975e-12)
(81.9342 0.819846 1.51859e-11)
(81.9392 0.945474 -8.80198e-12)
(81.946 1.07166 -4.55442e-12)
(81.9544 1.19804 -8.44111e-12)
(81.9645 1.32468 -9.60591e-12)
(81.9763 1.4516 4.56981e-12)
(81.9896 1.5793 -1.79772e-12)
(82.0049 1.70285 -7.156e-12)
(82.0202 1.84784 2.76075e-12)
(82.0422 1.9335 7.8406e-14)
(82.0547 2.14422 -3.9181e-12)
(82.0885 2.14129 3.80879e-12)
(82.0933 2.46475 -2.59543e-14)
(82.1433 2.33395 2.52944e-12)
(82.1362 2.80179 4.62338e-12)
(82.2066 2.51348 -1.86694e-12)
(82.1838 3.16696 -2.03604e-12)
(82.2775 2.66705 3.16468e-12)
(78.3491 0.0918033 -4.2505e-11)
(78.3425 0.177128 1.98111e-11)
(78.3404 0.317683 3.88873e-12)
(78.3383 0.422017 1.44239e-11)
(78.339 0.552738 8.17456e-12)
(78.3411 0.669674 2.89342e-12)
(78.3451 0.792665 1.10357e-11)
(78.3509 0.914188 -1.40974e-11)
(78.3585 1.03624 -2.37256e-12)
(78.3679 1.1585 -3.69018e-14)
(78.3791 1.28104 -2.49769e-12)
(78.392 1.40388 -5.7164e-13)
(78.4067 1.52738 3.11204e-12)
(78.4233 1.64778 4.38264e-12)
(78.4405 1.7862 1.38691e-12)
(78.4636 1.87235 -5.69497e-12)
(78.4786 2.0726 -4.63634e-13)
(78.5134 2.07392 6.78033e-12)
(78.5209 2.3835 1.27512e-12)
(78.5726 2.25992 1.55519e-12)
(78.568 2.71128 9.97662e-13)
(78.6409 2.43223 1.98728e-12)
(78.6198 3.06834 -1.25933e-12)
(78.7177 2.57674 -7.17832e-12)
(74.7773 0.0888151 -3.53785e-11)
(74.7706 0.170386 1.62892e-11)
(74.7687 0.306265 -5.59944e-13)
(74.7668 0.406671 9.87547e-12)
(74.7679 0.532596 -6.82477e-12)
(74.7704 0.645418 -1.05308e-11)
(74.775 0.763908 6.68224e-12)
(74.7815 0.881079 3.34424e-12)
(74.7898 0.998757 7.96729e-12)
(74.8001 1.11666 1.57678e-12)
(74.8122 1.23486 2.51237e-12)
(74.8262 1.35338 8.67015e-12)
(74.8421 1.47247 8.92479e-12)
(74.86 1.58929 -1.40522e-14)
(74.8787 1.72123 -4.59334e-13)
(74.9029 1.80728 -5.69329e-12)
(74.9201 1.99702 -5.68922e-12)
(74.956 2.00235 -3.71717e-12)
(74.9661 2.29754 -6.53096e-12)
(75.019 2.18146 -1.99641e-12)
(75.0169 2.61527 2.69982e-12)
(75.0919 2.3463 9.12877e-12)
(75.0727 2.96337 9.09981e-12)
(75.1742 2.48155 4.78024e-12)
(71.2248 0.0856435 -6.91485e-12)
(71.218 0.163347 1.71461e-11)
(71.2162 0.294254 -1.75086e-12)
(71.2146 0.390557 8.75308e-12)
(71.2159 0.511466 -1.0351e-11)
(71.2188 0.619936 -7.33071e-13)
(71.2239 0.733724 3.92515e-12)
(71.2309 0.846322 4.24257e-12)
(71.24 0.959411 -2.27003e-12)
(71.251 1.07274 -5.56502e-12)
(71.264 1.18638 2.12765e-12)
(71.279 1.30036 2.00456e-12)
(71.2959 1.41485 7.46729e-12)
(71.3149 1.5277 -1.04089e-12)
(71.3351 1.65324 2.93398e-12)
(71.3603 1.73862 5.14027e-13)
(71.3795 1.91788 -6.10291e-12)
(71.4162 1.92692 4.78237e-13)
(71.4288 2.20727 1.99464e-12)
(71.4828 2.09897 -1.7691e-12)
(71.483 2.51421 -1.01019e-12)