/*--------------------------------*- C++ -*----------------------------------*\
  =========                 |
  \\      /  F ield         | OpenFOAM: The Open Source CFD Toolbox
   \\    /   O peration     | Website:  https://openfoam.org
    \\  /    A nd           | Version:  10
     \\/     M anipulation  |
\*---------------------------------------------------------------------------*/
FoamFile
{
    format      ascii;
    class       volScalarField;
    location    "0.24";
    object      Ma;
}
// * * * * * * * * * * * * * * * * * * * * * * * * * * * * * * * * * * * * * //

dimensions      [0 0 0 0 0 0 0];

internalField   nonuniform List<scalar> 
4176
(
1.84513
1.84506
1.84486
1.84462
1.8442
1.84383
1.84317
1.84267
1.84179
1.84116
1.84005
1.83929
1.83798
1.83707
1.83562
1.83448
1.83302
1.83147
1.83016
1.82805
1.8271
1.82416
1.82398
1.82017
1.84502
1.84494
1.84474
1.84449
1.84407
1.84368
1.84302
1.84249
1.84161
1.84095
1.83983
1.83904
1.83771
1.83677
1.83528
1.83411
1.83261
1.83103
1.82969
1.82753
1.82658
1.82352
1.8233
1.81912
1.84466
1.84459
1.84439
1.84415
1.84374
1.84335
1.84272
1.84219
1.84134
1.84068
1.8396
1.83882
1.83752
1.83661
1.83514
1.83401
1.83252
1.831
1.82968
1.82758
1.82668
1.82368
1.82346
1.81914
1.84401
1.84394
1.84374
1.8435
1.84309
1.8427
1.84207
1.84155
1.84069
1.84004
1.83895
1.83819
1.83687
1.83597
1.83449
1.83337
1.83187
1.83031
1.82906
1.82689
1.82602
1.82307
1.82288
1.81876
1.84307
1.84299
1.8428
1.84256
1.84216
1.84177
1.84115
1.84064
1.83979
1.83915
1.83807
1.83732
1.83601
1.83513
1.83365
1.83256
1.83104
1.82952
1.82829
1.82611
1.82525
1.82234
1.82214
1.81816
1.84182
1.84174
1.84155
1.84132
1.84092
1.84054
1.83992
1.83941
1.83857
1.83793
1.83687
1.83611
1.83483
1.83395
1.83248
1.83141
1.82987
1.82842
1.82712
1.82501
1.82412
1.82124
1.82101
1.81702
1.84027
1.84019
1.84001
1.83977
1.83938
1.839
1.8384
1.83789
1.83707
1.83643
1.83539
1.83463
1.83337
1.8325
1.83105
1.83
1.82845
1.82706
1.82571
1.82367
1.82276
1.81993
1.81967
1.8157
1.83842
1.83835
1.83816
1.83793
1.83754
1.83717
1.83657
1.83607
1.83526
1.83463
1.8336
1.83286
1.83161
1.83074
1.82931
1.82828
1.82674
1.8254
1.82402
1.82205
1.82111
1.81833
1.81805
1.81414
1.83627
1.8362
1.83602
1.83579
1.83541
1.83504
1.83445
1.83395
1.83316
1.83253
1.83152
1.83079
1.82955
1.82871
1.82729
1.82628
1.82475
1.82345
1.82205
1.82016
1.81919
1.81646
1.81617
1.81232
1.83383
1.83376
1.83358
1.83335
1.83298
1.83261
1.83203
1.83154
1.83076
1.83015
1.82915
1.82843
1.82721
1.82638
1.82498
1.824
1.82247
1.82122
1.81981
1.81798
1.817
1.81433
1.81402
1.81024
1.83109
1.83102
1.83084
1.83062
1.83025
1.82989
1.82932
1.82884
1.82807
1.82746
1.82648
1.82578
1.82458
1.82377
1.82238
1.82143
1.81991
1.81871
1.81729
1.81553
1.81452
1.81193
1.8116
1.80789
1.82806
1.82799
1.82781
1.82759
1.82723
1.82688
1.82632
1.82584
1.82508
1.82449
1.82353
1.82284
1.82166
1.82087
1.8195
1.81857
1.81708
1.81591
1.81449
1.81279
1.81177
1.80926
1.80892
1.80528
1.82473
1.82466
1.82449
1.82427
1.82392
1.82357
1.82302
1.82256
1.82181
1.82123
1.82028
1.81961
1.81845
1.81768
1.81634
1.81543
1.81396
1.81283
1.81141
1.80978
1.80876
1.80631
1.80597
1.8024
1.82111
1.82104
1.82087
1.82066
1.82031
1.81997
1.81943
1.81898
1.81825
1.81769
1.81675
1.8161
1.81496
1.81421
1.81289
1.81201
1.81056
1.80947
1.80806
1.8065
1.80546
1.8031
1.80275
1.79926
1.81719
1.81713
1.81696
1.81676
1.81641
1.81608
1.81556
1.81511
1.8144
1.81385
1.81294
1.8123
1.81119
1.81046
1.80916
1.80832
1.80689
1.80584
1.80444
1.80294
1.8019
1.79961
1.79926
1.79586
1.81299
1.81292
1.81276
1.81256
1.81223
1.81191
1.81139
1.81096
1.81026
1.80973
1.80884
1.80822
1.80713
1.80642
1.80515
1.80434
1.80294
1.80193
1.80054
1.79911
1.79807
1.79586
1.79551
1.7922
1.80849
1.80843
1.80827
1.80808
1.80775
1.80744
1.80694
1.80652
1.80584
1.80532
1.80445
1.80385
1.80279
1.80211
1.80087
1.80008
1.79871
1.79774
1.79638
1.79501
1.79397
1.79184
1.79149
1.78826
1.80371
1.80365
1.80349
1.8033
1.80299
1.80269
1.8022
1.80179
1.80113
1.80063
1.79979
1.79921
1.79817
1.79752
1.79631
1.79555
1.79421
1.79328
1.79194
1.79063
1.7896
1.78756
1.7872
1.78407
1.79864
1.79858
1.79843
1.79825
1.79794
1.79765
1.79717
1.79678
1.79614
1.79566
1.79484
1.79429
1.79328
1.79265
1.79147
1.79075
1.78944
1.78855
1.78723
1.78599
1.78496
1.78301
1.78265
1.77961
1.79329
1.79322
1.79308
1.7929
1.7926
1.79232
1.79186
1.79149
1.79087
1.79041
1.78961
1.78908
1.78811
1.7875
1.78636
1.78567
1.7844
1.78355
1.78226
1.78109
1.78007
1.77819
1.77783
1.7749
1.78765
1.78758
1.78744
1.78728
1.78699
1.78672
1.78627
1.78592
1.78532
1.78488
1.78411
1.7836
1.78266
1.78209
1.78098
1.78032
1.77908
1.77828
1.77703
1.77591
1.77491
1.77312
1.77276
1.76992
1.78172
1.78166
1.78153
1.78137
1.78109
1.78083
1.78041
1.78007
1.77949
1.77907
1.77833
1.77785
1.77693
1.77639
1.77532
1.7747
1.7735
1.77274
1.77153
1.77047
1.76948
1.76778
1.76742
1.76468
1.77552
1.77546
1.77533
1.77518
1.77491
1.77467
1.77426
1.77394
1.77338
1.77299
1.77227
1.77182
1.77094
1.77043
1.7694
1.76882
1.76766
1.76694
1.76576
1.76477
1.7638
1.76218
1.76183
1.75919
1.76904
1.76898
1.76886
1.76871
1.76846
1.76823
1.76784
1.76754
1.767
1.76663
1.76594
1.76552
1.76467
1.7642
1.7632
1.76266
1.76154
1.76087
1.75974
1.7588
1.75786
1.75633
1.75598
1.75345
1.76228
1.76223
1.76211
1.76197
1.76173
1.76152
1.76114
1.76086
1.76035
1.76001
1.75934
1.75896
1.75814
1.7577
1.75674
1.75624
1.75517
1.75454
1.75345
1.75257
1.75165
1.75021
1.74988
1.74746
1.75526
1.7552
1.75509
1.75496
1.75473
1.75453
1.75418
1.75391
1.75343
1.75311
1.75248
1.75212
1.75134
1.75094
1.75002
1.74956
1.74852
1.74795
1.7469
1.74608
1.74519
1.74384
1.74352
1.74121
1.74796
1.74791
1.74781
1.74768
1.74747
1.74728
1.74694
1.7467
1.74624
1.74595
1.74535
1.74502
1.74428
1.74391
1.74303
1.74261
1.74162
1.7411
1.74009
1.73933
1.73847
1.73721
1.73691
1.7347
1.74041
1.74036
1.74026
1.74014
1.73994
1.73976
1.73944
1.73922
1.73879
1.73852
1.73795
1.73766
1.73695
1.73662
1.73578
1.73541
1.73446
1.73398
1.73302
1.73233
1.73151
1.73033
1.73004
1.72793
1.73259
1.73254
1.73244
1.73234
1.73214
1.73199
1.73169
1.73149
1.73107
1.73084
1.7303
1.73004
1.72936
1.72907
1.72828
1.72794
1.72704
1.72662
1.7257
1.72506
1.72428
1.7232
1.72293
1.72092
1.72451
1.72446
1.72438
1.72428
1.7241
1.72395
1.72367
1.72349
1.7231
1.72289
1.72239
1.72216
1.72152
1.72127
1.72051
1.72023
1.71937
1.71899
1.71812
1.71755
1.71681
1.71581
1.71556
1.71366
1.71618
1.71614
1.71605
1.71596
1.71579
1.71567
1.7154
1.71524
1.71488
1.7147
1.71422
1.71402
1.71342
1.71321
1.7125
1.71225
1.71145
1.71112
1.7103
1.70978
1.70909
1.70817
1.70793
1.70615
1.7076
1.70756
1.70748
1.7074
1.70724
1.70713
1.70688
1.70675
1.70641
1.70625
1.7058
1.70564
1.70507
1.7049
1.70423
1.70403
1.70327
1.70299
1.70222
1.70176
1.70111
1.70028
1.70006
1.69839
1.69877
1.69873
1.69866
1.69859
1.69845
1.69835
1.69812
1.698
1.69769
1.69755
1.69714
1.697
1.69648
1.69634
1.69571
1.69556
1.69484
1.69461
1.69389
1.69349
1.6929
1.69214
1.69194
1.69039
1.68971
1.68967
1.6896
1.68954
1.68941
1.68932
1.68911
1.68901
1.68872
1.68862
1.68823
1.68813
1.68763
1.68754
1.68694
1.68684
1.68616
1.68599
1.68532
1.68498
1.68443
1.68375
1.68358
1.68214
1.6804
1.68036
1.68031
1.68025
1.68013
1.68005
1.67987
1.67979
1.67952
1.67944
1.67908
1.67901
1.67855
1.67849
1.67794
1.67787
1.67725
1.67712
1.6765
1.67622
1.67572
1.67511
1.67497
1.67364
1.67086
1.67083
1.67077
1.67072
1.67061
1.67056
1.67038
1.67032
1.67008
1.67002
1.66969
1.66966
1.66923
1.66921
1.66869
1.66867
1.66809
1.66801
1.66744
1.66722
1.66676
1.66623
1.66612
1.66491
1.6611
1.66106
1.66101
1.66097
1.66087
1.66082
1.66067
1.66063
1.66041
1.66038
1.66008
1.66007
1.65968
1.65969
1.65921
1.65924
1.65869
1.65867
1.65814
1.65798
1.65757
1.65711
1.65703
1.65593
1.6511
1.65107
1.65103
1.65099
1.6509
1.65087
1.65073
1.65071
1.65051
1.6505
1.65023
1.65025
1.64989
1.64994
1.6495
1.64957
1.64906
1.64909
1.6486
1.6485
1.64813
1.64775
1.64771
1.64672
1.64089
1.64085
1.64082
1.64079
1.64071
1.64069
1.64056
1.64056
1.64038
1.6404
1.64015
1.6402
1.63987
1.63996
1.63956
1.63967
1.6392
1.63929
1.63884
1.63879
1.63847
1.63815
1.63815
1.63727
1.63045
1.63042
1.63039
1.63036
1.6303
1.63029
1.63018
1.63019
1.63003
1.63007
1.62985
1.62993
1.62964
1.62976
1.62939
1.62954
1.62912
1.62925
1.62884
1.62886
1.62858
1.62833
1.62836
1.62759
1.6198
1.61977
1.61974
1.61972
1.61967
1.61967
1.61958
1.6196
1.61947
1.61953
1.61933
1.61944
1.61918
1.61933
1.619
1.61919
1.61881
1.61899
1.61862
1.6187
1.61846
1.61828
1.61835
1.61766
1.60894
1.60891
1.60889
1.60887
1.60883
1.60884
1.60876
1.60881
1.60869
1.60877
1.6086
1.60874
1.6085
1.60869
1.60839
1.60863
1.60828
1.60851
1.60818
1.60832
1.60812
1.60802
1.60811
1.60752
1.59787
1.59784
1.59782
1.59781
1.59778
1.5978
1.59774
1.5978
1.5977
1.5978
1.59766
1.59782
1.59761
1.59784
1.59757
1.59784
1.59753
1.59781
1.59752
1.59772
1.59755
1.59753
1.59766
1.59716
1.58659
1.58656
1.58655
1.58655
1.58652
1.58655
1.58651
1.58658
1.58651
1.58663
1.58651
1.5867
1.58652
1.58677
1.58653
1.58685
1.58657
1.5869
1.58664
1.58691
1.58676
1.58682
1.58697
1.58658
1.57511
1.57508
1.57507
1.57508
1.57506
1.57511
1.57508
1.57516
1.57511
1.57525
1.57516
1.57537
1.57522
1.57551
1.5753
1.57565
1.5754
1.57579
1.57555
1.57588
1.57576
1.5759
1.57607
1.57578
1.56343
1.56341
1.5634
1.56341
1.56341
1.56346
1.56344
1.56355
1.56351
1.56367
1.5636
1.56384
1.56372
1.56404
1.56386
1.56425
1.56403
1.56447
1.56426
1.56466
1.56456
1.56477
1.56496
1.56476
1.55156
1.55154
1.55153
1.55155
1.55156
1.55162
1.55162
1.55174
1.55172
1.5519
1.55185
1.55212
1.55202
1.55237
1.55222
1.55266
1.55247
1.55295
1.55277
1.55323
1.55315
1.55344
1.55364
1.55355
1.5395
1.53948
1.53948
1.5395
1.53952
1.53959
1.5396
1.53974
1.53974
1.53994
1.53991
1.5402
1.54013
1.54051
1.54039
1.54087
1.54071
1.54124
1.54108
1.5416
1.54154
1.54192
1.54211
1.54213
1.52725
1.52723
1.52724
1.52727
1.52729
1.52737
1.5274
1.52755
1.52757
1.52779
1.52779
1.5281
1.52806
1.52847
1.52837
1.52889
1.52875
1.52934
1.5292
1.52979
1.52974
1.5302
1.53039
1.53052
1.51483
1.51481
1.51482
1.51486
1.51489
1.51498
1.51502
1.51518
1.51522
1.51546
1.51548
1.51582
1.5158
1.51624
1.51617
1.51672
1.51661
1.51725
1.51712
1.51778
1.51774
1.5183
1.51847
1.5187
1.50224
1.50222
1.50223
1.50227
1.50231
1.50241
1.50247
1.50264
1.5027
1.50296
1.50299
1.50335
1.50336
1.50383
1.50378
1.50438
1.50429
1.50497
1.50487
1.50559
1.50555
1.50621
1.50638
1.5067
1.48947
1.48946
1.48947
1.48952
1.48957
1.48968
1.48974
1.48993
1.49
1.49028
1.49034
1.49072
1.49075
1.49125
1.49122
1.49186
1.49178
1.49253
1.49243
1.49323
1.49318
1.49392
1.4941
1.49451
1.47655
1.47654
1.47656
1.47661
1.47666
1.47678
1.47686
1.47706
1.47715
1.47744
1.47752
1.47792
1.47797
1.47851
1.47849
1.47917
1.4791
1.47991
1.47981
1.4807
1.48063
1.48145
1.48164
1.48214
1.46348
1.46346
1.46349
1.46354
1.4636
1.46373
1.46382
1.46403
1.46413
1.46444
1.46453
1.46497
1.46502
1.4656
1.46559
1.46632
1.46625
1.46713
1.46701
1.46798
1.46793
1.46881
1.46901
1.46958
1.45026
1.45025
1.45027
1.45033
1.4504
1.45053
1.45063
1.45086
1.45097
1.4513
1.4514
1.45186
1.45192
1.45254
1.45253
1.45332
1.45324
1.45419
1.45407
1.45508
1.45505
1.45599
1.4562
1.45685
1.4369
1.43689
1.43692
1.43698
1.43705
1.43719
1.4373
1.43754
1.43766
1.43801
1.43812
1.43861
1.43867
1.43933
1.43932
1.44016
1.44007
1.44107
1.44097
1.44203
1.44201
1.443
1.44323
1.44395
1.42341
1.4234
1.42343
1.42349
1.42358
1.42372
1.42384
1.42408
1.42421
1.42458
1.42469
1.42522
1.42527
1.42598
1.42596
1.42684
1.42677
1.4278
1.42772
1.42881
1.42882
1.42986
1.43009
1.43089
1.4098
1.40978
1.40982
1.40988
1.40998
1.41012
1.41025
1.4105
1.41063
1.41103
1.41113
1.41169
1.41174
1.41248
1.41247
1.41338
1.41333
1.41437
1.41432
1.41544
1.41547
1.41655
1.4168
1.41766
1.39607
1.39605
1.3961
1.39616
1.39626
1.3964
1.39654
1.3968
1.39693
1.39735
1.39745
1.39803
1.39809
1.39884
1.39886
1.39977
1.39975
1.40081
1.40078
1.40193
1.40197
1.4031
1.40335
1.40428
1.38223
1.38221
1.38226
1.38232
1.38243
1.38257
1.38272
1.38298
1.38312
1.38354
1.38366
1.38424
1.38432
1.38508
1.38511
1.38604
1.38603
1.38711
1.3871
1.38828
1.38834
1.3895
1.38976
1.39075
1.36829
1.36827
1.36832
1.36838
1.36848
1.36863
1.36879
1.36904
1.36921
1.36961
1.36975
1.37034
1.37043
1.37119
1.37124
1.37218
1.37219
1.37329
1.37329
1.37449
1.37457
1.37577
1.37603
1.37707
1.35424
1.35423
1.35427
1.35434
1.35444
1.35459
1.35476
1.355
1.35519
1.35558
1.35574
1.35632
1.35643
1.3572
1.35726
1.3582
1.35824
1.35934
1.35937
1.36058
1.36067
1.3619
1.36217
1.36326
1.34011
1.34009
1.34013
1.3402
1.3403
1.34045
1.34062
1.34086
1.34107
1.34144
1.34164
1.34219
1.34233
1.34309
1.34317
1.34412
1.34416
1.34528
1.34532
1.34655
1.34665
1.34791
1.34819
1.34932
1.32587
1.32586
1.3259
1.32596
1.32607
1.32622
1.32639
1.32663
1.32685
1.32721
1.32743
1.32797
1.32813
1.32888
1.32898
1.32993
1.32999
1.33111
1.33117
1.33241
1.33252
1.33381
1.33409
1.33526
1.31155
1.31153
1.31157
1.31164
1.31175
1.3119
1.31207
1.31231
1.31254
1.31289
1.31312
1.31365
1.31383
1.31458
1.3147
1.31564
1.31572
1.31685
1.31691
1.31817
1.31829
1.3196
1.31988
1.32109
1.29714
1.29712
1.29716
1.29722
1.29733
1.29748
1.29766
1.2979
1.29813
1.29848
1.29872
1.29925
1.29944
1.30018
1.30032
1.30127
1.30135
1.30249
1.30256
1.30384
1.30396
1.30529
1.30557
1.30682
1.28263
1.28261
1.28265
1.28272
1.28283
1.28298
1.28316
1.2834
1.28364
1.28398
1.28424
1.28476
1.28497
1.28571
1.28585
1.28681
1.2869
1.28805
1.28813
1.28941
1.28955
1.29089
1.29118
1.29245
1.26804
1.26802
1.26806
1.26813
1.26824
1.26839
1.26857
1.26882
1.26906
1.2694
1.26968
1.27019
1.27042
1.27116
1.27131
1.27227
1.27238
1.27353
1.27362
1.27491
1.27505
1.27641
1.2767
1.27799
1.25335
1.25333
1.25338
1.25344
1.25356
1.25372
1.25391
1.25415
1.25441
1.25475
1.25504
1.25555
1.2558
1.25653
1.2567
1.25767
1.25778
1.25893
1.25904
1.26033
1.26049
1.26185
1.26214
1.26346
1.23859
1.23857
1.23862
1.23868
1.23881
1.23897
1.23916
1.23941
1.23968
1.24003
1.24034
1.24083
1.24111
1.24183
1.24202
1.24299
1.24311
1.24428
1.24439
1.24569
1.24585
1.24722
1.24751
1.24885
1.22375
1.22373
1.22378
1.22386
1.22398
1.22415
1.22435
1.22461
1.22489
1.22524
1.22557
1.22606
1.22637
1.22707
1.2273
1.22825
1.22839
1.22956
1.22968
1.23097
1.23114
1.23252
1.23281
1.23416
1.20887
1.20885
1.2089
1.20898
1.20911
1.20928
1.20949
1.20976
1.21004
1.2104
1.21074
1.21123
1.21157
1.21225
1.21251
1.21345
1.21361
1.21478
1.2149
1.2162
1.21637
1.21775
1.21804
1.2194
1.19396
1.19394
1.19399
1.19407
1.19421
1.19438
1.1946
1.19487
1.19516
1.19552
1.19587
1.19636
1.19672
1.19739
1.19768
1.19859
1.19878
1.19993
1.20006
1.20136
1.20154
1.20291
1.2032
1.20456
1.17906
1.17904
1.17909
1.17917
1.1793
1.17948
1.17969
1.17996
1.18025
1.18061
1.18097
1.18145
1.18182
1.18247
1.18279
1.18366
1.1839
1.18501
1.18516
1.18645
1.18663
1.188
1.18828
1.18965
1.16421
1.16419
1.16423
1.16431
1.16443
1.1646
1.1648
1.16506
1.16534
1.16569
1.16604
1.1665
1.16688
1.1675
1.16784
1.16868
1.16894
1.17002
1.17019
1.17147
1.17165
1.17301
1.17328
1.17464
1.14942
1.14939
1.14943
1.1495
1.1496
1.14976
1.14994
1.15018
1.15044
1.15077
1.1511
1.15154
1.1519
1.15249
1.15284
1.15364
1.15392
1.15495
1.15515
1.1564
1.15657
1.15793
1.15819
1.15955
1.13469
1.13466
1.13469
1.13474
1.13483
1.13496
1.13512
1.13533
1.13556
1.13586
1.13616
1.13656
1.13689
1.13745
1.13778
1.13853
1.13881
1.1398
1.14001
1.14122
1.14139
1.14275
1.14299
1.14435
1.11999
1.11996
1.11997
1.12001
1.12008
1.12019
1.12032
1.1205
1.12069
1.12095
1.12121
1.12157
1.12187
1.12238
1.12267
1.12337
1.12363
1.12457
1.12476
1.12595
1.1261
1.12746
1.12769
1.12906
1.10525
1.10521
1.10522
1.10524
1.1053
1.10538
1.10549
1.10564
1.1058
1.10602
1.10625
1.10656
1.10682
1.10727
1.10752
1.10818
1.10838
1.10928
1.10943
1.11058
1.1107
1.11205
1.11225
1.11364
1.09036
1.09031
1.09032
1.09032
1.09038
1.09044
1.09055
1.09066
1.09083
1.09101
1.09121
1.09148
1.09172
1.09214
1.09232
1.09298
1.09307
1.094
1.09402
1.09518
1.0952
1.09653
1.09669
1.09805
1.07518
1.07512
1.07514
1.07514
1.0752
1.07526
1.07538
1.07549
1.07565
1.07583
1.07603
1.07629
1.07651
1.0769
1.07706
1.07772
1.07773
1.07868
1.0786
1.07976
1.07969
1.08098
1.08107
1.08233
1.05957
1.05952
1.05953
1.05956
1.05962
1.05971
1.05983
1.05998
1.06015
1.06036
1.06058
1.06086
1.06111
1.06149
1.0617
1.06231
1.06236
1.06327
1.06318
1.06433
1.0642
1.06549
1.0655
1.0667
1.0434
1.04336
1.04338
1.04343
1.04351
1.04364
1.04379
1.04399
1.04421
1.04447
1.04474
1.04507
1.04538
1.0458
1.0461
1.04669
1.04685
1.04772
1.04769
1.04886
1.0487
1.05003
1.04999
1.0512
1.0266
1.02656
1.0266
1.02666
1.02678
1.02694
1.02715
1.0274
1.02768
1.02801
1.02837
1.02878
1.02918
1.02968
1.03009
1.03075
1.03103
1.03195
1.032
1.03326
1.03311
1.03454
1.03446
1.03577
1.00912
1.00907
1.00913
1.00921
1.00937
1.00956
1.00983
1.01012
1.0105
1.01088
1.01135
1.01184
1.01237
1.01298
1.01352
1.0143
1.01472
1.01579
1.01595
1.01737
1.01729
1.01889
1.01881
1.02029
0.99097
0.990924
0.990998
0.991097
0.99128
0.991513
0.991817
0.992169
0.992601
0.993063
0.993616
0.994198
0.994843
0.995564
0.996256
0.997154
0.99777
0.999003
0.999345
1.00096
1.00104
1.00289
1.00287
1.00463
0.972229
0.972189
0.972261
0.972383
0.972575
0.972841
0.973166
0.973569
0.974031
0.974566
0.975162
0.975838
0.976555
0.977382
0.978197
0.979194
0.980043
0.981328
0.982008
0.98373
0.984107
0.98624
0.986387
0.988582
0.952997
0.952961
0.953031
0.953161
0.953361
0.953641
0.953981
0.954404
0.954891
0.955457
0.956089
0.956808
0.957577
0.958463
0.959358
0.96043
0.961424
0.962743
0.963738
0.965443
0.96624
0.968523
0.968975
0.971732
0.933395
0.93336
0.933427
0.933559
0.933758
0.93404
0.934383
0.934809
0.935302
0.935874
0.936518
0.937246
0.938035
0.938936
0.939863
0.940958
0.942007
0.943347
0.944474
0.94615
0.947251
0.949489
0.950269
0.953472
0.913552
0.913515
0.913577
0.913703
0.913897
0.914171
0.914507
0.914922
0.915408
0.915965
0.916602
0.917313
0.918094
0.918975
0.919897
0.920967
0.922016
0.92333
0.924454
0.926103
0.927212
0.929405
0.930233
0.933432
0.893588
0.893547
0.893604
0.893721
0.893905
0.894164
0.894486
0.894881
0.895349
0.895879
0.896495
0.897171
0.897928
0.898766
0.899658
0.900676
0.901692
0.90294
0.904011
0.905602
0.9066
0.908745
0.909443
0.912379
0.873609
0.873562
0.873613
0.873719
0.873891
0.874131
0.874435
0.874803
0.875248
0.875743
0.876329
0.87696
0.877683
0.878464
0.879315
0.880264
0.881232
0.882395
0.883409
0.884898
0.885818
0.887839
0.888478
0.891196
0.853706
0.853652
0.853698
0.853789
0.853949
0.854167
0.854452
0.854788
0.855208
0.85566
0.856216
0.856793
0.857479
0.858195
0.859001
0.859874
0.860788
0.861855
0.86281
0.86419
0.865041
0.866912
0.867511
0.870021
0.833952
0.833891
0.833935
0.834006
0.834158
0.834347
0.834617
0.834914
0.835314
0.835714
0.836247
0.836756
0.837415
0.83805
0.838821
0.839605
0.840468
0.841435
0.842331
0.843602
0.844387
0.846103
0.846668
0.84897
0.814407
0.814341
0.814384
0.814434
0.81458
0.814736
0.814997
0.815247
0.815635
0.815971
0.816492
0.81692
0.817567
0.818102
0.818857
0.819529
0.820361
0.821221
0.822053
0.823217
0.823948
0.825502
0.826038
0.828133
0.795123
0.795054
0.795089
0.795128
0.795257
0.795395
0.795629
0.795852
0.796207
0.796503
0.796988
0.797359
0.797969
0.798429
0.799149
0.799723
0.800518
0.801268
0.802059
0.803096
0.803782
0.805174
0.805685
0.807575
0.77614
0.776068
0.776092
0.776128
0.77623
0.776362
0.776556
0.776769
0.777073
0.777353
0.777775
0.778122
0.778662
0.779083
0.779733
0.780248
0.780979
0.781633
0.782386
0.783285
0.783937
0.785169
0.785658
0.787347
0.757488
0.757415
0.757428
0.757459
0.75754
0.757659
0.757823
0.758017
0.758279
0.758536
0.758904
0.759223
0.759697
0.760083
0.760659
0.761122
0.761785
0.762356
0.763068
0.763818
0.764451
0.765528
0.765996
0.767488
0.739192
0.739119
0.739123
0.739146
0.73921
0.739314
0.739453
0.739624
0.739853
0.740079
0.740403
0.740685
0.741106
0.741446
0.741962
0.742367
0.742969
0.743458
0.744119
0.744743
0.74536
0.746278
0.746726
0.748027
0.721273
0.721199
0.721196
0.721211
0.721261
0.721348
0.721465
0.721612
0.72181
0.722005
0.72229
0.722534
0.722906
0.723199
0.72366
0.724006
0.72455
0.724961
0.72557
0.726083
0.726683
0.727439
0.727873
0.728986
0.703747
0.703673
0.703663
0.703671
0.703705
0.703779
0.703873
0.703998
0.704167
0.704331
0.70458
0.704785
0.705114
0.70536
0.70577
0.706057
0.706547
0.706884
0.707438
0.707853
0.708427
0.709028
0.709453
0.710385
0.686625
0.68655
0.686535
0.686534
0.686559
0.686613
0.686693
0.686791
0.686936
0.687069
0.687285
0.687452
0.68774
0.68794
0.688302
0.688533
0.688971
0.689239
0.689742
0.690067
0.690601
0.691062
0.691479
0.692238
0.669917
0.669842
0.66982
0.669816
0.669821
0.669872
0.669922
0.670008
0.670122
0.67023
0.670412
0.670544
0.670793
0.670949
0.671267
0.671444
0.671833
0.672035
0.672487
0.672729
0.673221
0.673553
0.67396
0.67456
0.653627
0.653553
0.653529
0.653511
0.653519
0.653538
0.653589
0.65364
0.653741
0.653815
0.653971
0.654066
0.65428
0.654393
0.654669
0.654795
0.655137
0.655276
0.655681
0.655843
0.656289
0.656513
0.656908
0.657354
0.637763
0.637689
0.637658
0.63764
0.637627
0.637648
0.637668
0.637714
0.637781
0.637837
0.63796
0.638025
0.638203
0.638277
0.638513
0.63859
0.638889
0.638968
0.639327
0.639414
0.639818
0.639943
0.640327
0.640622
0.622322
0.62225
0.622218
0.622187
0.622177
0.622171
0.622192
0.622204
0.622263
0.622286
0.622388
0.62242
0.622566
0.622602
0.622801
0.622832
0.62309
0.623112
0.623429
0.623447
0.623809
0.623846
0.62421
0.624365
0.607311
0.607238
0.607204
0.607168
0.607147
0.607133
0.607135
0.607136
0.60717
0.607175
0.607248
0.607253
0.607369
0.607368
0.607532
0.60752
0.607739
0.607709
0.607985
0.607937
0.608263
0.608218
0.608554
0.608582
0.592722
0.592653
0.592614
0.592576
0.592543
0.592523
0.59251
0.592494
0.592512
0.592493
0.592545
0.592521
0.592609
0.592575
0.592706
0.592652
0.592835
0.592754
0.592993
0.592884
0.593172
0.593049
0.593357
0.593271
0.57856
0.578488
0.578454
0.578399
0.578377
0.578327
0.578321
0.578276
0.578286
0.578242
0.578274
0.578224
0.578285
0.57822
0.578319
0.578228
0.578376
0.578248
0.57845
0.578282
0.578537
0.578338
0.578618
0.57843
0.564816
0.56475
0.564704
0.564662
0.56461
0.564578
0.564534
0.564497
0.564476
0.564424
0.564429
0.564359
0.564393
0.564299
0.56437
0.564242
0.564358
0.564186
0.564355
0.564133
0.564354
0.564085
0.564341
0.564057
0.55149
0.55142
0.551386
0.551317
0.551292
0.551213
0.551199
0.551114
0.551106
0.551017
0.551015
0.550916
0.550931
0.550808
0.550853
0.550691
0.550778
0.550565
0.550704
0.550429
0.550623
0.550288
0.550524
0.550149
0.538572
0.538511
0.538461
0.538412
0.538349
0.538302
0.538237
0.538179
0.538126
0.538045
0.53801
0.5379
0.537889
0.537743
0.537762
0.537571
0.537629
0.537379
0.537489
0.537169
0.537336
0.536941
0.537159
0.5367
0.526063
0.525997
0.525961
0.525885
0.52585
0.525757
0.525725
0.525617
0.525585
0.525464
0.525431
0.525291
0.525266
0.525094
0.525092
0.524872
0.524906
0.524621
0.524706
0.524341
0.524487
0.524035
0.524238
0.523703
0.513949
0.51389
0.513841
0.513782
0.513717
0.513649
0.513576
0.513492
0.513418
0.513308
0.513243
0.513097
0.513049
0.512858
0.512834
0.512588
0.512599
0.512282
0.512345
0.511941
0.512065
0.511562
0.511752
0.511148
0.502229
0.502167
0.502128
0.502051
0.502002
0.501905
0.501851
0.501732
0.501672
0.50153
0.501466
0.501295
0.501235
0.501023
0.500981
0.500711
0.500702
0.500356
0.500397
0.499956
0.500062
0.499512
0.499689
0.499023
0.49089
0.490835
0.490786
0.49072
0.490653
0.490568
0.490489
0.490381
0.490294
0.490155
0.490069
0.489889
0.489812
0.489583
0.489523
0.489232
0.489203
0.48883
0.488853
0.488378
0.488467
0.487874
0.488043
0.487315
0.479929
0.479872
0.47983
0.479752
0.479695
0.479592
0.47952
0.479393
0.479308
0.479151
0.479059
0.478864
0.478773
0.478528
0.478452
0.478141
0.478095
0.477699
0.477701
0.477198
0.47727
0.476639
0.476797
0.476017
0.469333
0.469282
0.469232
0.469164
0.469091
0.468998
0.468909
0.468784
0.468686
0.468523
0.468419
0.468212
0.468109
0.467849
0.467759
0.467429
0.467367
0.466948
0.466935
0.466404
0.466461
0.465795
0.465941
0.465117
0.459098
0.459046
0.459003
0.458924
0.458861
0.458751
0.458669
0.45853
0.458429
0.458256
0.458143
0.457926
0.457811
0.457537
0.457433
0.457088
0.45701
0.456572
0.456542
0.455987
0.45603
0.455331
0.455468
0.454602
0.449212
0.449165
0.449116
0.449045
0.448968
0.448869
0.448771
0.448635
0.448523
0.448344
0.448222
0.447995
0.44787
0.447583
0.447467
0.447107
0.447014
0.446559
0.446514
0.445937
0.445966
0.445238
0.445366
0.44446
0.439669
0.439623
0.439577
0.4395
0.439429
0.439318
0.439225
0.439077
0.438964
0.438776
0.438648
0.438411
0.438276
0.437979
0.43785
0.437477
0.437371
0.436901
0.436841
0.436245
0.436259
0.435506
0.435623
0.434683
0.43046
0.430415
0.430369
0.430293
0.430218
0.430108
0.430008
0.42986
0.429738
0.429546
0.429409
0.429165
0.429021
0.428714
0.428575
0.42819
0.428072
0.427587
0.427513
0.4269
0.426901
0.426125
0.426233
0.425258
0.421574
0.421532
0.421485
0.421412
0.421332
0.421223
0.421118
0.420966
0.420841
0.420642
0.4205
0.420248
0.420097
0.41978
0.419632
0.419236
0.419107
0.418609
0.418524
0.417895
0.417883
0.417088
0.417184
0.416182
0.413005
0.412964
0.41292
0.412841
0.412769
0.412648
0.412549
0.412388
0.412262
0.412056
0.41191
0.411651
0.411493
0.411169
0.411013
0.410606
0.410468
0.409958
0.409863
0.409221
0.409197
0.408386
0.408473
0.407444
0.404744
0.404706
0.404658
0.404586
0.404502
0.404393
0.404279
0.404126
0.403988
0.403784
0.40363
0.403366
0.403202
0.40287
0.402707
0.402291
0.402147
0.401625
0.401523
0.400867
0.400836
0.40001
0.400089
0.399043
0.396781
0.396743
0.3967
0.39662
0.396547
0.396423
0.396322
0.396152
0.396024
0.395806
0.395654
0.395381
0.395215
0.394875
0.394707
0.394282
0.394133
0.3936
0.393494
0.392824
0.392789
0.391948
0.392024
0.390964
0.389108
0.389074
0.389026
0.388955
0.388869
0.388759
0.38864
0.388484
0.388339
0.388129
0.387966
0.387693
0.38752
0.387175
0.387003
0.38657
0.386417
0.385875
0.385764
0.385083
0.385045
0.384191
0.384263
0.383194
0.381718
0.381683
0.381642
0.38156
0.381489
0.38136
0.381259
0.381082
0.380951
0.380726
0.380568
0.380287
0.380112
0.379761
0.379585
0.379147
0.378988
0.378439
0.378323
0.377634
0.377592
0.376728
0.376797
0.375716
0.3746
0.37457
0.374521
0.374454
0.374363
0.374255
0.374131
0.373973
0.373824
0.373607
0.37344
0.373159
0.372979
0.372625
0.372444
0.372001
0.371838
0.371283
0.371162
0.370467
0.370419
0.369548
0.36961
0.368524
0.36775
0.367717
0.367678
0.367594
0.367527
0.367392
0.367293
0.36711
0.366978
0.366747
0.366584
0.366296
0.366116
0.365757
0.365573
0.365126
0.364958
0.364399
0.364272
0.363572
0.363519
0.362643
0.3627
0.361605
0.361155
0.361128
0.361079
0.361014
0.360921
0.360814
0.360686
0.360528
0.360374
0.360155
0.359982
0.359696
0.359511
0.35915
0.358962
0.358512
0.35834
0.357777
0.357646
0.356942
0.356882
0.356002
0.356053
0.354953
0.354812
0.354782
0.354744
0.354662
0.354593
0.354458
0.354358
0.354172
0.354038
0.353803
0.353638
0.353345
0.35316
0.352795
0.352605
0.352152
0.351976
0.351411
0.351274
0.350567
0.350502
0.349618
0.349664
0.348559
0.34871
0.348685
0.348638
0.348572
0.348482
0.348371
0.348246
0.348083
0.347929
0.347705
0.347531
0.34724
0.347052
0.346686
0.346493
0.346037
0.345858
0.34529
0.345149
0.34444
0.344371
0.343482
0.343525
0.342416
0.342846
0.342818
0.34278
0.3427
0.342629
0.342496
0.342392
0.342208
0.342071
0.341834
0.341667
0.341369
0.341182
0.340813
0.340619
0.34016
0.339979
0.339409
0.339265
0.338554
0.338482
0.337588
0.337628
0.336517
0.337207
0.337184
0.337139
0.337071
0.336985
0.33687
0.336748
0.336579
0.336429
0.336199
0.336027
0.33573
0.335542
0.33517
0.334976
0.334514
0.334333
0.333759
0.333615
0.332901
0.332825
0.331931
0.331966
0.330855
0.331792
0.331767
0.331729
0.331651
0.331579
0.331448
0.331342
0.331159
0.33102
0.330781
0.330614
0.330312
0.330126
0.32975
0.329558
0.329092
0.328912
0.328335
0.32819
0.327473
0.327395
0.326503
0.326534
0.325422
0.32659
0.326568
0.326526
0.326456
0.326374
0.326254
0.326138
0.325963
0.325818
0.325582
0.325414
0.32511
0.324926
0.324546
0.324357
0.323887
0.323709
0.323127
0.322986
0.322265
0.32219
0.321291
0.321323
0.320213
0.321598
0.321575
0.321536
0.321461
0.321387
0.321259
0.321151
0.320968
0.32083
0.320588
0.320425
0.320117
0.319937
0.319552
0.319367
0.318891
0.318719
0.318131
0.317995
0.317266
0.317199
0.316296
0.316327
0.315221
0.316807
0.316785
0.316746
0.316673
0.316597
0.316472
0.316362
0.316181
0.316042
0.315799
0.315638
0.315326
0.31515
0.31476
0.314581
0.314098
0.313934
0.313337
0.313209
0.312474
0.312414
0.311506
0.311539
0.310437
0.312213
0.312191
0.312153
0.312079
0.312005
0.311877
0.311771
0.311587
0.311451
0.311206
0.311048
0.310732
0.310561
0.310166
0.309994
0.309503
0.309347
0.308742
0.308625
0.307879
0.307827
0.306919
0.306951
0.305855
0.307808
0.307787
0.307749
0.307676
0.307602
0.307475
0.307369
0.307184
0.307051
0.306803
0.306649
0.306329
0.306163
0.305763
0.305597
0.3051
0.304952
0.30434
0.30423
0.30348
0.303433
0.302521
0.302555
0.301465
0.303589
0.303568
0.303531
0.303457
0.303385
0.303256
0.303153
0.302966
0.302836
0.302585
0.302434
0.302112
0.30195
0.301546
0.301385
0.300884
0.300741
0.300124
0.300022
0.299266
0.299222
0.298314
0.298345
0.297259
0.299548
0.299528
0.299491
0.299418
0.299346
0.299218
0.299115
0.298928
0.298799
0.298547
0.2984
0.298074
0.297917
0.297508
0.297354
0.296847
0.296713
0.296088
0.295994
0.295234
0.295194
0.294285
0.294316
0.293235
0.295683
0.295662
0.295627
0.295552
0.295483
0.295352
0.295253
0.295062
0.294939
0.294681
0.294541
0.294209
0.29406
0.293644
0.2935
0.292983
0.292861
0.292226
0.292142
0.291378
0.291341
0.290434
0.290463
0.289389
0.291986
0.291966
0.291931
0.291855
0.291789
0.291655
0.291561
0.291365
0.291248
0.290985
0.290852
0.290512
0.290375
0.289947
0.289817
0.289288
0.289179
0.288537
0.288459
0.287693
0.287658
0.286754
0.286782
0.285715
0.288454
0.288434
0.288399
0.288324
0.288258
0.288124
0.288031
0.287834
0.287722
0.287452
0.287329
0.28698
0.286855
0.286415
0.286298
0.28576
0.28566
0.285013
0.284939
0.284175
0.28414
0.283241
0.283266
0.282207
0.285081
0.285061
0.285029
0.284949
0.28489
0.284748
0.284666
0.284458
0.284358
0.284078
0.283967
0.283607
0.283494
0.283046
0.282938
0.282395
0.282299
0.281652
0.281581
0.280817
0.280783
0.279888
0.279911
0.27886