/*--------------------------------*- C++ -*----------------------------------*\
  =========                 |
  \\      /  F ield         | OpenFOAM: The Open Source CFD Toolbox
   \\    /   O peration     | Website:  https://openfoam.org
    \\  /    A nd           | Version:  10
     \\/     M anipulation  |
\*---------------------------------------------------------------------------*/
FoamFile
{
    format      ascii;
    class       volScalarField;
    location    "0.24";
    object      p;
}
// * * * * * * * * * * * * * * * * * * * * * * * * * * * * * * * * * * * * * //

dimensions      [1 -1 -2 0 0 0 0];

internalField   nonuniform List<scalar> 
4176
(
1600.61
1600.81
1601.32
1601.94
1603.01
1604.03
1605.66
1607.05
1609.24
1611.03
1613.73
1615.95
1619.07
1621.84
1625.21
1628.71
1632
1636.64
1639.59
1645.59
1647.93
1655.55
1656.75
1665.48
1601.11
1601.29
1601.76
1602.37
1603.33
1604.33
1605.8
1607.17
1609.14
1610.88
1613.35
1615.49
1618.39
1620.99
1624.18
1627.42
1630.57
1634.84
1637.67
1643.22
1645.33
1652.78
1654.02
1663.79
1602.36
1602.55
1603.02
1603.64
1604.62
1605.64
1607.14
1608.53
1610.55
1612.32
1614.85
1617.01
1619.99
1622.62
1625.92
1629.19
1632.46
1636.83
1639.64
1645.35
1647.44
1654.78
1655.92
1665.39
1604.3
1604.49
1604.95
1605.56
1606.53
1607.52
1608.99
1610.35
1612.35
1614.06
1616.57
1618.66
1621.63
1624.16
1627.45
1630.62
1633.88
1638.28
1640.81
1646.69
1648.63
1655.86
1656.93
1665.79
1607.02
1607.21
1607.67
1608.28
1609.23
1610.23
1611.69
1613.06
1615.03
1616.76
1619.24
1621.34
1624.29
1626.82
1630.12
1633.24
1636.61
1640.83
1643.53
1649.32
1651.33
1658.53
1659.67
1668.52
1610.47
1610.66
1611.11
1611.72
1612.66
1613.65
1615.09
1616.45
1618.39
1620.11
1622.55
1624.64
1627.54
1630.05
1633.32
1636.38
1639.79
1643.81
1646.73
1652.27
1654.36
1661.47
1662.69
1671.62
1614.68
1614.87
1615.32
1615.92
1616.85
1617.84
1619.26
1620.61
1622.53
1624.24
1626.65
1628.72
1631.61
1634.08
1637.35
1640.35
1643.79
1647.67
1650.69
1656.07
1658.24
1665.25
1666.5
1675.33
1619.65
1619.83
1620.28
1620.87
1621.79
1622.77
1624.17
1625.51
1627.41
1629.1
1631.49
1633.53
1636.39
1638.83
1642.07
1645.01
1648.45
1652.21
1655.32
1660.52
1662.77
1669.66
1670.96
1679.68
1625.37
1625.55
1625.99
1626.58
1627.49
1628.46
1629.85
1631.17
1633.05
1634.72
1637.08
1639.1
1641.92
1644.33
1647.55
1650.43
1653.87
1657.51
1660.68
1665.71
1668.04
1674.8
1676.13
1684.73
1631.85
1632.03
1632.47
1633.05
1633.95
1634.91
1636.28
1637.59
1639.44
1641.09
1643.42
1645.41
1648.21
1650.57
1653.76
1656.59
1660.02
1663.55
1666.77
1671.63
1674.03
1680.63
1682
1690.47
1639.1
1639.28
1639.71
1640.29
1641.18
1642.12
1643.48
1644.77
1646.6
1648.22
1650.53
1652.48
1655.25
1657.57
1660.73
1663.49
1666.91
1670.34
1673.59
1678.29
1680.76
1687.17
1688.59
1696.92
1647.13
1647.31
1647.73
1648.31
1649.18
1650.11
1651.44
1652.72
1654.52
1656.12
1658.4
1660.32
1663.05
1665.32
1668.45
1671.15
1674.55
1677.87
1681.16
1685.69
1688.21
1694.45
1695.89
1704.07
1655.94
1656.12
1656.53
1657.1
1657.96
1658.88
1660.19
1661.45
1663.22
1664.8
1667.04
1668.93
1671.62
1673.85
1676.94
1679.57
1682.94
1686.17
1689.47
1693.84
1696.4
1702.46
1703.92
1711.94
1665.54
1665.72
1666.13
1666.69
1667.53
1668.43
1669.72
1670.96
1672.7
1674.25
1676.46
1678.31
1680.96
1683.14
1686.19
1688.76
1692.09
1695.22
1698.53
1702.74
1705.34
1711.23
1712.68
1720.54
1675.94
1676.12
1676.52
1677.07
1677.9
1678.79
1680.06
1681.27
1682.98
1684.5
1686.67
1688.48
1691.09
1693.21
1696.22
1698.72
1702.02
1705.04
1708.36
1712.4
1715.03
1720.74
1722.19
1729.88
1687.16
1687.34
1687.73
1688.27
1689.08
1689.95
1691.2
1692.38
1694.06
1695.54
1697.67
1699.44
1702.01
1704.08
1707.04
1709.46
1712.72
1715.65
1718.95
1722.82
1725.48
1730.99
1732.48
1739.97
1699.2
1699.37
1699.76
1700.29
1701.09
1701.94
1703.15
1704.31
1705.96
1707.4
1709.49
1711.21
1713.72
1715.74
1718.65
1721
1724.21
1727.04
1730.31
1734.02
1736.71
1742.01
1743.53
1750.82
1712.07
1712.25
1712.63
1713.14
1713.92
1714.75
1715.94
1717.07
1718.68
1720.08
1722.12
1723.79
1726.26
1728.2
1731.06
1733.33
1736.49
1739.22
1742.46
1746.01
1748.72
1753.81
1755.36
1762.44
1725.8
1725.97
1726.34
1726.85
1727.6
1728.41
1729.57
1730.66
1732.23
1733.59
1735.58
1737.2
1739.61
1741.49
1744.29
1746.48
1749.58
1752.21
1755.41
1758.79
1761.52
1766.4
1767.97
1774.83
1740.39
1740.56
1740.92
1741.41
1742.15
1742.93
1744.06
1745.11
1746.64
1747.95
1749.9
1751.45
1753.8
1755.61
1758.35
1760.45
1763.49
1766.01
1769.17
1772.38
1775.12
1779.79
1781.38
1788.02
1755.85
1756.02
1756.37
1756.84
1757.56
1758.32
1759.41
1760.43
1761.91
1763.18
1765.06
1766.56
1768.85
1770.58
1773.25
1775.26
1778.24
1780.64
1783.75
1786.8
1789.53
1793.99
1795.6
1802.01
1772.2
1772.37
1772.71
1773.17
1773.86
1774.59
1775.64
1776.62
1778.06
1779.27
1781.1
1782.53
1784.76
1786.41
1789.01
1790.93
1793.83
1796.11
1799.16
1802.05
1804.78
1809.01
1810.63
1816.81
1789.46
1789.62
1789.95
1790.39
1791.06
1791.76
1792.77
1793.71
1795.1
1796.26
1798.03
1799.39
1801.55
1803.12
1805.64
1807.46
1810.28
1812.44
1815.42
1818.16
1820.86
1824.87
1826.5
1832.43
1807.64
1807.79
1808.11
1808.53
1809.17
1809.84
1810.82
1811.71
1813.04
1814.14
1815.85
1817.14
1819.23
1820.72
1823.16
1824.88
1827.62
1829.65
1832.56
1835.13
1837.81
1841.58
1843.21
1848.88
1826.74
1826.9
1827.2
1827.6
1828.21
1828.85
1829.78
1830.63
1831.91
1832.95
1834.59
1835.81
1837.82
1839.22
1841.58
1843.19
1845.84
1847.75
1850.58
1852.99
1855.63
1859.16
1860.78
1866.19
1846.79
1846.94
1847.23
1847.62
1848.2
1848.8
1849.69
1850.49
1851.71
1852.69
1854.26
1855.4
1857.33
1858.64
1860.91
1862.42
1864.98
1866.76
1869.5
1871.74
1874.34
1877.64
1879.24
1884.38
1867.8
1867.95
1868.22
1868.59
1869.14
1869.71
1870.56
1871.3
1872.47
1873.38
1874.88
1875.94
1877.78
1879
1881.18
1882.57
1885.05
1886.69
1889.34
1891.42
1893.96
1897.01
1898.61
1903.48
1889.79
1889.93
1890.19
1890.54
1891.06
1891.59
1892.4
1893.09
1894.19
1895.04
1896.46
1897.44
1899.2
1900.31
1902.4
1903.68
1906.05
1907.56
1910.12
1912.03
1914.5
1917.3
1918.9
1923.48
1912.76
1912.9
1913.15
1913.47
1913.97
1914.46
1915.22
1915.86
1916.91
1917.68
1919.03
1919.92
1921.59
1922.6
1924.59
1925.75
1928.02
1929.39
1931.85
1933.59
1935.98
1938.53
1940.11
1944.42
1936.74
1936.88
1937.11
1937.42
1937.88
1938.33
1939.05
1939.63
1940.62
1941.32
1942.59
1943.39
1944.98
1945.88
1947.78
1948.8
1950.98
1952.2
1954.55
1956.12
1958.43
1960.73
1962.29
1966.29
1961.74
1961.88
1962.09
1962.38
1962.81
1963.23
1963.89
1964.42
1965.34
1965.97
1967.17
1967.89
1969.38
1970.18
1971.97
1972.87
1974.93
1976
1978.25
1979.64
1981.86
1983.91
1985.46
1989.13
1987.78
1987.91
1988.11
1988.38
1988.77
1989.16
1989.77
1990.25
1991.11
1991.67
1992.79
1993.41
1994.82
1995.5
1997.19
1997.96
1999.91
2000.83
2002.96
2004.17
2006.29
2008.11
2009.62
2012.97
2014.88
2015
2015.19
2015.43
2015.8
2016.14
2016.71
2017.13
2017.92
2018.41
2019.45
2019.98
2021.3
2021.87
2023.47
2024.1
2025.94
2026.7
2028.72
2029.74
2031.75
2033.33
2034.82
2037.83
2043.05
2043.17
2043.34
2043.56
2043.89
2044.2
2044.71
2045.08
2045.81
2046.22
2047.18
2047.62
2048.85
2049.31
2050.8
2051.3
2053.04
2053.63
2055.54
2056.37
2058.27
2059.61
2061.06
2063.73
2072.3
2072.42
2072.58
2072.78
2073.08
2073.34
2073.81
2074.12
2074.78
2075.12
2076.01
2076.35
2077.49
2077.83
2079.23
2079.59
2081.22
2081.65
2083.44
2084.08
2085.86
2086.96
2088.36
2090.68
2102.67
2102.78
2102.92
2103.1
2103.37
2103.6
2104.02
2104.27
2104.87
2105.13
2105.94
2106.19
2107.23
2107.46
2108.75
2108.98
2110.5
2110.77
2112.45
2112.89
2114.56
2115.42
2116.74
2118.71
2134.16
2134.27
2134.4
2134.56
2134.8
2134.99
2135.36
2135.56
2136.09
2136.28
2137
2137.16
2138.1
2138.22
2139.4
2139.49
2140.9
2141
2142.57
2142.82
2144.38
2145
2146.23
2147.85
2166.8
2166.91
2167.02
2167.16
2167.37
2167.52
2167.84
2167.99
2168.45
2168.57
2169.21
2169.27
2170.13
2170.12
2171.2
2171.14
2172.44
2172.38
2173.84
2173.88
2175.34
2175.72
2176.87
2178.12
2200.61
2200.71
2200.81
2200.93
2201.11
2201.22
2201.5
2201.59
2201.99
2202.03
2202.6
2202.56
2203.32
2203.2
2204.17
2203.97
2205.16
2204.91
2206.26
2206.1
2207.45
2207.59
2208.66
2209.55
2235.61
2235.71
2235.79
2235.9
2236.04
2236.12
2236.34
2236.38
2236.72
2236.69
2237.17
2237.04
2237.71
2237.47
2238.34
2237.98
2239.06
2238.64
2239.86
2239.49
2240.73
2240.63
2241.61
2242.17
2271.82
2271.92
2271.99
2272.07
2272.18
2272.23
2272.4
2272.38
2272.66
2272.55
2272.96
2272.73
2273.31
2272.94
2273.71
2273.21
2274.18
2273.57
2274.69
2274.09
2275.22
2274.85
2275.73
2276.01
2309.28
2309.37
2309.43
2309.49
2309.57
2309.57
2309.7
2309.62
2309.83
2309.65
2309.97
2309.65
2310.13
2309.65
2310.32
2309.67
2310.53
2309.74
2310.74
2309.92
2310.94
2310.3
2311.08
2311.03
2347.99
2348.09
2348.12
2348.16
2348.21
2348.18
2348.25
2348.12
2348.26
2348
2348.25
2347.83
2348.21
2347.61
2348.18
2347.37
2348.13
2347.15
2348.06
2347
2347.93
2347
2347.7
2347.28
2387.99
2388.08
2388.11
2388.12
2388.13
2388.06
2388.09
2387.9
2387.97
2387.63
2387.79
2387.28
2387.57
2386.84
2387.3
2386.35
2387
2385.83
2386.64
2385.34
2386.19
2384.97
2385.6
2384.81
2429.29
2429.38
2429.39
2429.39
2429.37
2429.25
2429.22
2428.98
2428.98
2428.57
2428.64
2428.03
2428.22
2427.37
2427.72
2426.61
2427.16
2425.8
2426.51
2424.97
2425.75
2424.22
2424.8
2423.65
2471.93
2472.01
2472.01
2471.98
2471.92
2471.77
2471.69
2471.38
2471.31
2470.82
2470.81
2470.09
2470.19
2469.21
2469.46
2468.19
2468.63
2467.07
2467.69
2465.9
2466.62
2464.77
2465.32
2463.77
2515.91
2515.99
2515.97
2515.92
2515.83
2515.63
2515.5
2515.13
2514.99
2514.42
2514.32
2513.5
2513.49
2512.39
2512.53
2511.1
2511.43
2509.67
2510.2
2508.15
2508.81
2506.63
2507.19
2505.2
2561.25
2561.33
2561.3
2561.23
2561.09
2560.86
2560.67
2560.24
2560.03
2559.37
2559.19
2558.26
2558.16
2556.92
2556.96
2555.36
2555.59
2553.62
2554.07
2551.74
2552.35
2549.82
2550.4
2547.99
2607.98
2608.06
2608
2607.91
2607.74
2607.47
2607.22
2606.73
2606.45
2605.71
2605.44
2604.4
2604.2
2602.83
2602.76
2601
2601.13
2598.94
2599.31
2596.7
2597.27
2594.36
2594.99
2592.15
2656.1
2656.18
2656.11
2655.99
2655.79
2655.48
2655.17
2654.62
2654.26
2653.44
2653.08
2651.94
2651.64
2650.13
2649.96
2648.02
2648.06
2645.64
2645.95
2643.04
2643.61
2640.29
2640.94
2637.68
2705.63
2705.71
2705.62
2705.49
2705.24
2704.89
2704.53
2703.92
2703.49
2702.58
2702.13
2700.88
2700.49
2698.83
2698.58
2696.44
2696.42
2693.74
2694.01
2690.77
2691.38
2687.63
2688.29
2684.63
2756.58
2756.65
2756.55
2756.39
2756.12
2755.72
2755.3
2754.63
2754.13
2753.14
2752.61
2751.24
2750.77
2748.96
2748.63
2746.29
2746.21
2743.26
2743.52
2739.91
2740.56
2736.44
2737.06
2733.02
2808.95
2809.02
2808.91
2808.73
2808.41
2807.98
2807.51
2806.78
2806.21
2805.13
2804.53
2803.04
2802.49
2800.51
2800.12
2797.56
2797.45
2794.21
2794.51
2790.5
2791.15
2786.7
2787.28
2782.85
2862.75
2862.82
2862.69
2862.49
2862.14
2861.67
2861.15
2860.36
2859.72
2858.55
2857.89
2856.27
2855.66
2853.5
2853.08
2850.27
2850.18
2846.58
2846.93
2842.61
2843.18
2838.44
2838.96
2834.17
2917.98
2918.04
2917.9
2917.68
2917.3
2916.8
2916.22
2915.37
2914.68
2913.42
2912.7
2910.94
2910.31
2907.93
2907.53
2904.42
2904.4
2900.47
2900.77
2896.21
2896.7
2891.67
2892.13
2886.97
2974.64
2974.7
2974.54
2974.31
2973.89
2973.36
2972.73
2971.83
2971.08
2969.72
2968.98
2967.04
2966.44
2963.81
2963.46
2960.06
2960.01
2955.89
2956.09
2951.31
2951.7
2946.4
2946.8
2941.28
3032.71
3032.79
3032.61
3032.37
3031.91
3031.36
3030.68
3029.72
3028.95
3027.45
3026.74
3024.58
3024.03
3021.17
3020.8
3017.24
3017.09
3012.8
3012.89
3007.91
3008.21
3002.64
3002.98
2997.11
3092.22
3092.3
3092.09
3091.86
3091.36
3090.79
3090.06
3089.03
3088.27
3086.63
3085.93
3083.64
3083.03
3080.06
3079.59
3075.91
3075.65
3071.22
3071.2
3066.02
3066.22
3060.41
3060.68
3054.48
3153.14
3153.23
3152.99
3152.78
3152.22
3151.67
3150.87
3149.81
3149
3147.3
3146.53
3144.17
3143.48
3140.42
3139.86
3136.07
3135.71
3131.13
3131.01
3125.65
3125.76
3119.7
3119.91
3113.38
3215.48
3215.57
3215.33
3215.1
3214.52
3213.94
3213.09
3212.07
3211.14
3209.43
3208.59
3206.16
3205.4
3202.26
3201.61
3197.72
3197.26
3192.55
3192.33
3186.79
3186.82
3180.52
3180.68
3173.83
3279.24
3279.33
3279.09
3278.84
3278.26
3277.65
3276.76
3275.75
3274.69
3273.04
3272.07
3269.62
3268.78
3265.57
3264.83
3260.85
3260.3
3255.46
3255.15
3249.45
3249.39
3242.88
3242.98
3235.83
3344.41
3344.5
3344.26
3344
3343.41
3342.79
3341.86
3340.85
3339.69
3338.09
3336.96
3334.56
3333.6
3330.34
3329.52
3325.46
3324.82
3319.87
3319.47
3313.62
3313.48
3306.75
3306.8
3299.36
3411
3411.09
3410.86
3410.58
3409.98
3409.35
3408.4
3407.37
3406.15
3404.57
3403.32
3400.95
3399.85
3396.59
3395.68
3391.55
3390.82
3385.76
3385.28
3379.28
3379.06
3372.14
3372.13
3364.43
3479.01
3479.11
3478.87
3478.6
3477.98
3477.34
3476.37
3475.33
3474.05
3472.49
3471.14
3468.79
3467.57
3464.29
3463.29
3459.09
3458.28
3453.12
3452.56
3446.43
3446.13
3439.03
3438.97
3431.01
3548.47
3548.57
3548.33
3548.05
3547.43
3546.78
3545.78
3544.73
3543.4
3541.84
3540.4
3538.06
3536.74
3533.45
3532.35
3528.07
3527.2
3521.93
3521.3
3515.03
3514.67
3507.4
3507.28
3499.08
3619.38
3619.49
3619.24
3618.96
3618.32
3617.66
3616.63
3615.57
3614.19
3612.63
3611.11
3608.76
3607.35
3604.02
3602.85
3598.49
3597.55
3592.18
3591.48
3585.09
3584.65
3577.22
3577.05
3568.64
3691.76
3691.88
3691.62
3691.34
3690.67
3690
3688.94
3687.86
3686.43
3684.86
3683.24
3680.89
3679.38
3676.01
3674.77
3670.32
3669.31
3663.84
3663.07
3656.56
3656.05
3648.48
3648.25
3639.64
3765.62
3765.75
3765.47
3765.19
3764.5
3763.81
3762.7
3761.59
3760.11
3758.51
3756.78
3754.43
3752.81
3749.4
3748.08
3743.53
3742.47
3736.9
3736.05
3729.44
3728.85
3721.14
3720.87
3712.07
3840.95
3841.09
3840.8
3840.5
3839.77
3839.06
3837.9
3836.75
3835.2
3833.57
3831.72
3829.37
3827.6
3824.19
3822.76
3818.12
3817.01
3811.33
3810.41
3803.69
3803.03
3795.21
3794.88
3785.92
3917.73
3917.87
3917.56
3917.24
3916.48
3915.72
3914.51
3913.3
3911.68
3909.99
3908.04
3905.69
3903.75
3900.35
3898.76
3894.1
3892.9
3887.11
3886.12
3879.32
3878.59
3870.65
3870.27
3861.17
3995.88
3996.02
3995.7
3995.35
3994.55
3993.73
3992.48
3991.2
3989.51
3987.76
3985.7
3983.33
3981.21
3977.86
3976.05
3971.44
3970.11
3964.23
3963.19
3956.31
3955.51
3947.48
3947.05
3937.82
4075.27
4075.41
4075.07
4074.69
4073.88
4073.01
4071.71
4070.38
4068.61
4066.8
4064.65
4062.27
4059.98
4056.68
4054.66
4050.12
4048.6
4042.71
4041.62
4034.67
4033.8
4025.7
4025.23
4015.89
4155.71
4155.85
4155.52
4155.12
4154.3
4153.41
4152.09
4150.72
4148.92
4147.07
4144.86
4142.46
4140.04
4136.8
4134.56
4130.14
4128.38
4122.61
4121.39
4114.39
4113.47
4105.34
4104.83
4095.41
4237.02
4237.16
4236.85
4236.46
4235.65
4234.77
4233.46
4232.1
4230.31
4228.47
4226.24
4223.85
4221.37
4218.19
4215.8
4211.5
4209.54
4203.89
4202.52
4195.53
4194.57
4186.41
4185.89
4176.41
4318.99
4319.15
4318.88
4318.52
4317.76
4316.94
4315.69
4314.4
4312.67
4310.9
4308.72
4306.4
4303.92
4300.84
4298.37
4294.21
4292.08
4286.59
4285.08
4278.11
4277.14
4268.96
4268.44
4258.93
4401.54
4401.72
4401.5
4401.2
4400.54
4399.81
4398.68
4397.51
4395.91
4394.27
4392.21
4390.04
4387.65
4384.72
4382.27
4378.3
4376.07
4370.76
4369.1
4362.26
4361.26
4353.03
4352.54
4342.98
4484.72
4484.93
4484.76
4484.55
4483.99
4483.39
4482.41
4481.41
4479.98
4478.54
4476.67
4474.71
4472.49
4469.78
4467.45
4463.71
4461.51
4456.44
4454.72
4448.01
4446.98
4438.69
4438.23
4428.61
4568.8
4569.04
4568.93
4568.81
4568.35
4567.89
4567.05
4566.23
4564.99
4563.77
4562.11
4560.4
4558.4
4555.95
4553.84
4550.36
4548.33
4543.52
4541.9
4535.35
4534.4
4526.06
4525.63
4515.85
4654.29
4654.57
4654.48
4654.45
4654.04
4653.71
4652.96
4652.31
4651.2
4650.18
4648.69
4647.22
4645.42
4643.22
4641.41
4638.1
4636.48
4631.75
4630.57
4624.07
4623.49
4615.17
4614.85
4604.94
4741.92
4742.27
4742.11
4742.21
4741.7
4741.54
4740.67
4740.24
4739.03
4738.24
4736.74
4735.47
4733.77
4731.72
4730.29
4726.78
4726
4720.82
4720.58
4713.84
4713.9
4705.72
4705.74
4696.2
4832.6
4832.93
4832.82
4832.78
4832.35
4831.98
4831.2
4830.53
4829.4
4828.42
4826.95
4825.61
4823.86
4821.98
4820.39
4817.06
4816.41
4811.28
4811.31
4804.67
4805.13
4797.09
4797.56
4788.66
4927.21
4927.51
4927.36
4927.22
4926.67
4926.13
4925.18
4924.28
4922.94
4921.69
4920
4918.41
4916.41
4914.41
4912.37
4909.35
4908.07
4903.27
4903.12
4896.45
4897.15
4888.94
4889.78
4880.96
5026.48
5026.75
5026.52
5026.25
5025.51
5024.74
5023.51
5022.28
5020.57
5018.92
5016.78
5014.74
5012.27
5009.83
5007.22
5003.97
5002
4997.18
4996.53
4989.56
4990.32
4981.62
4982.73
4973.53
5130.86
5131.15
5130.79
5130.4
5129.42
5128.41
5126.82
5125.23
5123.03
5120.92
5118.17
5115.57
5112.39
5109.3
5105.89
5101.99
5099.21
5093.73
5092.48
5084.68
5085.25
5075.69
5076.92
5066.9
5240.5
5240.83
5240.3
5239.86
5238.62
5237.41
5235.42
5233.56
5230.76
5228.33
5224.76
5221.73
5217.58
5213.81
5209.45
5204.61
5200.97
5194.08
5192.15
5183
5182.93
5172.05
5173.11
5161.72
5355.2
5355.49
5354.99
5354.33
5353.04
5351.52
5349.39
5347.07
5344.08
5340.98
5337.15
5333.28
5328.66
5324.01
5318.73
5313.2
5307.89
5300.34
5296.78
5286.29
5284.88
5272.14
5272.49
5258.95
5474.43
5474.69
5474.19
5473.44
5472.07
5470.41
5468.12
5465.58
5462.36
5458.94
5454.78
5450.47
5445.38
5440.15
5434.19
5427.95
5421.36
5413.62
5407.4
5396.81
5392.93
5378.31
5377.16
5360.34
5597.45
5597.71
5597.21
5596.42
5595.02
5593.3
5590.95
5588.31
5584.97
5581.41
5577.08
5572.56
5567.22
5561.7
5555.37
5548.72
5541.53
5533.37
5525.77
5515.29
5508.44
5493.68
5489.99
5469.29
5723.44
5723.69
5723.22
5722.44
5721.05
5719.34
5716.99
5714.36
5711.03
5707.45
5703.11
5698.57
5693.2
5687.64
5681.25
5674.53
5667.21
5658.97
5651.05
5640.65
5632.77
5618.59
5612.98
5590.46
5851.5
5851.79
5851.34
5850.61
5849.26
5847.62
5845.33
5842.79
5839.53
5836.07
5831.81
5827.41
5822.15
5816.74
5810.48
5803.96
5796.78
5788.77
5781.16
5770.84
5763.77
5749.46
5744.96
5724.32
5980.82
5981.14
5980.73
5980.06
5978.79
5977.24
5975.06
5972.65
5969.52
5966.24
5962.15
5957.97
5952.92
5947.79
5941.78
5935.59
5928.7
5921.12
5913.89
5904.04
5897.56
5883.82
5879.74
5860.53
6110.63
6110.98
6110.62
6110.03
6108.84
6107.42
6105.36
6103.12
6100.16
6097.11
6093.22
6089.33
6084.52
6079.74
6074.04
6068.25
6061.74
6054.67
6047.85
6038.63
6032.58
6019.73
6015.91
5998.01
6240.24
6240.66
6240.31
6239.83
6238.71
6237.45
6235.51
6233.48
6230.68
6227.91
6224.23
6220.69
6216.12
6211.76
6206.36
6201.05
6194.92
6188.42
6182.01
6173.42
6167.89
6155.94
6152.35
6135.77
6369.11
6369.57
6369.21
6368.89
6367.79
6366.75
6364.87
6363.14
6360.44
6358.05
6354.47
6351.42
6346.99
6343.18
6337.99
6333.27
6327.48
6321.58
6315.64
6307.67
6302.55
6291.6
6288.22
6272.98
6496.7
6497.19
6496.85
6496.66
6495.6
6494.77
6492.96
6491.54
6488.9
6486.94
6483.43
6480.93
6476.56
6473.43
6468.31
6464.37
6458.74
6453.52
6448.01
6440.75
6435.99
6426.05
6422.87
6408.97
6622.58
6623.08
6622.83
6622.64
6621.79
6620.97
6619.46
6618.07
6615.82
6613.93
6610.87
6608.52
6604.61
6601.76
6597.08
6593.57
6588.36
6583.79
6578.55
6572.09
6567.68
6558.75
6555.77
6543.19
6746.38
6746.89
6746.71
6746.56
6745.86
6745.11
6743.82
6742.54
6740.6
6738.83
6736.19
6733.97
6730.58
6727.9
6723.79
6720.55
6715.87
6711.82
6706.9
6701.39
6697.19
6689.26
6686.47
6675.19
6867.8
6868.31
6868.19
6868.09
6867.51
6866.86
6865.75
6864.62
6862.93
6861.34
6859.02
6857.02
6854.04
6851.62
6847.98
6845.09
6840.88
6837.34
6832.79
6828.16
6824.15
6817.18
6814.58
6804.57
6986.56
6987.07
6987.01
6986.96
6986.49
6985.94
6985
6984.02
6982.55
6981.16
6979.13
6977.38
6974.75
6972.63
6969.41
6966.88
6963.12
6960.06
6955.93
6952.02
6948.17
6942.26
6939.83
6931.06
7102.44
7102.96
7102.94
7102.95
7102.56
7102.13
7101.32
7100.51
7099.24
7098.06
7096.29
7094.79
7092.49
7090.67
7087.83
7085.67
7082.33
7079.74
7076.04
7072.76
7069.13
7064.23
7061.94
7054.37
7215.27
7215.78
7215.81
7215.85
7215.59
7215.22
7214.59
7213.89
7212.83
7211.84
7210.33
7209.06
7207.07
7205.54
7203.06
7201.26
7198.32
7196.17
7192.88
7190.18
7186.85
7182.87
7180.72
7174.29
7324.9
7325.41
7325.45
7325.59
7325.32
7325.16
7324.55
7324.08
7323.14
7322.38
7321.07
7320.05
7318.34
7317.1
7314.96
7313.49
7310.93
7309.19
7306.3
7304.12
7301.16
7298.02
7296
7290.62
7431.2
7431.7
7431.82
7431.88
7431.89
7431.57
7431.32
7430.8
7430.15
7429.49
7428.44
7427.63
7426.19
7425.22
7423.39
7422.26
7420.05
7418.71
7416.19
7414.5
7411.89
7409.51
7407.62
7403.22
7534.11
7534.61
7534.67
7535
7534.7
7534.92
7534.34
7534.3
7533.56
7533.23
7532.3
7531.74
7530.53
7529.82
7528.28
7527.46
7525.58
7524.61
7522.46
7521.24
7518.99
7517.21
7515.47
7512.04
7633.54
7634.01
7634.23
7634.29
7634.53
7634.24
7634.36
7633.93
7633.71
7633.3
7632.69
7632.26
7631.31
7630.83
7629.57
7629.03
7627.46
7626.85
7625.02
7624.23
7622.32
7621.1
7619.52
7617
7729.5
7729.98
7730.05
7730.52
7730.24
7730.73
7730.2
7730.55
7729.95
7730.02
7729.39
7729.25
7728.47
7728.24
7727.22
7726.96
7725.67
7725.38
7723.86
7723.47
7721.86
7721.13
7719.79
7718.07
7821.91
7822.35
7822.64
7822.71
7823.11
7822.91
7823.27
7822.98
7823.09
7822.9
7822.67
7822.57
7822.05
7822
7821.23
7821.21
7820.19
7820.2
7818.97
7818.95
7817.62
7817.36
7816.24
7815.26
7910.85
7911.32
7911.39
7911.96
7911.73
7912.4
7911.97
7912.59
7912.15
7912.54
7912.18
7912.39
7911.99
7912.15
7911.59
7911.81
7911.04
7911.33
7910.36
7910.68
7909.62
7909.81
7908.93
7908.57
7996.28
7996.68
7997.01
7997.11
7997.62
7997.51
7998.04
7997.9
7998.26
7998.27
7998.35
7998.54
7998.38
7998.7
7998.34
7998.77
7998.23
7998.77
7998.06
7998.69
7997.88
7998.48
7997.81
7998.02
8078.28
8078.73
8078.81
8079.43
8079.27
8080.04
8079.75
8080.53
8080.27
8080.89
8080.78
8081.27
8081.19
8081.69
8081.51
8082.14
8081.8
8082.58
8082.08
8083.01
8082.42
8083.39
8082.89
8083.64
8156.86
8157.23
8157.58
8157.72
8158.29
8158.28
8158.91
8158.94
8159.45
8159.68
8159.98
8160.43
8160.55
8161.17
8161.16
8161.96
8161.81
8162.8
8162.5
8163.69
8163.28
8164.61
8164.24
8165.48
8232.14
8232.55
8232.65
8233.28
8233.21
8234.01
8233.88
8234.72
8234.7
8235.44
8235.57
8236.27
8236.45
8237.23
8237.35
8238.31
8238.32
8239.51
8239.38
8240.81
8240.56
8242.2
8241.95
8243.63
8304.12
8304.46
8304.81
8304.99
8305.57
8305.69
8306.34
8306.56
8307.14
8307.58
8308.02
8308.7
8309.04
8309.92
8310.17
8311.27
8311.43
8312.78
8312.8
8314.45
8314.34
8316.26
8316.11
8318.17
8372.95
8373.33
8373.46
8374.06
8374.09
8374.87
8374.93
8375.75
8375.96
8376.76
8377.11
8377.95
8378.35
8379.34
8379.71
8380.93
8381.21
8382.72
8382.87
8384.71
8384.73
8386.88
8386.82
8389.22
8438.67
8438.97
8439.31
8439.55
8440.1
8440.35
8440.97
8441.38
8441.97
8442.61
8443.15
8444.01
8444.52
8445.59
8446.06
8447.39
8447.78
8449.42
8449.69
8451.7
8451.82
8454.19
8454.21
8456.91
8501.4
8501.73
8501.9
8502.44
8502.61
8503.3
8503.56
8504.32
8504.73
8505.56
8506.08
8507.04
8507.61
8508.77
8509.32
8510.75
8511.24
8513
8513.37
8515.53
8515.74
8518.3
8518.35
8521.37
8561.21
8561.49
8561.8
8562.1
8562.58
8562.98
8563.54
8564.12
8564.71
8565.49
8566.11
8567.11
8567.75
8568.97
8569.61
8571.11
8571.69
8573.55
8574.02
8576.3
8576.59
8579.32
8579.46
8582.64
8618.23
8618.52
8618.74
8619.18
8619.49
8620.09
8620.51
8621.23
8621.77
8622.64
8623.28
8624.33
8625.03
8626.31
8627.01
8628.59
8629.25
8631.19
8631.74
8634.13
8634.5
8637.37
8637.56
8640.94
8672.54
8672.8
8673.06
8673.42
8673.84
8674.34
8674.87
8675.55
8676.16
8677.04
8677.72
8678.81
8679.56
8680.9
8681.66
8683.3
8684.02
8686.04
8686.66
8689.14
8689.57
8692.58
8692.8
8696.36
8724.24
8724.49
8724.73
8725.13
8725.5
8726.06
8726.56
8727.29
8727.9
8728.82
8729.53
8730.66
8731.44
8732.83
8733.64
8735.33
8736.11
8738.19
8738.88
8741.43
8741.93
8745.04
8745.3
8749.02
8773.44
8773.67
8773.92
8774.3
8774.69
8775.24
8775.77
8776.5
8777.14
8778.07
8778.81
8779.97
8780.78
8782.21
8783.06
8784.8
8785.64
8787.77
8788.51
8791.12
8791.68
8794.88
8795.17
8799.03
8820.24
8820.46
8820.7
8821.08
8821.47
8822.02
8822.55
8823.3
8823.95
8824.9
8825.66
8826.85
8827.69
8829.14
8830.03
8831.81
8832.69
8834.86
8835.65
8838.32
8838.93
8842.2
8842.52
8846.5
8864.73
8864.94
8865.17
8865.55
8865.94
8866.5
8867.03
8867.78
8868.45
8869.42
8870.19
8871.4
8872.26
8873.74
8874.66
8876.47
8877.38
8879.59
8880.42
8883.12
8883.78
8887.1
8887.46
8891.53
8907.02
8907.22
8907.45
8907.82
8908.21
8908.76
8909.3
8910.06
8910.73
8911.71
8912.5
8913.72
8914.6
8916.1
8917.03
8918.87
8919.8
8922.04
8922.89
8925.64
8926.32
8929.68
8930.07
8934.2
8947.2
8947.38
8947.61
8947.97
8948.36
8948.92
8949.46
8950.22
8950.9
8951.88
8952.68
8953.91
8954.8
8956.32
8957.26
8959.12
8960.06
8962.34
8963.19
8965.98
8966.65
8970.06
8970.44
8974.61
8985.37
8985.54
8985.76
8986.12
8986.5
8987.06
8987.59
8988.36
8989.04
8990.03
8990.83
8992.07
8992.97
8994.5
8995.45
8997.33
8998.26
9000.56
9001.41
9004.23
9004.89
9008.34
9008.71
9012.89
9021.61
9021.77
9021.98
9022.34
9022.72
9023.27
9023.81
9024.57
9025.25
9026.25
9027.04
9028.3
9029.19
9030.73
9031.68
9033.57
9034.51
9036.82
9037.67
9040.51
9041.16
9044.62
9044.99
9049.18
9056.01
9056.17
9056.38
9056.72
9057.1
9057.65
9058.18
9058.95
9059.62
9060.62
9061.42
9062.67
9063.56
9065.11
9066.06
9067.95
9068.89
9071.21
9072.06
9074.9
9075.56
9079.02
9079.39
9083.57
9088.67
9088.82
9089.02
9089.36
9089.73
9090.28
9090.81
9091.57
9092.24
9093.24
9094.03
9095.29
9096.18
9097.73
9098.67
9100.57
9101.51
9103.82
9104.67
9107.51
9108.17
9111.63
9111.99
9116.18
9119.67
9119.8
9120
9120.34
9120.7
9121.25
9121.76
9122.53
9123.19
9124.19
9124.97
9126.23
9127.12
9128.66
9129.6
9131.5
9132.43
9134.74
9135.6
9138.42
9139.09
9142.54
9142.9
9147.07
9149.07
9149.2
9149.39
9149.72
9150.08
9150.62
9151.14
9151.89
9152.55
9153.54
9154.33
9155.58
9156.46
9158
9158.94
9160.82
9161.76
9164.06
9164.91
9167.73
9168.39
9171.83
9172.19
9176.35
9176.96
9177.08
9177.27
9177.6
9177.95
9178.49
9178.99
9179.75
9180.4
9181.39
9182.16
9183.41
9184.28
9185.82
9186.75
9188.63
9189.56
9191.85
9192.69
9195.5
9196.16
9199.58
9199.93
9204.08
9203.42
9203.53
9203.72
9204.04
9204.39
9204.92
9205.42
9206.17
9206.81
9207.79
9208.56
9209.8
9210.66
9212.19
9213.11
9214.98
9215.9
9218.18
9219.03
9221.81
9222.45
9225.88
9226.22
9230.33
9228.51
9228.62
9228.8
9229.11
9229.45
9229.98
9230.47
9231.22
9231.84
9232.83
9233.58
9234.82
9235.66
9237.19
9238.1
9239.96
9240.87
9243.14
9243.96
9246.73
9247.39
9250.76
9251.11
9255.2
9252.3
9252.4
9252.57
9252.88
9253.22
9253.74
9254.22
9254.96
9255.58
9256.56
9257.3
9258.53
9259.36
9260.89
9261.77
9263.63
9264.52
9266.78
9267.59
9270.34
9270.98
9274.33
9274.67
9278.72
9274.85
9274.94
9275.11
9275.42
9275.74
9276.26
9276.73
9277.47
9278.08
9279.06
9279.77
9281.01
9281.81
9283.34
9284.2
9286.06
9286.91
9289.18
9289.95
9292.7
9293.31
9296.64
9296.97
9300.99
9296.22
9296.31
9296.47
9296.78
9297.1
9297.61
9298.07
9298.81
9299.39
9300.37
9301.07
9302.31
9303.08
9304.62
9305.44
9307.31
9308.12
9310.39
9311.13
9313.88
9314.44
9317.78
9318.07
9322.05
9316.47
9316.56
9316.72
9317.01
9317.32
9317.84
9318.28
9319.02
9319.59
9320.57
9321.24
9322.48
9323.23
9324.77
9325.55
9327.43
9328.2
9330.48
9331.18
9333.93
9334.43
9337.77
9338.04
9341.97
9335.65
9335.74
9335.89
9336.19
9336.49
9337
9337.43
9338.17
9338.72
9339.7
9340.35
9341.59
9342.31
9343.86
9344.6
9346.49
9347.21
9349.51
9350.13
9352.92
9353.36
9356.68
9356.92
9360.81
9353.82
9353.91
9354.06
9354.35
9354.64
9355.15
9355.57
9356.3
9356.84
9357.82
9358.44
9359.69
9360.37
9361.93
9362.63
9364.53
9365.2
9367.51
9368.09
9370.86
9371.28
9374.58
9374.8
9378.63
9371.03
9371.11
9371.25
9371.54
9371.83
9372.33
9372.74
9373.48
9373.99
9374.97
9375.57
9376.82
9377.48
9379.03
9379.7
9381.61
9382.24
9384.55
9385.08
9387.85
9388.24
9391.51
9391.71
9395.49
9387.31
9387.39
9387.53
9387.82
9388.1
9388.6
9389
9389.73
9390.23
9391.2
9391.78
9393.03
9393.66
9395.22
9395.86
9397.76
9398.35
9400.68
9401.16
9403.93
9404.27
9407.52
9407.72
9411.46
9402.73
9402.8
9402.94
9403.23
9403.49
9404
9404.38
9405.11
9405.59
9406.57
9407.12
9408.38
9408.97
9410.54
9411.13
9413.05
9413.6
9415.92
9416.36
9419.13
9419.45
9422.66
9422.84
9426.54
9417.3
9417.38
9417.51
9417.8
9418.06
9418.56
9418.92
9419.66
9420.12
9421.11
9421.62
9422.9
9423.44
9425.03
9425.57
9427.51
9427.99
9430.34
9430.73
9433.49
9433.79
9436.97
9437.14
9440.79
9431.09
9431.16
9431.29
9431.58
9431.82
9432.33
9432.68
9433.42
9433.85
9434.85
9435.33
9436.63
9437.11
9438.74
9439.21
9441.18
9441.61
9443.96
9444.32
9447.06
9447.34
9450.49
9450.65
9454.24
9444.12
9444.19
9444.31
9444.6
9444.84
9445.35
9445.67
9446.43
9446.82
9447.85
9448.27
9449.6
9450.04
9451.68
9452.11
9454.09
9454.48
9456.82
9457.16
9459.88
9460.14
9463.25
9463.41
9466.95
9456.42
9456.5
9456.61
9456.91
9457.12
9457.65
9457.94
9458.72
9459.07
9460.12
9460.5
9461.85
9462.25
9463.9
9464.29
9466.27
9466.64
9468.96
9469.29
9471.97
9472.22
9475.3
9475.45
9478.94
9468.04
9468.11
9468.22
9468.52
9468.72
9469.25
9469.53
9470.31
9470.64
9471.7
9472.06
9473.4
9473.78
9475.42
9475.8
9477.76
9478.11
9480.42
9480.73
9483.38
9483.63
9486.66
9486.81
9490.26
9478.99
9479.07
9479.17
9479.47
9479.66
9480.2
9480.46
9481.25
9481.56
9482.61
9482.95
9484.29
9484.65
9486.29
9486.65
9488.6
9488.93
9491.22
9491.51
9494.14
9494.37
9497.38
9497.51
9500.92
9489.32
9489.4
9489.5
9489.8
9489.98
9490.51
9490.77
9491.55
9491.85
9492.89
9493.23
9494.55
9494.9
9496.52
9496.87
9498.8
9499.13
9501.39
9501.67
9504.28
9504.5
9507.47
9507.6
9510.96
9499.05
9499.12
9499.22
9499.52
9499.7
9500.22
9500.47
9501.24
9501.54
9502.57
9502.9
9504.21
9504.55
9506.16
9506.49
9508.41
9508.72
9510.96
9511.24
9513.81
9514.03
9516.96
9517.09
9520.41
9508.2
9508.27
9508.37
9508.66
9508.84
9509.36
9509.6
9510.37
9510.65
9511.68
9511.99
9513.3
9513.63
9515.22
9515.54
9517.44
9517.75
9519.96
9520.23
9522.77
9522.98
9525.88
9526
9529.28
9516.79
9516.86
9516.97
9517.24
9517.43
9517.93
9518.18
9518.93
9519.22
9520.23
9520.54
9521.83
9522.15
9523.73
9524.04
9525.92
9526.22
9528.41
9528.67
9531.19
9531.39
9534.25
9534.37
9537.62
9524.86
9524.92
9525.04
9525.29
9525.51
9525.97
9526.25
9526.96
9527.26
9528.25
9528.56
9529.83
9530.14
9531.71
9532.01
9533.87
9534.16
9536.33
9536.58
9539.07
9539.27
9542.1
9542.22
9545.42
9532.42
9532.48
9532.6
9532.83
9533.07
9533.49
9533.81
9534.46
9534.81
9535.74
9536.09
9537.32
9537.63
9539.18
9539.47
9541.32
9541.59
9543.74
9543.98
9546.45
9546.64
9549.44
9549.56
9552.72