/*--------------------------------*- C++ -*----------------------------------*\
  =========                 |
  \\      /  F ield         | OpenFOAM: The Open Source CFD Toolbox
   \\    /   O peration     | Website:  https://openfoam.org
    \\  /    A nd           | Version:  10
     \\/     M anipulation  |
\*---------------------------------------------------------------------------*/
FoamFile
{
    format      ascii;
    class       surfaceScalarField;
    location    "0.24";
    object      phi;
}
// * * * * * * * * * * * * * * * * * * * * * * * * * * * * * * * * * * * * * //

dimensions      [1 0 -1 0 0 0 0];

internalField   nonuniform List<scalar> 
8154
(
-5.8889e-09
-2.24214e-08
-5.71757e-08
-9.25149e-08
-1.71755e-07
-2.25866e-07
-3.69236e-07
-4.52942e-07
-6.73584e-07
-8.13833e-07
-1.10502e-06
-1.33858e-06
-1.6683e-06
-2.02645e-06
-2.36155e-06
-2.8677e-06
-3.25843e-06
-3.98552e-06
-4.56282e-06
-5.50678e-06
-6.82283e-06
-7.26621e-06
-6.84508e-06
-0.00027744
-0.000832374
2.39681e-08
-0.00138747
9.60013e-08
-0.0019429
2.1299e-07
-0.00249868
3.77607e-07
-0.00305505
5.77078e-07
-0.00361204
8.23683e-07
-0.00416975
1.08939e-06
-0.00472848
1.39883e-06
-0.00528794
1.7121e-06
-0.0058488
2.05612e-06
-0.00641061
2.40183e-06
-0.0069738
2.74676e-06
-0.00753871
3.1198e-06
-0.0081042
3.4368e-06
-0.00867315
3.85031e-06
-0.00924027
4.1255e-06
-0.00981492
4.57264e-06
-0.0103833
4.92514e-06
-0.0109646
5.13993e-06
-0.0115339
5.27926e-06
-0.0121235
5.11322e-06
-0.0126949
4.03239e-06
-0.013293
2.45027e-06
-0.000277464
-0.000832446
2.62877e-08
-0.00138759
1.04572e-07
-0.00194306
2.34436e-07
-0.00249888
4.09768e-07
-0.0030553
6.3508e-07
-0.0036123
8.89796e-07
-0.00417006
1.1957e-06
-0.00472879
1.50224e-06
-0.00528829
1.86794e-06
-0.00584915
2.19059e-06
-0.00641095
2.59212e-06
-0.00697417
2.89106e-06
-0.00753902
3.29819e-06
-0.00810462
3.53999e-06
-0.00867342
3.90433e-06
-0.00924071
4.10455e-06
-0.00981526
4.38985e-06
-0.0103836
5.003e-06
-0.0109648
4.66714e-06
-0.0115337
5.23197e-06
-0.0121224
5.32895e-06
-0.0126933
5.04239e-06
-0.0132905
4.22799e-06
-0.00027749
-0.000832524
2.12345e-08
-0.00138772
8.47211e-08
-0.00194324
1.87828e-07
-0.0024991
3.30182e-07
-0.00305555
5.01811e-07
-0.00361261
7.07606e-07
-0.00417037
9.2377e-07
-0.00472915
1.16757e-06
-0.00528861
1.39507e-06
-0.00584955
1.64169e-06
-0.00641125
1.84493e-06
-0.00697457
2.04781e-06
-0.00753926
2.19611e-06
-0.00810499
2.28428e-06
-0.00867362
2.35396e-06
-0.009241
2.20671e-06
-0.00981586
2.34417e-06
-0.0103832
1.90014e-06
-0.0109653
1.7827e-06
-0.0115338
1.393e-06
-0.0121222
1.15373e-06
-0.0126925
7.20466e-07
-0.0132863
5.11141e-07
-0.000277511
-0.000832587
2.54783e-08
-0.00138782
1.01711e-07
-0.00194338
2.25859e-07
-0.00249927
3.97525e-07
-0.00305576
6.05613e-07
-0.00361282
8.55969e-07
-0.00417061
1.12063e-06
-0.00472938
1.42175e-06
-0.00528886
1.70346e-06
-0.00584975
2.01673e-06
-0.00641145
2.27067e-06
-0.00697472
2.54619e-06
-0.00753934
2.73206e-06
-0.00810506
2.8952e-06
-0.00867347
2.9854e-06
-0.00924113
2.89805e-06
-0.00981541
2.97537e-06
-0.0103831
2.28401e-06
-0.0109649
2.51814e-06
-0.0115335
1.72632e-06
-0.0121217
1.20662e-06
-0.0126923
3.79222e-07
-0.0132858
-1.77257e-07
-0.000277537
-0.000832664
3.36022e-08
-0.00138794
1.34106e-07
-0.00194355
2.99072e-07
-0.00249948
5.26244e-07
-0.00305601
8.08019e-07
-0.00361308
1.14205e-06
-0.00417092
1.51314e-06
-0.00472966
1.92034e-06
-0.00528917
2.34002e-06
-0.00585001
2.77321e-06
-0.00641173
3.19276e-06
-0.00697491
3.59374e-06
-0.0075395
3.9624e-06
-0.00810515
4.25856e-06
-0.00867338
4.52192e-06
-0.00924121
4.61522e-06
-0.00981471
4.73131e-06
-0.0103834
4.40158e-06
-0.0109641
4.36661e-06
-0.011533
3.67396e-06
-0.0121209
3.21486e-06
-0.0126918
2.26952e-06
-0.0132859
1.34248e-06
-0.00027757
-0.000832764
3.75357e-08
-0.00138811
1.4981e-07
-0.00194378
3.34346e-07
-0.00249976
5.88356e-07
-0.00305634
9.04541e-07
-0.00361345
1.27879e-06
-0.00417132
1.69738e-06
-0.00473008
2.15512e-06
-0.0052896
2.63195e-06
-0.00585042
3.12088e-06
-0.00641213
3.60108e-06
-0.00697527
4.05598e-06
-0.00753979
4.47987e-06
-0.00810542
4.82123e-06
-0.00867347
5.12365e-06
-0.00924133
5.24957e-06
-0.00981438
5.36951e-06
-0.0103833
5.08292e-06
-0.0109634
4.96638e-06
-0.0115325
4.21735e-06
-0.01212
3.68264e-06
-0.0126908
2.63843e-06
-0.0132846
1.6068e-06
-0.000277608
-0.000832876
4.13814e-08
-0.00138829
1.65169e-07
-0.00194403
3.68711e-07
-0.00250008
6.48936e-07
-0.00305671
9.98121e-07
-0.00361387
1.41173e-06
-0.00417178
1.87525e-06
-0.00473055
2.38305e-06
-0.00529009
2.91334e-06
-0.0058509
3.45896e-06
-0.00641258
3.99527e-06
-0.0069757
4.50691e-06
-0.00754013
4.98068e-06
-0.00810572
5.37049e-06
-0.0086736
5.70682e-06
-0.00924145
5.86207e-06
-0.00981409
5.99659e-06
-0.0103832
5.71899e-06
-0.0109627
5.59655e-06
-0.011532
4.81161e-06
-0.0121189
4.2052e-06
-0.0126898
2.98929e-06
-0.013283
1.79105e-06
-0.000277649
-0.000833
4.509e-08
-0.00138849
1.79959e-07
-0.00194431
4.01763e-07
-0.00250043
7.06997e-07
-0.00305713
1.08764e-06
-0.00361433
1.53829e-06
-0.00417229
2.04435e-06
-0.00473108
2.59864e-06
-0.00529064
3.17969e-06
-0.00585144
3.77763e-06
-0.00641309
4.36809e-06
-0.00697617
4.93191e-06
-0.00754051
5.45486e-06
-0.00810605
5.8884e-06
-0.00867375
6.2577e-06
-0.00924158
6.4406e-06
-0.00981381
6.58006e-06
-0.0103831
6.32849e-06
-0.0109619
6.17657e-06
-0.0115314
5.37429e-06
-0.0121177
4.82725e-06
-0.0126886
3.36109e-06
-0.0132812
2.01406e-06
-0.000277694
-0.000833135
4.87499e-08
-0.00138871
1.94544e-07
-0.00194462
4.343e-07
-0.00250081
7.64052e-07
-0.00305758
1.17533e-06
-0.00361484
1.6619e-06
-0.00417284
2.20879e-06
-0.00473166
2.80768e-06
-0.00529124
3.43681e-06
-0.00585203
4.08471e-06
-0.00641366
4.72637e-06
-0.00697669
5.34053e-06
-0.00754094
5.91058e-06
-0.00810642
6.38678e-06
-0.00867393
6.78774e-06
-0.00924172
6.99566e-06
-0.00981355
7.13535e-06
-0.0103829
6.90246e-06
-0.0109611
6.72721e-06
-0.0115308
5.91145e-06
-0.0121164
4.85942e-06
-0.0126873
3.71022e-06
-0.0132791
2.20812e-06
-0.000277743
-0.00083328
5.23592e-08
-0.00138895
2.08924e-07
-0.00194495
4.66358e-07
-0.00250122
8.20215e-07
-0.00305806
1.26149e-06
-0.00361538
1.78309e-06
-0.00417344
2.36948e-06
-0.00473229
3.01118e-06
-0.00529188
3.68598e-06
-0.00585267
4.38108e-06
-0.00641427
5.07078e-06
-0.00697726
5.73231e-06
-0.00754141
6.34694e-06
-0.00810682
6.8641e-06
-0.00867414
7.29616e-06
-0.00924186
7.52733e-06
-0.00981332
7.66577e-06
-0.0103828
7.44777e-06
-0.0109603
7.24616e-06
-0.0115301
6.39507e-06
-0.0121148
5.60201e-06
-0.0126858
4.03125e-06
-0.0132769
2.39622e-06
-0.000277795
-0.000833437
5.59324e-08
-0.00138921
2.23164e-07
-0.0019453
4.98112e-07
-0.00250166
8.75871e-07
-0.00305859
1.34685e-06
-0.00361597
1.90311e-06
-0.00417408
2.52832e-06
-0.00473296
3.21186e-06
-0.00529258
3.93072e-06
-0.00585336
4.67091e-06
-0.00641493
5.40576e-06
-0.00697788
6.11161e-06
-0.00754192
6.76766e-06
-0.00810724
7.32343e-06
-0.00867438
7.78578e-06
-0.009242
8.04143e-06
-0.0098131
8.18603e-06
-0.0103826
7.96964e-06
-0.0109594
7.74113e-06
-0.0115293
6.86239e-06
-0.0121133
6.00827e-06
-0.0126841
4.35508e-06
-0.0132745
2.58297e-06
-0.000277851
-0.000833604
5.94617e-08
-0.00138949
2.37238e-07
-0.00194568
5.29521e-07
-0.00250213
9.30993e-07
-0.00305914
1.43149e-06
-0.00361659
2.02221e-06
-0.00417476
2.68596e-06
-0.00473368
3.41087e-06
-0.00529332
4.17288e-06
-0.0058541
4.95667e-06
-0.00641564
5.73437e-06
-0.00697853
6.48156e-06
-0.00754248
7.17542e-06
-0.0081077
7.76622e-06
-0.00867464
8.25594e-06
-0.00924214
8.53445e-06
-0.00981289
8.68569e-06
-0.0103823
8.46672e-06
-0.0109585
8.20353e-06
-0.0115284
7.28684e-06
-0.0121116
6.37586e-06
-0.0126824
4.64976e-06
-0.0132719
2.75375e-06
-0.00027791
-0.000833781
6.29464e-08
-0.00138978
2.51139e-07
-0.00194608
5.60573e-07
-0.00250263
9.85561e-07
-0.00305973
1.5154e-06
-0.00361725
2.14049e-06
-0.00417549
2.8427e-06
-0.00473444
3.60892e-06
-0.0052941
4.41377e-06
-0.00585487
5.24051e-06
-0.00641638
6.05966e-06
-0.00697923
6.84595e-06
-0.00754306
7.57443e-06
-0.00810818
8.19647e-06
-0.00867492
8.70983e-06
-0.00924229
9.00805e-06
-0.00981267
9.16351e-06
-0.0103821
8.94468e-06
-0.0109576
8.6416e-06
-0.0115275
7.67972e-06
-0.0121099
6.70809e-06
-0.0126805
4.89338e-06
-0.0132692
2.90119e-06
-0.000277973
-0.000833969
6.63885e-08
-0.00139009
2.64869e-07
-0.0019465
5.91249e-07
-0.00250316
1.0395e-06
-0.00306036
1.59841e-06
-0.00361795
2.25765e-06
-0.00417626
2.99818e-06
-0.00473525
3.80566e-06
-0.00529493
4.65335e-06
-0.00585569
5.52291e-06
-0.00641717
6.38301e-06
-0.00697996
7.20719e-06
-0.00754368
7.96803e-06
-0.00810869
8.61796e-06
-0.00867522
9.15081e-06
-0.00924245
9.46466e-06
-0.00981245
9.62261e-06
-0.0103818
9.40585e-06
-0.0109566
9.06093e-06
-0.0115265
8.05495e-06
-0.0121081
7.01321e-06
-0.0126785
5.05262e-06
-0.0132663
3.02715e-06
-0.000278039
-0.000834167
6.97947e-08
-0.00139041
2.78449e-07
-0.00194695
6.21566e-07
-0.00250371
1.09278e-06
-0.00306102
1.68036e-06
-0.00361869
2.37331e-06
-0.00417706
3.15173e-06
-0.0047361
4.00019e-06
-0.0052958
4.89058e-06
-0.00585655
5.803e-06
-0.00641799
6.70413e-06
-0.00698072
7.56601e-06
-0.00754433
8.35843e-06
-0.00810922
9.03422e-06
-0.00867554
9.58306e-06
-0.0092426
9.90761e-06
-0.00981224
1.0064e-05
-0.0103814
9.84686e-06
-0.0109556
9.46124e-06
-0.0115255
8.41688e-06
-0.0121061
7.31329e-06
-0.0126764
5.2722e-06
-0.0132632
3.15852e-06
-0.000278109
-0.000834376
7.3168e-08
-0.00139075
2.9189e-07
-0.00194742
6.51525e-07
-0.0025043
1.14533e-06
-0.00306171
1.76104e-06
-0.00361947
2.48701e-06
-0.00417791
3.30252e-06
-0.00473699
4.19119e-06
-0.00529671
5.12366e-06
-0.00585745
6.07865e-06
-0.00641886
7.02089e-06
-0.00698151
7.92081e-06
-0.007545
8.74524e-06
-0.00810976
9.44676e-06
-0.00867587
1.00104e-05
-0.00924276
1.03422e-05
-0.00981203
1.04904e-05
-0.010381
1.02601e-05
-0.0109546
9.8408e-06
-0.0115244
8.75937e-06
-0.0121041
7.5954e-06
-0.0126743
5.49022e-06
-0.0132601
3.28026e-06
-0.000278182
-0.000834594
7.64986e-08
-0.00139111
3.05147e-07
-0.00194791
6.81024e-07
-0.00250492
1.19696e-06
-0.00306243
1.84009e-06
-0.00362029
2.59811e-06
-0.0041788
3.4495e-06
-0.00473792
4.37705e-06
-0.00529767
5.35032e-06
-0.00585839
6.34687e-06
-0.00641975
7.32973e-06
-0.00698233
8.26781e-06
-0.0075457
9.12509e-06
-0.00811032
9.85342e-06
-0.0086762
1.0433e-05
-0.00924291
1.07725e-05
-0.0098118
1.09112e-05
-0.0103806
1.0664e-05
-0.0109535
1.02105e-05
-0.0115232
9.09238e-06
-0.012102
7.86687e-06
-0.0126721
5.6905e-06
-0.0132568
3.39358e-06
-0.000278258
-0.000834822
7.97601e-08
-0.00139149
3.18117e-07
-0.00194843
7.09842e-07
-0.00250556
1.2473e-06
-0.00306319
1.91696e-06
-0.00362114
2.70585e-06
-0.00417973
3.59162e-06
-0.00473889
4.55629e-06
-0.00529866
5.56845e-06
-0.00585938
6.60475e-06
-0.00642069
7.62683e-06
-0.00698319
8.60239e-06
-0.00754643
9.49286e-06
-0.0081109
1.02492e-05
-0.00867655
1.08469e-05
-0.00924304
1.11962e-05
-0.00981156
1.13277e-05
-0.0103801
1.10657e-05
-0.0109524
1.05737e-05
-0.011522
9.42149e-06
-0.0120998
8.13493e-06
-0.0126698
5.88481e-06
-0.0132534
3.50162e-06
-0.000278338
-0.00083506
8.28943e-08
-0.00139188
3.30578e-07
-0.00194897
7.37517e-07
-0.00250623
1.29561e-06
-0.00306398
1.99066e-06
-0.00362202
2.80897e-06
-0.00418069
3.72731e-06
-0.0047399
4.72697e-06
-0.0052997
5.7756e-06
-0.0058604
6.84912e-06
-0.00642167
7.90803e-06
-0.00698408
8.91919e-06
-0.00754718
9.84201e-06
-0.00811149
1.06268e-05
-0.0086769
1.12448e-05
-0.00924317
1.1607e-05
-0.0098113
1.17352e-05
-0.0103796
1.14611e-05
-0.0109512
1.09306e-05
-0.0115207
9.75068e-06
-0.0120976
8.40423e-06
-0.0126674
6.07909e-06
-0.0132499
3.60823e-06
-0.000278421
-0.000835308
8.58235e-08
-0.00139229
3.4223e-07
-0.00194953
7.63425e-07
-0.00250692
1.34089e-06
-0.0030648
2.05981e-06
-0.00362294
2.90575e-06
-0.00418169
3.85461e-06
-0.00474095
4.88689e-06
-0.00530077
5.96926e-06
-0.00586146
7.07698e-06
-0.00642268
8.16956e-06
-0.006985
9.21331e-06
-0.00754797
1.01661e-05
-0.00811211
1.09782e-05
-0.00867726
1.16172e-05
-0.0092433
1.19951e-05
-0.00981103
1.21255e-05
-0.0103791
1.1844e-05
-0.01095
1.12788e-05
-0.0115193
1.00786e-05
-0.0120953
8.67719e-06
-0.012665
6.27927e-06
-0.0132462
3.71811e-06
-0.000278507
-0.000835564
8.84585e-08
-0.00139271
3.52727e-07
-0.0019501
7.86826e-07
-0.00250764
1.38193e-06
-0.00306564
2.12267e-06
-0.00362389
2.994e-06
-0.00418272
3.97095e-06
-0.00474203
5.03319e-06
-0.00530188
6.14638e-06
-0.00586255
7.28503e-06
-0.00642372
8.40768e-06
-0.00698595
9.48025e-06
-0.00754878
1.04594e-05
-0.00811274
1.12957e-05
-0.00867764
1.19542e-05
-0.00924342
1.23485e-05
-0.00981076
1.24853e-05
-0.0103785
1.22041e-05
-0.0109488
1.16183e-05
-0.0115179
1.03981e-05
-0.0120929
8.94575e-06
-0.0126624
6.48627e-06
-0.0132425
3.83423e-06
-0.000278595
-0.000835828
9.07132e-08
-0.00139314
3.6173e-07
-0.0019507
8.0697e-07
-0.00250838
1.41743e-06
-0.00306652
2.17737e-06
-0.00362486
3.07123e-06
-0.00418378
4.07326e-06
-0.00474315
5.16237e-06
-0.00530302
6.30315e-06
-0.00586367
7.46932e-06
-0.0064248
8.61827e-06
-0.00698693
9.71555e-06
-0.00754961
1.07168e-05
-0.0081134
1.15728e-05
-0.00867804
1.22473e-05
-0.00924356
1.26555e-05
-0.00981048
1.27991e-05
-0.0103779
1.25223e-05
-0.0109476
1.19268e-05
-0.0115165
1.06879e-05
-0.0120905
9.19143e-06
-0.0126598
6.68976e-06
-0.0132387
3.9529e-06
-0.000278686
-0.000836099
9.25177e-08
-0.00139359
3.68954e-07
-0.00195131
8.2321e-07
-0.00250914
1.44624e-06
-0.00306741
2.22206e-06
-0.00362587
3.13482e-06
-0.00418487
4.15816e-06
-0.00474429
5.27033e-06
-0.00530418
6.43496e-06
-0.00586482
7.62487e-06
-0.00642589
8.79626e-06
-0.00698793
9.9141e-06
-0.00755047
1.09329e-05
-0.00811407
1.18039e-05
-0.00867845
1.24895e-05
-0.0092437
1.29072e-05
-0.00981021
1.30546e-05
-0.0103773
1.27805e-05
-0.0109464
1.21746e-05
-0.011515
1.09245e-05
-0.012088
9.38992e-06
-0.012657
6.86357e-06
-0.0132347
4.05658e-06
-0.000278778
-0.000836375
9.38248e-08
-0.00139404
3.74203e-07
-0.00195193
8.35066e-07
-0.00250992
1.46742e-06
-0.00306832
2.25518e-06
-0.00362689
3.1824e-06
-0.00418598
4.22231e-06
-0.00474545
5.35274e-06
-0.00530537
6.53653e-06
-0.00586599
7.74574e-06
-0.00642701
8.93533e-06
-0.00698895
1.00696e-05
-0.00755134
1.11016e-05
-0.00811476
1.19828e-05
-0.00867887
1.26743e-05
-0.00924385
1.30961e-05
-0.00980994
1.32428e-05
-0.0103767
1.29681e-05
-0.0109451
1.235e-05
-0.0115134
1.1093e-05
-0.0120854
9.51591e-06
-0.0126542
6.96391e-06
-0.0132307
4.11093e-06
-0.000278872
-0.000836655
9.46238e-08
-0.0013945
3.77422e-07
-0.00195256
8.42376e-07
-0.0025107
1.48058e-06
-0.00306925
2.27596e-06
-0.00362793
3.21261e-06
-0.00418711
4.26354e-06
-0.00474663
5.40655e-06
-0.00530658
6.60381e-06
-0.00586718
7.82719e-06
-0.00642814
9.03014e-06
-0.00698998
1.01768e-05
-0.00755222
1.1218e-05
-0.00811545
1.21059e-05
-0.00867929
1.27985e-05
-0.00924399
1.32202e-05
-0.00980967
1.33601e-05
-0.010376
1.3081e-05
-0.0109439
1.24488e-05
-0.0115119
1.11882e-05
-0.0120829
9.55982e-06
-0.0126513
6.95437e-06
-0.0132266
4.08858e-06
-0.000278966
-0.000836938
9.52963e-08
-0.00139497
3.80127e-07
-0.0019532
8.48514e-07
-0.0025115
1.49165e-06
-0.00307018
2.29346e-06
-0.00362898
3.2382e-06
-0.00418826
4.29884e-06
-0.00474783
5.45337e-06
-0.00530781
6.66374e-06
-0.00586838
7.90187e-06
-0.00642929
9.1204e-06
-0.00699102
1.0283e-05
-0.00755311
1.1339e-05
-0.00811614
1.22402e-05
-0.00867971
1.29421e-05
-0.00924413
1.33709e-05
-0.00980939
1.35123e-05
-0.0103754
1.32355e-05
-0.0109426
1.25978e-05
-0.0115102
1.13397e-05
-0.0120803
9.68453e-06
-0.0126484
7.04664e-06
-0.0132225
4.18869e-06
-0.000279062
-0.000837223
9.55759e-08
-0.00139543
3.81254e-07
-0.00195384
8.51078e-07
-0.0025123
1.49631e-06
-0.00307113
2.30091e-06
-0.00363004
3.24929e-06
-0.00418941
4.3145e-06
-0.00474904
5.47486e-06
-0.00530904
6.69253e-06
-0.0058696
7.93975e-06
-0.00643046
9.16912e-06
-0.00699208
1.03441e-05
-0.00755401
1.14132e-05
-0.00811684
1.23269e-05
-0.00868014
1.30396e-05
-0.00924426
1.34765e-05
-0.00980911
1.36214e-05
-0.0103747
1.33468e-05
-0.0109414
1.27038e-05
-0.0115086
1.14444e-05
-0.0120777
9.78787e-06
-0.0126456
7.13059e-06
-0.0132183
4.35759e-06
-0.000279157
-0.000837508
9.53534e-08
-0.0013959
3.80369e-07
-0.00195449
8.49105e-07
-0.00251311
1.4929e-06
-0.00307208
2.29571e-06
-0.0036311
3.24213e-06
-0.00419057
4.30532e-06
-0.00475026
5.46403e-06
-0.00531029
6.68076e-06
-0.00587083
7.9285e-06
-0.00643163
9.16022e-06
-0.00699315
1.03398e-05
-0.00755492
1.14158e-05
-0.00811756
1.23378e-05
-0.00868058
1.30589e-05
-0.00924441
1.3503e-05
-0.00980883
1.3651e-05
-0.0103741
1.33777e-05
-0.0109401
1.27279e-05
-0.0115069
1.14709e-05
-0.012075
9.81184e-06
-0.0126427
7.18332e-06
-0.0132141
3.94121e-06
-0.000279253
-0.000837793
9.46667e-08
-0.00139637
3.77632e-07
-0.00195513
8.42989e-07
-0.00251391
1.48217e-06
-0.00307302
2.27918e-06
-0.00363217
3.21881e-06
-0.00419173
4.27429e-06
-0.00475147
5.42486e-06
-0.00531154
6.63334e-06
-0.00587206
7.87371e-06
-0.00643281
9.09955e-06
-0.00699422
1.02759e-05
-0.00755585
1.13516e-05
-0.00811828
1.22769e-05
-0.00868102
1.3004e-05
-0.00924455
1.34558e-05
-0.00980856
1.361e-05
-0.0103735
1.33411e-05
-0.0109389
1.26862e-05
-0.0115053
1.143e-05
-0.0120724
9.75403e-06
-0.0126397
7.16172e-06
-0.0132098
3.90053e-06
-0.000279348
-0.000838076
9.35426e-08
-0.00139684
3.73159e-07
-0.00195577
8.3302e-07
-0.0025147
1.46472e-06
-0.00307396
2.25238e-06
-0.00363322
3.18108e-06
-0.00419288
4.22414e-06
-0.00475268
5.36126e-06
-0.00531278
6.55553e-06
-0.00587329
7.78189e-06
-0.00643399
8.9946e-06
-0.0069953
1.016e-05
-0.00755677
1.12281e-05
-0.008119
1.21504e-05
-0.00868147
1.28795e-05
-0.0092447
1.33385e-05
-0.00980828
1.35029e-05
-0.0103728
1.32461e-05
-0.0109376
1.25965e-05
-0.0115036
1.13434e-05
-0.0120698
9.64751e-06
-0.0126368
7.08382e-06
-0.0132056
4.20042e-06
-0.000279441
-0.000838356
9.20088e-08
-0.0013973
3.67062e-07
-0.0019564
8.19465e-07
-0.00251549
1.44107e-06
-0.00307489
2.21621e-06
-0.00363426
3.1304e-06
-0.00419402
4.15714e-06
-0.00475388
5.27662e-06
-0.005314
6.45217e-06
-0.0058745
7.65954e-06
-0.00643515
8.8535e-06
-0.00699637
1.00017e-05
-0.00755769
1.10551e-05
-0.00811973
1.19673e-05
-0.00868193
1.26925e-05
-0.00924487
1.31552e-05
-0.00980802
1.33308e-05
-0.0103722
1.30927e-05
-0.0109363
1.24629e-05
-0.0115019
1.12322e-05
-0.0120672
9.54314e-06
-0.0126339
7.01407e-06
-0.0132014
4.16286e-06
-0.000279533
-0.000838631
9.01047e-08
-0.00139775
3.59497e-07
-0.00195702
8.02667e-07
-0.00251627
1.4118e-06
-0.0030758
2.17159e-06
-0.00363529
3.0681e-06
-0.00419514
4.07521e-06
-0.00475505
5.17372e-06
-0.00531521
6.32724e-06
-0.00587569
7.51226e-06
-0.0064363
8.6838e-06
-0.00699742
9.81057e-06
-0.0075586
1.0844e-05
-0.00812046
1.17401e-05
-0.00868239
1.24544e-05
-0.00924504
1.29147e-05
-0.00980777
1.30976e-05
-0.0103715
1.28788e-05
-0.0109351
1.22773e-05
-0.0115002
1.10855e-05
-0.0120647
9.43389e-06
-0.0126311
6.93375e-06
-0.0131972
4.118e-06
-0.000279623
-0.000838901
8.78884e-08
-0.00139819
3.5069e-07
-0.00195763
7.83101e-07
-0.00251703
1.3777e-06
-0.0030767
2.11965e-06
-0.0036363
2.99567e-06
-0.00419623
3.98023e-06
-0.00475621
5.05494e-06
-0.0053164
6.18385e-06
-0.00587687
7.34426e-06
-0.00643743
8.49134e-06
-0.00699845
9.59458e-06
-0.0075595
1.06055e-05
-0.00812117
1.14818e-05
-0.00868285
1.21799e-05
-0.00924522
1.26312e-05
-0.00980755
1.28141e-05
-0.0103709
1.26092e-05
-0.0109339
1.20366e-05
-0.0114986
1.08911e-05
-0.0120622
9.28983e-06
-0.0126282
6.8539e-06
-0.0131931
4.06304e-06
-0.000279711
-0.000839163
8.54336e-08
-0.00139863
3.40927e-07
-0.00195822
7.61384e-07
-0.00251777
1.33978e-06
-0.00307757
2.0618e-06
-0.00363728
2.91492e-06
-0.00419731
3.87432e-06
-0.00475733
4.9226e-06
-0.00531756
6.02459e-06
-0.00587801
7.15853e-06
-0.00643853
8.27995e-06
-0.00699946
9.35903e-06
-0.00756038
1.03472e-05
-0.00812187
1.12031e-05
-0.00868331
1.18831e-05
-0.0092454
1.23215e-05
-0.00980734
1.24973e-05
-0.0103704
1.22975e-05
-0.0109328
1.17463e-05
-0.011497
1.06447e-05
-0.0120598
9.10787e-06
-0.0126255
6.77208e-06
-0.013189
4.00314e-06
-0.000279797
-0.000839419
8.2822e-08
-0.00139905
3.30528e-07
-0.0019588
7.38205e-07
-0.00251849
1.29921e-06
-0.00307842
1.9997e-06
-0.00363824
2.82797e-06
-0.00419836
3.75995e-06
-0.00475844
4.77941e-06
-0.00531869
5.85212e-06
-0.00587913
6.95757e-06
-0.00643961
8.052e-06
-0.00700045
9.10658e-06
-0.00756123
1.00727e-05
-0.00812255
1.09099e-05
-0.00868375
1.15735e-05
-0.00924558
1.19994e-05
-0.00980713
1.21656e-05
-0.0103698
1.19641e-05
-0.0109317
1.14225e-05
-0.0114954
1.03506e-05
-0.0120574
8.87298e-06
-0.0126227
6.64568e-06
-0.013185
3.9267e-06
-0.00027988
-0.000839667
8.0129e-08
-0.00139945
3.1979e-07
-0.00195936
7.14225e-07
-0.00251919
1.25711e-06
-0.00307925
1.93504e-06
-0.00363917
2.73706e-06
-0.00419937
3.63985e-06
-0.00475951
4.62837e-06
-0.00531979
5.66943e-06
-0.00588023
6.74404e-06
-0.00644067
7.80947e-06
-0.00700142
8.83835e-06
-0.00756207
9.78276e-06
-0.00812321
1.0603e-05
-0.00868418
1.12536e-05
-0.00924574
1.16712e-05
-0.00980693
1.18319e-05
-0.0103693
1.16292e-05
-0.0109306
1.10919e-05
-0.0114939
1.00356e-05
-0.0120552
8.59009e-06
-0.01262
6.41893e-06
-0.0131811
3.81596e-06
-0.00027996
-0.000839906
7.74116e-08
-0.00139985
3.08944e-07
-0.00195991
6.89955e-07
-0.00251987
1.21439e-06
-0.00308005
1.86921e-06
-0.00364008
2.64414e-06
-0.00420036
3.51654e-06
-0.00476055
4.47249e-06
-0.00532087
5.47977e-06
-0.00588129
6.52098e-06
-0.00644169
7.55474e-06
-0.00700236
8.55545e-06
-0.00756289
9.47659e-06
-0.00812386
1.02797e-05
-0.00868459
1.09195e-05
-0.0092459
1.13334e-05
-0.00980673
1.14962e-05
-0.0103688
1.13001e-05
-0.0109295
1.07739e-05
-0.0114925
9.7341e-06
-0.012053
8.31069e-06
-0.0126174
6.18661e-06
-0.0131773
3.67311e-06
-0.000280037
-0.000840137
7.47011e-08
-0.00140023
2.98113e-07
-0.00196043
6.65689e-07
-0.00252052
1.1716e-06
-0.00308083
1.80311e-06
-0.00364095
2.55054e-06
-0.00420132
3.39186e-06
-0.00476156
4.31411e-06
-0.00532191
5.28595e-06
-0.00588233
6.29143e-06
-0.00644269
7.29059e-06
-0.00700328
8.25977e-06
-0.00756369
9.15416e-06
-0.0081245
9.93732e-06
-0.00868501
1.0565e-05
-0.00924607
1.09762e-05
-0.00980655
1.11474e-05
-0.0103682
1.09671e-05
-0.0109285
1.0466e-05
-0.011491
9.45328e-06
-0.0120509
8.05618e-06
-0.0126148
5.96986e-06
-0.0131736
3.48735e-06
-0.000280112
-0.000840361
7.19965e-08
-0.0014006
2.873e-07
-0.00196093
6.41438e-07
-0.00252115
1.12878e-06
-0.00308157
1.73685e-06
-0.00364179
2.45656e-06
-0.00420224
3.26636e-06
-0.00476253
4.15417e-06
-0.00532291
5.08936e-06
-0.00588333
6.05721e-06
-0.00644366
7.01904e-06
-0.00700418
7.95306e-06
-0.00756447
8.81624e-06
-0.00812512
9.57429e-06
-0.00868542
1.01847e-05
-0.00924624
1.0589e-05
-0.00980637
1.07691e-05
-0.0103677
1.0609e-05
-0.0109275
1.0147e-05
-0.0114896
9.17897e-06
-0.0120488
7.83395e-06
-0.0126124
5.78954e-06
-0.0131701
3.31429e-06
-0.000280184
-0.000840576
6.92755e-08
-0.00140095
2.76416e-07
-0.00196142
6.17015e-07
-0.00252176
1.08561e-06
-0.00308229
1.67002e-06
-0.0036426
2.36164e-06
-0.00420313
3.13949e-06
-0.00476347
3.99215e-06
-0.00532388
4.8897e-06
-0.00588429
5.81835e-06
-0.0064446
6.74064e-06
-0.00700504
7.63625e-06
-0.00756523
8.46384e-06
-0.00812573
9.19079e-06
-0.00868582
9.77669e-06
-0.00924642
1.01656e-05
-0.00980622
1.03479e-05
-0.0103673
1.02032e-05
-0.0109265
9.78329e-06
-0.0114883
8.86877e-06
-0.0120467
7.60774e-06
-0.0126099
5.64329e-06
-0.0131668
3.28999e-06
-0.000280253
-0.000840783
6.64883e-08
-0.00140129
2.65266e-07
-0.00196189
5.91985e-07
-0.00252235
1.04134e-06
-0.00308298
1.60145e-06
-0.00364338
2.26422e-06
-0.00420398
3.0092e-06
-0.00476437
3.82561e-06
-0.00532481
4.68418e-06
-0.00588521
5.57193e-06
-0.00644549
6.45263e-06
-0.00700586
7.30693e-06
-0.00756596
8.09515e-06
-0.00812632
8.78547e-06
-0.00868621
9.33961e-06
-0.0092466
9.70332e-06
-0.00980608
9.877e-06
-0.0103668
9.73593e-06
-0.0109256
9.34712e-06
-0.011487
8.47682e-06
-0.0120448
7.30445e-06
-0.0126075
5.43151e-06
-0.0131635
3.22433e-06
-0.000280319
-0.000840981
6.35661e-08
-0.00140162
2.53565e-07
-0.00196234
5.65708e-07
-0.00252291
9.9484e-07
-0.00308364
1.5294e-06
-0.00364413
2.16184e-06
-0.00420479
2.87224e-06
-0.00476523
3.65046e-06
-0.0053257
4.46777e-06
-0.00588609
5.31228e-06
-0.00644634
6.14845e-06
-0.00700665
6.95878e-06
-0.00756664
7.70328e-06
-0.00812688
8.35329e-06
-0.00868657
8.86813e-06
-0.00924677
9.20044e-06
-0.00980593
9.35113e-06
-0.0103664
9.20425e-06
-0.0109247
8.82251e-06
-0.0114859
7.98374e-06
-0.0120429
6.87822e-06
-0.0126053
5.09774e-06
-0.0131603
3.04084e-06
-0.000280383
-0.00084117
6.07621e-08
-0.00140193
2.42319e-07
-0.00196277
5.40447e-07
-0.00252344
9.50155e-07
-0.00308428
1.46023e-06
-0.00364484
2.06369e-06
-0.00420557
2.74113e-06
-0.00476605
3.4832e-06
-0.00532654
4.26142e-06
-0.00588693
5.06551e-06
-0.00644715
5.86004e-06
-0.00700739
6.63039e-06
-0.00756729
7.33458e-06
-0.0081274
7.94956e-06
-0.00868691
8.42867e-06
-0.00924692
8.73569e-06
-0.00980578
8.86282e-06
-0.0103661
8.7141e-06
-0.0109239
8.32744e-06
-0.0114848
7.51752e-06
-0.0120412
6.45514e-06
-0.0126032
4.75811e-06
-0.0131572
2.81325e-06
-0.000280443
-0.000841352
5.82846e-08
-0.00140223
2.32382e-07
-0.00196318
5.18142e-07
-0.00252395
9.10742e-07
-0.00308488
1.39938e-06
-0.00364552
1.97762e-06
-0.00420632
2.62671e-06
-0.00476682
3.33785e-06
-0.00532735
4.08334e-06
-0.00588772
4.85367e-06
-0.00644792
5.61515e-06
-0.0070081
6.35357e-06
-0.0075679
7.02899e-06
-0.00812788
7.61839e-06
-0.00868722
8.07845e-06
-0.00924704
8.37095e-06
-0.00980562
8.4953e-06
-0.0103657
8.35146e-06
-0.0109231
7.98058e-06
-0.0114837
7.19441e-06
-0.0120395
6.19638e-06
-0.0126013
4.55879e-06
-0.0131544
2.73598e-06
-0.000280501
-0.000841525
5.56007e-08
-0.00140251
2.21617e-07
-0.00196357
4.93987e-07
-0.00252444
8.68086e-07
-0.00308546
1.33358e-06
-0.00364617
1.88461e-06
-0.00420703
2.5031e-06
-0.00476757
3.18086e-06
-0.00532812
3.89101e-06
-0.00588848
4.62478e-06
-0.00644866
5.35042e-06
-0.00700877
6.0539e-06
-0.00756849
6.6978e-06
-0.00812834
7.25894e-06
-0.00868751
7.69941e-06
-0.00924717
7.97724e-06
-0.00980546
8.10018e-06
-0.0103653
7.96084e-06
-0.0109223
7.60805e-06
-0.0114827
6.84086e-06
-0.0120378
5.8954e-06
-0.0125995
4.31557e-06
-0.0131517
2.65468e-06
-0.000280557
-0.000841691
5.26819e-08
-0.00140279
2.09906e-07
-0.00196394
4.67739e-07
-0.00252491
8.21775e-07
-0.00308601
1.26221e-06
-0.00364679
1.78383e-06
-0.0042077
2.36928e-06
-0.00476828
3.011e-06
-0.00532885
3.68307e-06
-0.00588921
4.37746e-06
-0.00644936
5.06434e-06
-0.00700941
5.72988e-06
-0.00756905
6.33921e-06
-0.00812879
6.86918e-06
-0.0086878
7.28855e-06
-0.00924729
7.55109e-06
-0.00980532
7.67262e-06
-0.010365
7.53849e-06
-0.0109216
7.21434e-06
-0.0114817
6.47117e-06
-0.0120362
5.56926e-06
-0.0125978
4.03261e-06
-0.013149
2.45442e-06
-0.000280609
-0.000841847
4.95052e-08
-0.00140304
1.97163e-07
-0.0019643
4.3921e-07
-0.00252535
7.71499e-07
-0.00308653
1.18481e-06
-0.00364737
1.67464e-06
-0.00420834
2.22443e-06
-0.00476896
2.8273e-06
-0.00532954
3.45855e-06
-0.00588989
4.11068e-06
-0.00645002
4.7561e-06
-0.00701002
5.38074e-06
-0.00756958
5.95292e-06
-0.00812921
6.44863e-06
-0.00868807
6.84561e-06
-0.00924741
7.09065e-06
-0.00980519
7.2087e-06
-0.0103646
7.07631e-06
-0.0109208
6.79297e-06
-0.0114808
6.08735e-06
-0.0120347
5.25567e-06
-0.0125963
4.07745e-06
-0.0131466
2.29076e-06
-0.000280658
-0.000841994
4.60514e-08
-0.00140328
1.83312e-07
-0.00196463
4.08246e-07
-0.00252576
7.16992e-07
-0.00308702
1.10097e-06
-0.00364792
1.55646e-06
-0.00420895
2.06773e-06
-0.00476959
2.62875e-06
-0.0053302
3.2163e-06
-0.00589054
3.82318e-06
-0.00645065
4.42445e-06
-0.00701059
5.00529e-06
-0.00757007
5.53817e-06
-0.0081296
5.99678e-06
-0.00868832
6.37083e-06
-0.00924753
6.59583e-06
-0.00980507
6.70873e-06
-0.0103643
6.57118e-06
-0.0109201
6.32432e-06
-0.01148
5.66297e-06
-0.0120332
4.96721e-06
-0.0125948
3.62921e-06
-0.0131443
2.16177e-06
-0.000280704
-0.000842131
4.23114e-08
-0.00140351
1.68317e-07
-0.00196494
3.7476e-07
-0.00252615
6.58093e-07
-0.00308748
1.01042e-06
-0.00364843
1.42885e-06
-0.00420951
1.89856e-06
-0.00477018
2.41448e-06
-0.0053308
2.9553e-06
-0.00589114
3.51371e-06
-0.00645122
4.06809e-06
-0.00701112
4.60194e-06
-0.00757053
5.09376e-06
-0.00812997
5.51227e-06
-0.00868855
5.86344e-06
-0.00924765
6.06568e-06
-0.00980494
6.17801e-06
-0.0103641
6.03262e-06
-0.0109195
5.81417e-06
-0.0114793
5.17603e-06
-0.0120318
4.59681e-06
-0.0125934
3.32462e-06
-0.0131421
1.98448e-06
-0.000280746
-0.000842256
3.82929e-08
-0.00140372
1.52198e-07
-0.00196522
3.38772e-07
-0.0025265
5.94793e-07
-0.00308789
9.13098e-07
-0.0036489
1.2917e-06
-0.00421002
1.71672e-06
-0.00477072
2.18413e-06
-0.00533136
2.67499e-06
-0.00589169
3.18135e-06
-0.00645176
3.68595e-06
-0.00701161
4.16922e-06
-0.00757096
4.61868e-06
-0.00813032
4.99367e-06
-0.00868875
5.32191e-06
-0.00924777
5.49658e-06
-0.00980479
5.61695e-06
-0.0103639
5.46974e-06
-0.0109188
5.29844e-06
-0.0114788
5.07284e-06
-0.0120305
4.06711e-06
-0.012592
3.01523e-06
-0.0131401
1.79461e-06
-0.000280784
-0.00084237
3.40176e-08
-0.0014039
1.35031e-07
-0.00196548
3.00403e-07
-0.00252682
5.27274e-07
-0.00308827
8.09184e-07
-0.00364933
1.14523e-06
-0.00421049
1.52252e-06
-0.00477121
1.93801e-06
-0.00533186
2.37557e-06
-0.0058922
2.82581e-06
-0.00645224
3.27765e-06
-0.00701206
3.70622e-06
-0.00757134
4.11301e-06
-0.00813064
4.44047e-06
-0.00868893
4.74751e-06
-0.00924789
4.88692e-06
-0.00980463
5.02164e-06
-0.0103637
4.8686e-06
-0.0109182
4.80961e-06
-0.0114782
4.34316e-06
-0.0120295
3.66376e-06
-0.0125908
2.72737e-06
-0.0131383
1.61427e-06
-0.000280817
-0.00084247
2.94977e-08
-0.00140407
1.16885e-07
-0.0019657
2.5981e-07
-0.0025271
4.55807e-07
-0.00308861
6.99073e-07
-0.0036497
9.90032e-07
-0.0042109
1.31685e-06
-0.00477165
1.67725e-06
-0.00533231
2.05815e-06
-0.00589265
2.44771e-06
-0.00645266
2.84421e-06
-0.00701247
3.2128e-06
-0.00757168
3.57892e-06
-0.00813094
3.85305e-06
-0.00868907
4.14689e-06
-0.00924802
4.24211e-06
-0.00980447
4.40391e-06
-0.0103637
4.61489e-06
-0.0109176
4.11754e-06
-0.0114775
3.74743e-06
-0.0120285
3.20375e-06
-0.0125897
2.39734e-06
-0.0131367
1.41771e-06
-0.000280846
-0.000842557
2.4692e-08
-0.00140421
9.77756e-08
-0.0019659
2.17144e-07
-0.00252735
3.80799e-07
-0.0030889
5.83516e-07
-0.00365003
8.27171e-07
-0.00421126
1.10107e-06