/*--------------------------------*- C++ -*----------------------------------*\
  =========                 |
  \\      /  F ield         | OpenFOAM: The Open Source CFD Toolbox
   \\    /   O peration     | Website:  https://openfoam.org
    \\  /    A nd           | Version:  10
     \\/     M anipulation  |
\*---------------------------------------------------------------------------*/
FoamFile
{
    format      ascii;
    class       volScalarField;
    location    "0.24";
    object      rho;
}
// * * * * * * * * * * * * * * * * * * * * * * * * * * * * * * * * * * * * * //

dimensions      [1 -3 0 0 0 0 0];

internalField   nonuniform List<scalar> 
4176
(
0.0308489
0.030852
0.0308582
0.0308686
0.0308817
0.030898
0.0309189
0.0309404
0.0309696
0.0309958
0.0310326
0.031065
0.0311071
0.0311479
0.0311927
0.0312442
0.0312873
0.0313551
0.0313936
0.0314793
0.0315111
0.0316161
0.0316367
0.0317506
0.030857
0.0308598
0.0308651
0.030875
0.030886
0.0309018
0.0309195
0.0309401
0.0309652
0.0309902
0.0310223
0.0310526
0.0310901
0.0311273
0.0311684
0.0312144
0.0312543
0.0313145
0.0313503
0.0314269
0.0314542
0.0315542
0.0315752
0.0317038
0.0308762
0.0308792
0.0308847
0.0308949
0.0309065
0.0309226
0.0309412
0.0309624
0.0309887
0.0310143
0.031048
0.031079
0.0311184
0.0311565
0.0311998
0.031247
0.0312893
0.0313521
0.031388
0.0314684
0.0314958
0.0315946
0.0316138
0.0317345
0.0309049
0.0309078
0.0309131
0.0309231
0.0309343
0.0309501
0.0309681
0.0309886
0.0310144
0.031039
0.0310722
0.0311018
0.031141
0.0311773
0.0312203
0.0312657
0.0313076
0.0313704
0.0314018
0.0314844
0.0315095
0.031607
0.031625
0.0317368
0.0309444
0.0309473
0.0309526
0.0309626
0.0309737
0.0309896
0.0310075
0.0310282
0.0310537
0.0310786
0.0311115
0.0311415
0.0311803
0.0312168
0.0312599
0.0313047
0.0313486
0.0314082
0.0314433
0.0315238
0.0315506
0.0316477
0.0316671
0.0317805
0.0309938
0.0309967
0.0310019
0.0310119
0.0310227
0.0310385
0.031056
0.0310766
0.0311016
0.0311264
0.0311585
0.0311884
0.0312265
0.0312626
0.0313053
0.031349
0.0313933
0.03145
0.0314884
0.031565
0.0315926
0.0316886
0.0317088
0.0318237
0.0310537
0.0310566
0.0310617
0.0310717
0.0310824
0.0310981
0.0311154
0.0311358
0.0311605
0.0311851
0.031217
0.0312465
0.0312844
0.03132
0.0313626
0.0314056
0.0314501
0.0315052
0.0315445
0.0316191
0.031648
0.0317424
0.0317629
0.0318759
0.0311239
0.0311267
0.0311318
0.0311416
0.0311522
0.0311677
0.0311847
0.031205
0.0312293
0.0312537
0.0312851
0.0313143
0.0313517
0.0313867
0.0314291
0.0314711
0.0315157
0.0315689
0.0316094
0.0316814
0.0317113
0.0318042
0.0318252
0.0319368
0.0312043
0.0312072
0.0312122
0.031222
0.0312323
0.0312478
0.0312645
0.0312846
0.0313086
0.0313326
0.0313637
0.0313924
0.0314295
0.0314639
0.031506
0.0315472
0.0315918
0.0316433
0.0316846
0.0317542
0.0317852
0.0318759
0.0318974
0.0320073
0.0312952
0.031298
0.0313029
0.0313126
0.0313228
0.0313381
0.0313546
0.0313745
0.0313981
0.0314218
0.0314524
0.0314807
0.0315174
0.0315511
0.0315928
0.0316331
0.0316775
0.0317274
0.0317695
0.0318365
0.0318685
0.0319569
0.031979
0.032087
0.0313964
0.0313993
0.031404
0.0314137
0.0314237
0.0314388
0.031455
0.0314747
0.0314979
0.0315213
0.0315515
0.0315793
0.0316155
0.0316485
0.0316898
0.0317292
0.0317734
0.0318218
0.0318643
0.031929
0.0319619
0.0320476
0.0320702
0.0321762
0.0315082
0.031511
0.0315157
0.0315252
0.031535
0.03155
0.0315659
0.0315852
0.0316081
0.0316311
0.0316609
0.0316881
0.0317238
0.0317562
0.0317969
0.0318354
0.0318792
0.0319262
0.0319691
0.0320314
0.0320648
0.0321483
0.0321711
0.0322749
0.0316305
0.0316332
0.0316378
0.0316473
0.0316569
0.0316716
0.0316872
0.0317063
0.0317287
0.0317513
0.0317806
0.0318073
0.0318425
0.0318741
0.0319143
0.0319518
0.0319952
0.0320407
0.0320839
0.0321437
0.032178
0.0322586
0.0322816
0.0323832
0.0317634
0.0317661
0.0317706
0.0317799
0.0317893
0.0318038
0.031819
0.0318378
0.0318598
0.031882
0.0319107
0.0319369
0.0319715
0.0320024
0.032042
0.0320784
0.0321214
0.0321654
0.0322087
0.0322662
0.0323008
0.0323791
0.0324019
0.0325012
0.031907
0.0319097
0.0319141
0.0319233
0.0319324
0.0319467
0.0319615
0.0319799
0.0320015
0.0320232
0.0320514
0.032077
0.0321109
0.032141
0.03218
0.0322154
0.0322578
0.0323003
0.0323435
0.0323986
0.0324338
0.0325094
0.0325322
0.0326291
0.0320614
0.0320641
0.0320683
0.0320774
0.0320862
0.0321003
0.0321148
0.0321328
0.0321539
0.032175
0.0322026
0.0322275
0.0322608
0.0322901
0.0323284
0.0323627
0.0324046
0.0324456
0.0324885
0.0325413
0.0325768
0.0326494
0.0326728
0.0327668
0.0322266
0.0322293
0.0322334
0.0322423
0.032251
0.0322647
0.0322788
0.0322964
0.0323169
0.0323375
0.0323645
0.0323887
0.0324213
0.0324496
0.0324872
0.0325205
0.0325617
0.0326012
0.0326438
0.0326941
0.03273
0.0327997
0.0328234
0.0329145
0.0324029
0.0324056
0.0324096
0.0324183
0.0324266
0.0324401
0.0324537
0.0324709
0.0324909
0.0325109
0.0325372
0.0325606
0.0325924
0.0326198
0.0326566
0.0326887
0.0327292
0.0327672
0.0328093
0.0328572
0.0328935
0.0329601
0.0329842
0.0330722
0.0325903
0.0325929
0.0325967
0.0326053
0.0326133
0.0326265
0.0326397
0.0326564
0.0326758
0.0326951
0.0327207
0.0327433
0.0327743
0.0328007
0.0328366
0.0328676
0.0329072
0.0329437
0.0329852
0.0330308
0.0330672
0.0331309
0.0331552
0.0332401
0.0327888
0.0327914
0.0327951
0.0328035
0.0328112
0.032824
0.0328367
0.0328529
0.0328717
0.0328904
0.0329152
0.032937
0.0329671
0.0329925
0.0330274
0.0330571
0.0330958
0.0331307
0.0331716
0.0332148
0.0332513
0.0333119
0.0333365
0.0334181
0.0329987
0.0330013
0.0330048
0.033013
0.0330203
0.0330327
0.0330449
0.0330606
0.0330787
0.0330967
0.0331207
0.0331416
0.0331709
0.0331951
0.0332291
0.0332574
0.0332951
0.0333284
0.0333685
0.0334095
0.033446
0.0335034
0.0335283
0.0336065
0.03322
0.0332225
0.0332259
0.0332338
0.0332408
0.0332528
0.0332645
0.0332796
0.033297
0.0333143
0.0333374
0.0333574
0.0333857
0.0334088
0.0334418
0.0334687
0.0335054
0.033537
0.0335761
0.0336149
0.0336512
0.0337053
0.0337305
0.0338053
0.0334528
0.0334553
0.0334584
0.0334661
0.0334727
0.0334843
0.0334954
0.03351
0.0335266
0.0335431
0.0335654
0.0335844
0.0336117
0.0336337
0.0336655
0.0336911
0.0337266
0.0337564
0.0337946
0.0338311
0.0338671
0.033918
0.0339432
0.0340146
0.0336972
0.0336996
0.0337026
0.03371
0.0337162
0.0337274
0.0337379
0.0337518
0.0337677
0.0337834
0.0338047
0.0338228
0.033849
0.0338698
0.0339005
0.0339246
0.033959
0.033987
0.0340241
0.0340583
0.034094
0.0341414
0.0341666
0.0342344
0.0339533
0.0339556
0.0339584
0.0339656
0.0339714
0.0339821
0.033992
0.0340053
0.0340203
0.0340352
0.0340556
0.0340726
0.0340977
0.0341172
0.0341468
0.0341694
0.0342025
0.0342288
0.0342647
0.0342966
0.0343317
0.0343759
0.0344009
0.034465
0.0342211
0.0342234
0.034226
0.034233
0.0342383
0.0342486
0.0342578
0.0342704
0.0342847
0.0342986
0.034318
0.0343339
0.0343579
0.0343762
0.0344045
0.0344256
0.0344575
0.0344819
0.0345166
0.0345461
0.0345807
0.0346214
0.0346462
0.0347065
0.0345008
0.0345031
0.0345054
0.0345121
0.0345171
0.0345269
0.0345355
0.0345474
0.0345608
0.0345738
0.0345922
0.034607
0.0346298
0.0346467
0.0346738
0.0346933
0.0347239
0.0347464
0.0347799
0.0348071
0.0348407
0.0348782
0.0349029
0.0349594
0.0347924
0.0347946
0.0347968
0.0348033
0.0348077
0.0348171
0.034825
0.0348362
0.0348488
0.0348609
0.0348782
0.0348919
0.0349135
0.034929
0.0349548
0.0349726
0.0350019
0.0350225
0.0350547
0.0350795
0.0351123
0.0351461
0.035171
0.0352232
0.0350961
0.0350982
0.0351002
0.0351064
0.0351104
0.0351193
0.0351266
0.0351371
0.0351488
0.03516
0.0351762
0.0351887
0.0352091
0.0352232
0.0352476
0.0352637
0.0352916
0.0353103
0.0353412
0.0353635
0.0353952
0.0354256
0.0354503
0.0354985
0.0354119
0.035414
0.0354157
0.0354216
0.0354252
0.0354336
0.0354402
0.03545
0.0354608
0.0354711
0.0354863
0.0354976
0.0355167
0.0355294
0.0355524
0.0355668
0.0355932
0.0356099
0.0356394
0.0356593
0.0356901
0.0357167
0.0357414
0.0357851
0.0357399
0.0357419
0.0357435
0.0357491
0.0357522
0.0357601
0.035766
0.0357752
0.035785
0.0357944
0.0358085
0.0358186
0.0358365
0.0358477
0.0358693
0.035882
0.0359069
0.0359215
0.0359496
0.035967
0.0359966
0.03602
0.0360442
0.0360836
0.0360802
0.0360821
0.0360835
0.0360888
0.0360915
0.0360989
0.0361041
0.0361125
0.0361215
0.0361299
0.036143
0.0361519
0.0361686
0.0361783
0.0361985
0.0362094
0.0362329
0.0362452
0.0362719
0.0362868
0.0363151
0.0363351
0.0363593
0.0363939
0.0364328
0.0364348
0.0364359
0.036441
0.0364432
0.0364501
0.0364546
0.0364623
0.0364704
0.0364778
0.0364898
0.0364975
0.036513
0.0365212
0.0365401
0.0365492
0.0365712
0.0365814
0.0366066
0.0366188
0.0366457
0.0366626
0.0366864
0.0367164
0.036798
0.0367999
0.0368008
0.0368056
0.0368074
0.0368137
0.0368176
0.0368246
0.0368317
0.0368382
0.0368491
0.0368556
0.0368698
0.0368766
0.0368941
0.0369015
0.036922
0.03693
0.0369537
0.0369633
0.0369888
0.0370024
0.0370257
0.0370511
0.0371757
0.0371775
0.0371782
0.0371828
0.0371841
0.03719
0.0371932
0.0371994
0.0372057
0.0372112
0.037221
0.0372263
0.0372392
0.0372445
0.0372607
0.0372663
0.0372853
0.0372912
0.0373135
0.0373205
0.0373444
0.0373548
0.0373775
0.0373981
0.037566
0.0375678
0.0375683
0.0375726
0.0375735
0.0375789
0.0375814
0.037587
0.0375924
0.0375969
0.0376056
0.0376097
0.0376214
0.0376252
0.03764
0.0376438
0.0376614
0.0376651
0.0376859
0.0376904
0.0377129
0.0377199
0.0377417
0.0377577
0.0379691
0.0379709
0.0379712
0.0379752
0.0379756
0.0379806
0.0379825
0.0379873
0.0379918
0.0379954
0.0380031
0.0380059
0.0380163
0.0380186
0.038032
0.0380341
0.0380502
0.0380518
0.0380711
0.038073
0.0380941
0.0380982
0.0381187
0.0381299
0.0383851
0.0383868
0.0383869
0.0383906
0.0383907
0.0383952
0.0383964
0.0384006
0.0384042
0.0384069
0.0384135
0.0384151
0.0384243
0.0384251
0.0384371
0.0384373
0.0384519
0.0384513
0.0384692
0.0384685
0.0384882
0.0384891
0.0385087
0.038515
0.038814
0.0388157
0.0388156
0.0388191
0.0388187
0.0388228
0.0388233
0.0388268
0.0388296
0.0388314
0.0388369
0.0388374
0.0388453
0.0388446
0.0388552
0.0388536
0.0388667
0.0388639
0.0388802
0.0388769
0.0388952
0.0388931
0.0389117
0.0389132
0.039256
0.0392577
0.0392574
0.0392607
0.0392599
0.0392635
0.0392634
0.0392662
0.0392682
0.039269
0.0392735
0.0392728
0.0392795
0.0392773
0.0392865
0.0392831
0.0392947
0.0392897
0.0393045
0.0392984
0.0393153
0.0393099
0.0393275
0.0393249
0.0397113
0.0397129
0.0397124
0.0397155
0.0397142
0.0397174
0.0397166
0.0397188
0.0397199
0.0397198
0.0397233
0.0397214
0.0397269
0.0397233
0.0397311
0.0397259
0.039736
0.0397288
0.0397421
0.0397332
0.0397487
0.03974
0.0397563
0.03975
0.0401799
0.0401815
0.0401808
0.0401836
0.040182
0.0401847
0.0401833
0.0401847
0.040185
0.040184
0.0401864
0.0401834
0.0401877
0.0401826
0.0401891
0.040182
0.0401908
0.0401813
0.0401932
0.0401814
0.0401958
0.0401834
0.0401986
0.040188
0.0406621
0.0406636
0.0406627
0.0406653
0.0406631
0.0406654
0.0406633
0.0406641
0.0406635
0.0406616
0.040663
0.0406588
0.0406619
0.0406553
0.0406605
0.0406516
0.0406591
0.0406472
0.0406579
0.0406432
0.0406564
0.0406405
0.0406547
0.0406394
0.0411578
0.0411593
0.0411582
0.0411605
0.0411579
0.0411597
0.041157
0.0411571
0.0411556
0.0411528
0.0411531
0.0411477
0.0411496
0.0411416
0.0411455
0.0411347
0.0411408
0.0411266
0.0411362
0.0411186
0.0411308
0.0411111
0.0411246
0.0411047
0.0416671
0.0416686
0.0416673
0.0416694
0.0416664
0.0416677
0.0416643
0.0416638
0.0416614
0.0416576
0.0416569
0.0416503
0.0416509
0.0416414
0.041644
0.0416313
0.0416362
0.0416197
0.041628
0.0416076
0.0416187
0.0415955
0.0416084
0.0415839
0.0421903
0.0421917
0.0421903
0.042192
0.0421886
0.0421895
0.0421854
0.0421841
0.0421809
0.0421762
0.0421744
0.0421666
0.042166
0.042155
0.0421562
0.0421417
0.0421452
0.0421264
0.0421335
0.0421102
0.0421204
0.0420933
0.042106
0.0420766
0.0427272
0.0427286
0.042727
0.0427285
0.0427246
0.042725
0.0427202
0.0427183
0.0427142
0.0427085
0.0427056
0.0426966
0.0426948
0.0426823
0.0426822
0.0426659
0.042668
0.0426468
0.0426527
0.0426265
0.0426358
0.0426048
0.0426178
0.0425829
0.043278
0.0432794
0.0432775
0.0432788
0.0432744
0.0432744
0.0432689
0.0432663
0.0432613
0.0432547
0.0432507
0.0432405
0.0432375
0.0432235
0.0432221
0.0432038
0.0432047
0.0431812
0.0431858
0.0431565
0.0431652
0.0431299
0.0431433
0.0431033
0.0438427
0.043844
0.0438419
0.043843
0.0438381
0.0438377
0.0438315
0.0438282
0.0438223
0.0438147
0.0438097
0.0437983
0.0437941
0.0437785
0.0437758
0.0437556
0.0437554
0.0437293
0.043733
0.0437002
0.0437086
0.0436689
0.0436828
0.0436378
0.0444211
0.0444224
0.0444201
0.0444209
0.0444156
0.0444147
0.0444079
0.0444039
0.0443971
0.0443886
0.0443826
0.0443699
0.0443646
0.0443474
0.0443435
0.0443213
0.04432
0.0442913
0.0442942
0.0442579
0.0442666
0.0442219
0.0442359
0.0441861
0.0450133
0.0450146
0.0450121
0.0450127
0.0450069
0.0450056
0.044998
0.0449934
0.0449858
0.0449763
0.0449693
0.0449554
0.0449489
0.0449302
0.0449251
0.0449009
0.0448987
0.0448671
0.0448696
0.0448294
0.0448387
0.0447889
0.0448032
0.0447487
0.0456192
0.0456204
0.0456177
0.0456181
0.0456119
0.0456102
0.045602
0.0455967
0.0455882
0.0455778
0.0455699
0.0455546
0.0455472
0.0455268
0.0455207
0.0454943
0.0454914
0.0454567
0.0454593
0.0454148
0.0454244
0.0453707
0.0453843
0.0453255
0.0462386
0.0462398
0.046237
0.0462371
0.0462304
0.0462284
0.0462195
0.0462136
0.0462043
0.046193
0.0461842
0.0461676
0.0461593
0.0461371
0.0461304
0.0461015
0.0460983
0.0460602
0.0460635
0.0460146
0.0460237
0.0459667
0.0459796
0.0459166
0.0468715
0.0468727
0.0468696
0.0468696
0.0468624
0.04686
0.0468505
0.046844
0.046834
0.0468217
0.0468122
0.0467942
0.0467853
0.046761
0.0467541
0.0467223
0.0467193
0.0466774
0.046681
0.0466287
0.0466373
0.0465768
0.0465891
0.046522
0.0475176
0.0475187
0.0475155
0.0475153
0.0475077
0.047505
0.0474949
0.0474878
0.0474771
0.0474639
0.0474538
0.0474343
0.0474252
0.0473984
0.0473919
0.0473567
0.0473544
0.0473092
0.0473116
0.0472574
0.0472645
0.0472013
0.0472128
0.0471417
0.0481767
0.0481778
0.0481744
0.0481741
0.0481661
0.0481632
0.0481525
0.0481448
0.0481336
0.0481192
0.048109
0.0480874
0.0480788
0.0480491
0.0480435
0.048005
0.0480022
0.047955
0.0479566
0.0479
0.047906
0.0478398
0.0478506
0.0477758
0.0488485
0.0488498
0.0488462
0.0488458
0.0488374
0.0488343
0.048823
0.0488147
0.0488033
0.0487874
0.0487777
0.0487536
0.0487457
0.0487137
0.0487075
0.0486676
0.0486637
0.0486151
0.0486149
0.0485565
0.0485613
0.0484925
0.0485025
0.0484241
0.0495331
0.0495344
0.0495304
0.0495303
0.0495213
0.0495182
0.0495063
0.0494973
0.0494861
0.0494686
0.0494589
0.0494338
0.0494248
0.0493922
0.0493846
0.0493438
0.0493384
0.0492884
0.0492871
0.0492269
0.0492305
0.0491592
0.0491685
0.0490866
0.05023
0.0502314
0.0502271
0.0502272
0.0502175
0.0502146
0.050202
0.0501929
0.050181
0.0501632
0.0501527
0.0501269
0.050117
0.0500836
0.0500751
0.0500331
0.0500268
0.0499753
0.0499728
0.0499109
0.0499135
0.0498398
0.0498483
0.0497631
0.0509391
0.0509406
0.0509362
0.0509361
0.0509264
0.0509231
0.0509098
0.0509015
0.0508881
0.0508704
0.050859
0.0508327
0.050822
0.050788
0.0507783
0.0507356
0.0507282
0.0506756
0.0506718
0.0506084
0.05061
0.050534
0.0505419
0.0504536
0.0516602
0.0516617
0.0516574
0.0516571
0.0516473
0.0516439
0.0516302
0.051622
0.0516071
0.0515903
0.0515775
0.0515511
0.0515397
0.051505
0.0514944
0.051451
0.0514425
0.0513889
0.0513841
0.0513192
0.0513197
0.0512418
0.0512489
0.0511578
0.0523932
0.0523947
0.0523904
0.05239
0.0523801
0.0523766
0.0523626
0.0523544
0.0523386
0.0523224
0.0523079
0.0522822
0.0522696
0.0522344
0.0522231
0.052179
0.0521695
0.052115
0.0521093
0.0520429
0.0520426
0.0519627
0.0519693
0.0518754
0.0531379
0.0531394
0.0531351
0.0531347
0.0531246
0.0531212
0.0531069
0.0530987
0.0530821
0.0530663
0.0530505
0.0530255
0.0530112
0.0529763
0.0529641
0.0529194
0.052909
0.0528536
0.052847
0.0527793
0.0527782
0.0526967
0.0527025
0.0526062
0.0538943
0.0538959
0.0538915
0.0538912
0.0538809
0.0538775
0.0538629
0.0538546
0.0538376
0.053822
0.0538053
0.0537805
0.053765
0.0537303
0.053717
0.0536717
0.0536605
0.0536044
0.0535969
0.0535282
0.053526
0.0534431
0.0534483
0.0533498
0.0546623
0.054664
0.0546595
0.0546593
0.0546489
0.0546454
0.0546305
0.0546223
0.0546048
0.0545894
0.0545717
0.0545472
0.0545306
0.054496
0.0544818
0.0544357
0.0544239
0.054367
0.0543588
0.0542889
0.0542862
0.0542018
0.0542062
0.0541058
0.0554421
0.0554438
0.0554393
0.0554391
0.0554285
0.055425
0.0554098
0.0554015
0.0553835
0.0553682
0.0553497
0.0553253
0.0553078
0.0552728
0.0552579
0.0552112
0.0551988
0.0551411
0.055132
0.0550614
0.0550575
0.0549722
0.054976
0.0548738
0.0562335
0.0562353
0.0562307
0.0562305
0.0562197
0.0562162
0.0562006
0.0561922
0.0561736
0.0561583
0.0561388
0.0561145
0.056096
0.0560608
0.056045
0.055998
0.0559848
0.055926
0.0559165
0.055845
0.0558404
0.0557539
0.055757
0.0556533
0.0570366
0.0570385
0.0570337
0.0570335
0.0570223
0.0570187
0.0570027
0.056994
0.0569749
0.0569594
0.0569389
0.0569147
0.056895
0.0568596
0.056843
0.0567952
0.0567816
0.0567221
0.0567114
0.0566394
0.0566338
0.0565466
0.056549
0.0564441
0.0578511
0.0578531
0.057848
0.0578478
0.0578362
0.0578323
0.0578158
0.0578068
0.057787
0.0577711
0.0577495
0.0577254
0.0577043
0.057669
0.0576509
0.057603
0.0575887
0.0575281
0.0575171
0.0574442
0.0574378
0.0573499
0.0573516
0.0572457
0.0586764
0.0586785
0.0586732
0.0586727
0.0586608
0.0586565
0.0586394
0.0586298
0.0586094
0.058593
0.0585702
0.0585462
0.0585234
0.0584885
0.0584689
0.0584208
0.0584057
0.0583446
0.0583325
0.0582591
0.058252
0.0581636
0.0581646
0.058058
0.0595115
0.0595136
0.0595082
0.0595074
0.0594951
0.0594904
0.0594727
0.0594626
0.0594414
0.0594245
0.0594007
0.0593767
0.059352
0.0593179
0.059296
0.0592488
0.0592319
0.0591707
0.0591582
0.0590841
0.0590764
0.0589876
0.0589879
0.0588808
0.0603549
0.0603569
0.0603514
0.0603504
0.0603379
0.0603327
0.0603147
0.0603041
0.0602823
0.0602648
0.0602403
0.0602161
0.0601899
0.0601565
0.0601324
0.0600863
0.0600673
0.0600069
0.0599935
0.0599192
0.0599107
0.0598218
0.0598216
0.0597142
0.0612044
0.0612064
0.061201
0.0611999
0.0611873
0.061182
0.0611638
0.061153
0.061131
0.0611132
0.0610882
0.0610641
0.0610367
0.0610041
0.0609777
0.0609335
0.060912
0.0608531
0.0608383
0.0607642
0.0607553
0.0606664
0.0606657
0.0605583
0.0620577
0.0620599
0.0620546
0.0620537
0.0620414
0.0620364
0.0620185
0.0620079
0.0619861
0.0619687
0.0619437
0.0619199
0.061892
0.0618603
0.0618327
0.0617898
0.0617667
0.061709
0.0616926
0.0616198
0.0616101
0.0615214
0.0615207
0.0614134
0.0629131
0.0629154
0.0629105
0.0629102
0.0628984
0.0628942
0.0628771
0.0628674
0.0628465
0.06283
0.0628059
0.062783
0.0627556
0.0627251
0.0626968
0.0626559
0.0626308
0.0625756
0.0625573
0.0624858
0.0624758
0.0623875
0.0623866
0.0622797
0.0637696
0.0637721
0.0637678
0.0637682
0.0637575
0.0637544
0.0637386
0.0637305
0.0637111
0.0636963
0.0636737
0.0636526
0.0636263
0.0635978
0.0635701
0.0635312
0.0635056
0.0634527
0.0634331
0.0633631
0.0633527
0.0632647
0.063264
0.0631574
0.0646282
0.064631
0.0646273
0.0646287
0.064619
0.0646175
0.0646033
0.064597
0.0645797
0.064567
0.0645466
0.0645279
0.0645039
0.0644777
0.0644517
0.0644156
0.0643906
0.0643405
0.0643209
0.0642521
0.0642418
0.0641537
0.064153
0.0640465
0.065492
0.0654951
0.065492
0.0654944
0.0654857
0.0654857
0.065473
0.0654687
0.0654534
0.0654431
0.065425
0.0654091
0.0653874
0.0653643
0.0653409
0.0653076
0.0652849
0.0652379
0.065219
0.0651533
0.0651436
0.0650554
0.0650552
0.0649476
0.0663667
0.0663704
0.0663672
0.0663707
0.0663623
0.0663638
0.0663518
0.0663493
0.0663352
0.0663271
0.0663107
0.0662973
0.0662778
0.0662573
0.0662372
0.0662058
0.0661876
0.0661415
0.066128
0.0660628
0.0660575
0.0659703
0.0659711
0.0658631
0.0672601
0.0672646
0.0672605
0.0672654
0.0672557
0.067259
0.0672454
0.0672454
0.0672298
0.0672241
0.0672074
0.0671959
0.0671773
0.0671583
0.0671424
0.0671084
0.0670998
0.0670482
0.0670452
0.0669774
0.0669792
0.0668942
0.0668988
0.0667964
0.0681816
0.0681855
0.0681823
0.0681852
0.0681766
0.0681772
0.0681648
0.0681616
0.0681471
0.0681387
0.0681225
0.0681099
0.0680906
0.0680735
0.0680547
0.0680236
0.0680147
0.0679651
0.0679636
0.067898
0.0679031
0.0678201
0.0678293
0.0677347
0.0691392
0.0691429
0.0691391
0.069141
0.0691309
0.0691299
0.0691153
0.0691098
0.0690927
0.0690816
0.0690626
0.0690472
0.0690252
0.0690062
0.0689827
0.068955
0.0689383
0.0688926
0.0688888
0.0688228
0.0688299
0.0687451
0.0687579
0.0686635
0.0701397
0.0701431
0.0701384
0.070139
0.0701268
0.0701235
0.0701058
0.070097
0.0700759
0.0700605
0.0700369
0.0700166
0.0699895
0.0699657
0.0699363
0.0699053
0.0698819
0.0698353
0.069826
0.0697567
0.0697642
0.0696743
0.0696892
0.0695908
0.0711863
0.0711899
0.0711837
0.0711834
0.0711687
0.071163
0.0711416
0.0711293
0.0711032
0.0710833
0.0710533
0.0710273
0.0709928
0.0709622
0.0709245
0.0708866
0.0708548
0.0708014
0.0707848
0.0707072
0.070712
0.0706135
0.0706292
0.0705224
0.0722791
0.0722832
0.0722752
0.0722745
0.0722572
0.0722498
0.0722245
0.0722097
0.0721776
0.0721549
0.0721165
0.0720867
0.0720425
0.0720052
0.0719581
0.0719103
0.0718703
0.071801
0.0717786
0.0716866
0.0716842
0.0715722
0.0715854
0.0714649
0.0734147
0.0734182
0.0734109
0.0734078
0.0733904
0.0733799
0.0733538
0.0733343
0.0733013
0.0732715
0.0732318
0.0731931
0.0731454
0.0730994
0.0730436
0.0729897
0.0729318
0.0728584
0.0728179
0.0727131
0.072696
0.0725655
0.0725706
0.072428
0.0745866
0.0745898
0.0745825
0.0745788
0.0745606
0.0745492
0.0745216
0.0745006
0.0744654
0.0744333
0.0743906
0.0743485
0.0742968
0.0742457
0.0741841
0.0741235
0.0740545
0.0739801
0.073912
0.0738093
0.073766
0.0736178
0.0736062
0.0734304
0.0757867
0.0757898
0.0757825
0.0757789
0.0757604
0.0757488
0.0757207
0.0756992
0.0756633
0.0756303
0.0755867
0.0755432
0.0754898
0.0754367
0.0753727
0.0753088
0.0752358
0.0751576
0.0750788
0.074978
0.0749049
0.0747598
0.0747214
0.0745078
0.0770063
0.0770095
0.0770025
0.0769991
0.0769808
0.0769696
0.0769419
0.0769208
0.0768853
0.0768528
0.0768096
0.0767665
0.0767137
0.0766609
0.0765973
0.0765339
0.076461
0.0763828
0.0763038
0.0762046
0.0761255
0.0759885
0.0759325
0.0757071
0.0782367
0.0782403
0.0782335
0.0782307
0.078213
0.0782027
0.0781757
0.0781559
0.0781215
0.0780904
0.0780486
0.0780073
0.0779561
0.0779055
0.0778442
0.0777832
0.0777131
0.0776382
0.0775638
0.0774658
0.0773985
0.0772601
0.0772208
0.0770226
0.0794702
0.0794741
0.0794677
0.0794656
0.0794486
0.0794395
0.0794137
0.0793954
0.0793626
0.0793335
0.0792937
0.079255
0.0792064
0.0791588
0.0791006
0.0790434
0.0789769
0.0789066
0.0788369
0.0787447
0.0786831
0.0785524
0.0785159
0.0783322
0.0806995
0.0807037
0.0806977
0.0806965
0.0806803
0.0806726
0.0806481
0.0806317
0.0806006
0.080574
0.0805365
0.0805008
0.080455
0.0804111
0.0803564
0.0803033
0.0802412
0.0801762
0.0801112
0.0800255
0.0799684
0.0798476
0.0798134
0.0796434
0.0819185
0.0819232
0.0819174
0.0819174
0.0819019
0.0818958
0.0818724
0.0818583
0.081829
0.0818052
0.0817699
0.0817377
0.0816947
0.0816549
0.0816037
0.0815553
0.0814975
0.0814381
0.0813774
0.0812982
0.0812467
0.0811351
0.0811032
0.0809471
0.0831225
0.0831276
0.0831216
0.0831232
0.0831078
0.0831041
0.0830813
0.0830702
0.0830417
0.0830219
0.0829877
0.0829604
0.0829187
0.0828848
0.0828356
0.0827932
0.0827388
0.0826854
0.0826299
0.0825569
0.0825094
0.082408
0.0823782
0.0822358
0.0843069
0.0843123
0.0843064
0.0843093
0.0842943
0.0842927
0.0842705
0.0842625
0.0842348
0.0842191
0.0841857
0.0841637
0.0841229
0.0840954
0.0840471
0.0840124
0.0839598
0.083913
0.0838615
0.0837963
0.0837521
0.0836607
0.0836331
0.0835041
0.0854682
0.0854737
0.0854688
0.0854716
0.0854587
0.0854569
0.085438
0.0854299
0.0854064
0.0853909
0.0853625
0.0853414
0.0853057
0.0852803
0.0852372
0.0852058
0.085158
0.0851173
0.0850691
0.0850107
0.0849705
0.0848892
0.0848634
0.0847475
0.0866037
0.0866094
0.086605
0.0866083
0.0865967
0.0865957
0.0865787
0.0865718
0.0865512
0.086537
0.0865125
0.0864926
0.0864622
0.086438
0.0864009
0.0863718
0.0863295
0.0862934
0.0862484
0.0861995
0.0861617
0.0860894
0.0860657
0.0859625
0.0877113
0.0877167
0.0877129
0.0877167
0.0877061
0.0877063
0.0876908
0.0876855
0.0876671
0.0876547
0.0876333
0.0876156
0.0875889
0.0875674
0.0875346
0.0875089
0.0874711
0.0874395
0.0873989
0.0873576
0.0873222
0.0872588
0.0872371
0.0871462
0.0887885
0.0887941
0.0887907
0.088795
0.0887853
0.0887865
0.0887725
0.0887687
0.0887523
0.0887419
0.0887231
0.0887078
0.0886845
0.0886658
0.088637
0.0886146
0.0885814
0.0885542
0.0885175
0.0884831
0.0884491
0.0883958
0.0883757
0.0882967
0.0898343
0.0898398
0.0898368
0.0898417
0.0898328
0.0898352
0.0898223
0.0898202
0.0898055
0.0897971
0.0897807
0.0897677
0.0897475
0.0897315
0.0897064
0.0896874
0.0896581
0.0896352
0.0896032
0.0895738
0.0895423
0.0894983
0.0894798
0.0894119
0.0908475
0.0908529
0.0908504
0.0908555
0.0908477
0.0908506
0.0908394
0.0908383
0.0908257
0.0908189
0.0908049
0.0907941
0.0907767
0.0907635
0.0907418
0.0907259
0.0907006
0.0906814
0.0906532
0.0906293
0.090601
0.0905649
0.0905481
0.0904907
0.0918272
0.0918327
0.0918302
0.0918364
0.0918283
0.0918332
0.0918221
0.0918232
0.0918116
0.0918069
0.0917948
0.0917863
0.0917715
0.0917607
0.0917422
0.0917293
0.0917075
0.0916921
0.0916678
0.0916482
0.0916237
0.0915953
0.0915797
0.0915317
0.092773
0.0927783
0.0927765
0.0927821
0.0927763
0.0927801
0.0927719
0.0927727
0.0927637
0.0927599
0.0927502
0.0927435
0.0927312
0.0927229
0.0927073
0.0926973
0.0926789
0.0926668
0.0926461
0.0926308
0.0926099
0.0925877
0.0925738
0.0925345
0.0936846
0.09369
0.0936876
0.0936953
0.0936875
0.0936951
0.0936849
0.0936894
0.0936798
0.0936788
0.0936702
0.0936657
0.0936556
0.0936495
0.0936367
0.0936293
0.093614
0.0936053
0.093588
0.0935768
0.0935591
0.0935424
0.0935298
0.0934991
0.0945619
0.0945668
0.094566
0.0945713
0.0945678
0.0945718
0.0945668
0.0945685
0.0945632
0.0945617
0.0945559
0.0945526
0.0945447
0.0945407
0.0945304
0.0945256
0.094513
0.0945074
0.094493
0.0944854
0.0944713
0.0944591
0.0944483
0.0944255
0.095405
0.0954104
0.0954079
0.0954169
0.0954091
0.0954193
0.0954094
0.0954172
0.095409
0.0954116
0.0954057
0.0954048
0.0953985
0.0953966
0.0953886
0.095386
0.0953762
0.095373
0.0953618
0.0953576
0.0953459
0.0953382
0.0953299
0.0953139
0.0962142
0.0962186
0.0962193
0.0962229
0.0962234
0.096225
0.0962251
0.0962256
0.0962249
0.0962243
0.0962223
0.0962217
0.0962177
0.0962173
0.0962116
0.0962112
0.0962036
0.0962034
0.0961944
0.0961933
0.0961845
0.0961807
0.0961742
0.0961648
0.0969899
0.0969954
0.0969923
0.0970033
0.0969941
0.097008
0.0969968
0.0970088
0.0970006
0.0970069
0.0970027
0.0970053
0.0970021
0.0970038
0.0969998
0.0970014
0.0969961
0.0969979
0.0969917
0.0969937
0.096987
0.0969871
0.0969829
0.0969786
0.0977329
0.0977363
0.0977391
0.0977399
0.0977455
0.0977429
0.0977496
0.0977468
0.0977517
0.0977507
0.0977526
0.0977538
0.0977533
0.0977559
0.0977539
0.0977572
0.097754
0.0977582
0.0977539
0.0977584
0.0977543
0.0977578
0.0977553
0.0977561
0.0984432
0.0984488
0.0984451
0.0984578
0.0984471
0.0984645
0.0984516
0.0984676
0.0984589
0.0984688
0.0984656
0.0984713
0.0984705
0.0984751
0.0984745
0.0984796
0.0984779
0.098484
0.0984819
0.098489
0.0984864
0.0984933
0.0984924
0.0984977
0.0991226
0.0991251
0.0991297
0.0991281
0.0991376
0.0991319
0.0991437
0.0991382
0.0991479
0.0991461
0.0991515
0.0991541
0.0991564
0.0991614
0.0991625
0.0991689
0.0991691
0.0991768
0.0991764
0.0991855
0.0991849
0.0991946
0.0991947
0.0992042
0.0997705
0.0997759
0.0997724
0.0997849
0.0997753
0.0997928
0.0997811
0.0997982
0.0997904
0.0998025
0.0998004
0.0998084
0.0998096
0.0998166
0.0998186
0.0998265
0.0998277
0.0998373
0.0998383
0.0998495
0.09985
0.0998626
0.0998638
0.0998768
0.10039
0.100391
0.100397
0.100395
0.100405
0.1004
0.100412
0.100408
0.100419
0.100418
0.100425
0.100429
0.100434
0.100441
0.100444
0.100453
0.100456
0.100466
0.100469
0.100482
0.100484
0.100498
0.1005
0.100517
0.100979
0.100983
0.100981
0.100991
0.100986
0.100999
0.100993
0.101007
0.101003
0.101014
0.101015
0.101024
0.101027
0.101035
0.10104
0.10105
0.101053
0.101065
0.101069
0.101083
0.101086
0.101103
0.101106
0.101125
0.101541
0.101543
0.101547
0.101547
0.101555
0.101554
0.101563
0.101562
0.101571
0.101574
0.101581
0.101587
0.101593
0.101601
0.101607
0.101617
0.101622
0.101635
0.10164
0.101655
0.101659
0.101678
0.101681
0.101703
0.102075
0.102079
0.102079
0.102086
0.102085
0.102094
0.102093
0.102103
0.102104
0.102113
0.102116
0.102125
0.10213
0.10214
0.102146
0.102157
0.102163
0.102177
0.102182
0.102199
0.102204
0.102224
0.102228
0.102251
0.102585
0.102587
0.10259
0.102591
0.102598
0.102599
0.102606
0.102609
0.102615
0.102622
0.102627
0.102636
0.102642
0.102652
0.102658
0.102671
0.102677
0.102692
0.102698
0.102716
0.102721
0.102743
0.102748
0.102772
0.103069
0.103072
0.103072
0.103078
0.103078
0.103086
0.103088
0.103095
0.103099
0.103107
0.103113
0.103121
0.103128
0.103139
0.103146
0.103159
0.103165
0.103181
0.103188
0.103207
0.103212
0.103235
0.10324
0.103267
0.103529
0.103531
0.103534
0.103535
0.103542
0.103543
0.10355
0.103554
0.10356
0.103568
0.103574
0.103583
0.10359
0.103601
0.103608
0.103622
0.103629
0.103646
0.103652
0.103672
0.103679
0.103703
0.103708
0.103736
0.103966
0.103969
0.10397
0.103975
0.103976
0.103983
0.103985
0.103993
0.103997
0.104006
0.104012
0.104021
0.104029
0.10404
0.104048
0.104062
0.104069
0.104086
0.104094
0.104114
0.104121
0.104146
0.104151
0.104181
0.104382
0.104383
0.104386
0.104388
0.104393
0.104396
0.104402
0.104407
0.104414
0.104421
0.104428
0.104438
0.104445
0.104457
0.104465
0.104479
0.104487
0.104505
0.104513
0.104534
0.104541
0.104566
0.104572
0.104603
0.104776
0.104778
0.10478
0.104783
0.104787
0.104791
0.104796
0.104802
0.104808
0.104816
0.104822
0.104833
0.10484
0.104852
0.104861
0.104875
0.104884
0.104901
0.10491
0.104931
0.104939
0.104965
0.104971
0.105002
0.105151
0.105152
0.105154
0.105158
0.10516
0.105166
0.105169
0.105177
0.105182
0.10519
0.105197
0.105207
0.105215
0.105227
0.105236
0.105251
0.105259
0.105277
0.105286
0.105308
0.105315
0.105342
0.105348
0.105381
0.105506
0.105507
0.10551
0.105511
0.105517
0.105519
0.105527
0.105531
0.105538
0.105545
0.105553
0.105563
0.105571
0.105583
0.105592
0.105607
0.105616
0.105634
0.105642
0.105665
0.105672
0.1057
0.105706
0.105739
0.105843
0.105845
0.105846
0.105851
0.105851
0.105859
0.10586
0.10587
0.105873
0.105883
0.105889
0.1059
0.105908
0.105921
0.105929
0.105944
0.105953
0.105972