/*--------------------------------*- C++ -*----------------------------------*\
  =========                 |
  \\      /  F ield         | OpenFOAM: The Open Source CFD Toolbox
   \\    /   O peration     | Website:  https://openfoam.org
    \\  /    A nd           | Version:  10
     \\/     M anipulation  |
\*---------------------------------------------------------------------------*/
FoamFile
{
    format      ascii;
    class       volScalarField;
    location    "0.24";
    object      T;
}
// * * * * * * * * * * * * * * * * * * * * * * * * * * * * * * * * * * * * * //

dimensions      [0 0 0 1 0 0 0];

internalField   nonuniform List<scalar> 
4176
(
180.347
180.351
180.372
180.382
180.426
180.445
180.506
180.538
180.613
180.66
180.749
180.809
180.913
180.985
181.1
181.191
181.307
181.43
181.534
181.702
181.777
182.011
182.024
182.326
180.356
180.36
180.382
180.392
180.436
180.456
180.518
180.552
180.628
180.677
180.767
180.829
180.935
181.009
181.127
181.221
181.339
181.465
181.571
181.743
181.818
182.062
182.078
182.411
180.384
180.388
180.409
180.42
180.462
180.482
180.542
180.576
180.649
180.698
180.785
180.846
180.95
181.022
181.138
181.228
181.346
181.468
181.572
181.739
181.811
182.05
182.065
182.409
180.436
180.44
180.461
180.471
180.514
180.534
180.594
180.627
180.7
180.749
180.837
180.897
181.001
181.073
181.19
181.28
181.399
181.523
181.621
181.794
181.863
182.098
182.111
182.44
180.511
180.515
180.536
180.546
180.588
180.607
180.667
180.699
180.772
180.82
180.907
180.966
181.07
181.14
181.257
181.344
181.465
181.586
181.682
181.857
181.925
182.156
182.17
182.488
180.61
180.614
180.635
180.645
180.686
180.706
180.765
180.797
180.869
180.917
181.002
181.062
181.164
181.234
181.35
181.436
181.558
181.674
181.776
181.945
182.015
182.244
182.261
182.579
180.733
180.737
180.757
180.767
180.809
180.828
180.886
180.918
180.989
181.036
181.12
181.18
181.28
181.349
181.464
181.548
181.671
181.782
181.889
182.051
182.124
182.349
182.368
182.685
180.88
180.884
180.904
180.914
180.955
180.973
181.031
181.062
181.133
181.179
181.263
181.321
181.421
181.489
181.603
181.685
181.808
181.915
182.024
182.181
182.255
182.477
182.498
182.81
181.05
181.055
181.075
181.084
181.125
181.143
181.2
181.231
181.3
181.346
181.428
181.486
181.584
181.651
181.764
181.845
181.967
182.07
182.18
182.332
182.409
182.626
182.649
182.956
181.245
181.249
181.269
181.278
181.318
181.336
181.392
181.423
181.491
181.536
181.618
181.674
181.771
181.837
181.948
182.027
182.148
182.249
182.36
182.506
182.584
182.798
182.821
183.123
181.463
181.467
181.487
181.495
181.535
181.553
181.609
181.638
181.706
181.75
181.83
181.886
181.981
182.046
182.156
182.233
182.353
182.45
182.561
182.703
182.783
182.99
183.015
183.311
181.705
181.709
181.729
181.737
181.776
181.793
181.848
181.877
181.944
181.987
182.066
182.12
182.214
182.278
182.386
182.461
182.58
182.674
182.786
182.922
183.004
183.203
183.23
183.521
181.971
181.975
181.994
182.002
182.041
182.057
182.112
182.14
182.205
182.248
182.325
182.378
182.471
182.533
182.639
182.712
182.829
182.92
183.032
183.163
183.245
183.441
183.467
183.752
182.26
182.264
182.283
182.291
182.329
182.345
182.398
182.426
182.49
182.532
182.608
182.66
182.75
182.811
182.916
182.986
183.102
183.189
183.301
183.427
183.51
183.698
183.725
184.005
182.573
182.577
182.596
182.603
182.641
182.656
182.709
182.735
182.798
182.839
182.913
182.964
183.053
183.112
183.215
183.283
183.397
183.481
183.592
183.713
183.796
183.979
184.006
184.279
182.91
182.914
182.932
182.939
182.977
182.991
183.043
183.068
183.13
183.169
183.242
183.291
183.379
183.435
183.537
183.602
183.714
183.796
183.906
184.022
184.105
184.281
184.308
184.575
183.27
183.274
183.292
183.299
183.336
183.349
183.4
183.424
183.485
183.523
183.594
183.642
183.727
183.782
183.881
183.945
184.055
184.133
184.241
184.352
184.435
184.605
184.633
184.892
183.655
183.658
183.676
183.682
183.719
183.731
183.781
183.804
183.864
183.9
183.97
184.016
184.099
184.152
184.249
184.309
184.417
184.492
184.599
184.705
184.788
184.951
184.979
185.231
184.063
184.066
184.084
184.089
184.125
184.137
184.186
184.208
184.266
184.301
184.369
184.412
184.494
184.544
184.639
184.697
184.802
184.874
184.979
185.08
185.162
185.319
185.347
185.592
184.494
184.498
184.515
184.52
184.555
184.566
184.614
184.635
184.691
184.724
184.79
184.832
184.911
184.96
185.052
185.107
185.21
185.279
185.382
185.477
185.559
185.709
185.737
185.975
184.95
184.953
184.97
184.975
185.009
185.019
185.065
185.085
185.14
185.171
185.235
185.275
185.352
185.398
185.487
185.54
185.64
185.705
185.806
185.896
185.977
186.121
186.149
186.379
185.429
185.432
185.449
185.453
185.486
185.495
185.54
185.558
185.612
185.642
185.704
185.741
185.816
185.859
185.946
185.995
186.093
186.154
186.252
186.337
186.418
186.554
186.582
186.805
185.932
185.935
185.951
185.954
185.987
185.995
186.039
186.055
186.107
186.135
186.195
186.23
186.302
186.343
186.427
186.474
186.568
186.626
186.721
186.801
186.88
187.01
187.038
187.251
186.458
186.461
186.477
186.479
186.511
186.518
186.561
186.575
186.625
186.652
186.709
186.743
186.812
186.85
186.931
186.974
187.066
187.119
187.212
187.287
187.364
187.487
187.515
187.72
187.007
187.01
187.026
187.028
187.058
187.064
187.106
187.119
187.167
187.191
187.247
187.277
187.344
187.38
187.458
187.498
187.586
187.636
187.725
187.795
187.871
187.986
188.014
188.209
187.58
187.583
187.598
187.599
187.629
187.634
187.674
187.685
187.732
187.754
187.807
187.835
187.899
187.932
188.007
188.044
188.128
188.175
188.261
188.326
188.399
188.508
188.534
188.721
188.176
188.179
188.193
188.194
188.223
188.226
188.265
188.275
188.319
188.339
188.39
188.416
188.477
188.507
188.579
188.612
188.694
188.736
188.819
188.879
188.95
189.051
189.076
189.255
188.795
188.798
188.812
188.812
188.84
188.842
188.879
188.887
188.93
188.948
188.996
189.019
189.078
189.104
189.173
189.203
189.281
189.319
189.399
189.454
189.522
189.617
189.64
189.812
189.437
189.439
189.453
189.452
189.479
189.48
189.516
189.523
189.563
189.579
189.625
189.645
189.701
189.725
189.79
189.816
189.891
189.925
190.001
190.052
190.116
190.204
190.225
190.39
190.102
190.104
190.117
190.115
190.141
190.141
190.176
190.181
190.219
190.233
190.276
190.294
190.347
190.367
190.429
190.452
190.523
190.554
190.625
190.672
190.732
190.813
190.833
190.989
190.789
190.791
190.803
190.801
190.826
190.825
190.858
190.861
190.898
190.909
190.95
190.965
191.015
191.032
191.091
191.11
191.178
191.204
191.272
191.313
191.371
191.444
191.464
191.609
191.498
191.5
191.512
191.509
191.533
191.531
191.562
191.564
191.598
191.608
191.646
191.659
191.706
191.72
191.775
191.791
191.855
191.877
191.94
191.977
192.031
192.098
192.115
192.252
192.229
192.231
192.243
192.239
192.262
192.258
192.288
192.288
192.321
192.328
192.365
192.375
192.419
192.43
192.482
192.494
192.554
192.572
192.631
192.663
192.713
192.774
192.79
192.917
192.982
192.984
192.995
192.991
193.013
193.008
193.037
193.035
193.066
193.071
193.105
193.112
193.153
193.161
193.21
193.219
193.275
193.289
193.344
193.371
193.417
193.472
193.486
193.604
193.757
193.759
193.769
193.765
193.786
193.78
193.807
193.803
193.832
193.835
193.867
193.872
193.91
193.915
193.961
193.965
194.018
194.028
194.079
194.102
194.144
194.192
194.204
194.313
194.553
194.555
194.565
194.56
194.58
194.573
194.599
194.594
194.621
194.622
194.651
194.653
194.689
194.69
194.733
194.734
194.784
194.789
194.836
194.854
194.892
194.934
194.944
195.043
195.371
195.372
195.382
195.376
195.395
195.387
195.412
195.405
195.43
195.429
195.456
195.456
195.489
195.487
195.527
195.524
195.57
195.571
195.615
195.628
195.663
195.698
195.705
195.795
196.209
196.211
196.22
196.214
196.232
196.223
196.246
196.238
196.261
196.258
196.283
196.28
196.31
196.306
196.342
196.335
196.379
196.375
196.416
196.424
196.455
196.485
196.488
196.569
197.069
197.07
197.079
197.072
197.089
197.079
197.101
197.091
197.113
197.108
197.13
197.125
197.153
197.145
197.179
197.168
197.208
197.201
197.238
197.241
197.269
197.292
197.293
197.365
197.949
197.95
197.958
197.951
197.967
197.956
197.977
197.966
197.986
197.979
197.999
197.991
198.016
198.006
198.036
198.022
198.059
198.047
198.081
198.079
198.103
198.122
198.119
198.182
198.849
198.85
198.858
198.85
198.866
198.854
198.873
198.861
198.879
198.87
198.888
198.878
198.901
198.887
198.915
198.898
198.931
198.914
198.945
198.938
198.959
198.971
198.965
199.021
199.77
199.77
199.778
199.77
199.785
199.772
199.79
199.776
199.793
199.782
199.798
199.785
199.806
199.789
199.814
199.793
199.824
199.803
199.831
199.818
199.835
199.841
199.833
199.881
200.711
200.711
200.719
200.71
200.724
200.71
200.726
200.711
200.726
200.714
200.728
200.713
200.731
200.712
200.734
200.71
200.737
200.712
200.737
200.719
200.733
200.732
200.722
200.762
201.671
201.672
201.679
201.669
201.683
201.668
201.683
201.667
201.68
201.666
201.677
201.66
201.676
201.654
201.674
201.646
201.671
201.641
201.663
201.64
201.652
201.644
201.632
201.663
202.651
202.652
202.659
202.648
202.661
202.645
202.659
202.641
202.653
202.637
202.647
202.628
202.64
202.616
202.633
202.602
202.624
202.591
202.61
202.581
202.591
202.576
202.563
202.585
203.651
203.651
203.658
203.647
203.659
203.642
203.655
203.636
203.646
203.628
203.636
203.614
203.625
203.597
203.612
203.578
203.597
203.559
203.576
203.541
203.55
203.529
203.513
203.528
204.669
204.67
204.676
204.665
204.676
204.658
204.67
204.649
204.657
204.638
204.644
204.62
204.628
204.598
204.61
204.572
204.589
204.547
204.562
204.521
204.53
204.501
204.484
204.49
205.707
205.707
205.712
205.701
205.711
205.692
205.703
205.681
205.688
205.667
205.67
205.645
205.65
205.618
205.628
205.586
205.6
205.554
205.567
205.52
205.527
205.492
205.475
205.471
206.762
206.762
206.767
206.755
206.765
206.745
206.755
206.731
206.737
206.714
206.715
206.688
206.691
206.656
206.664
206.618
206.63
206.579
206.591
206.539
206.544
206.5
206.485
206.472
207.835
207.835
207.84
207.827
207.836
207.816
207.824
207.8
207.803
207.779
207.779
207.749
207.75
207.712
207.718
207.669
207.679
207.623
207.634
207.575
207.579
207.528
207.514
207.491
208.925
208.925
208.93
208.917
208.925
208.904
208.911
208.885
208.887
208.861
208.859
208.827
208.827
208.786
208.79
208.737
208.745
208.685
208.694
208.63
208.634
208.575
208.56
208.53
210.033
210.032
210.037
210.023
210.031
210.008
210.015
209.988
209.988
209.961
209.957
209.923
209.921
209.876
209.879
209.823
209.83
209.765
209.773
209.702
209.707
209.64
209.624
209.586
211.156
211.155
211.16
211.145
211.152
211.129
211.134
211.106
211.106
211.077
211.071
211.035
211.032
210.984
210.986
210.925
210.932
210.861
210.869
210.79
210.797
210.722
210.707
210.661
212.294
212.294
212.298
212.283
212.29
212.266
212.27
212.241
212.239
212.208
212.202
212.163
212.159
212.108
212.108
212.043
212.051
211.973
211.983
211.898
211.902
211.823
211.806
211.753
213.448
213.447
213.451
213.436
213.442
213.417
213.421
213.391
213.388
213.355
213.348
213.307
213.301
213.247
213.247
213.177
213.186
213.101
213.112
213.022
213.025
212.94
212.922
212.863
214.615
214.615
214.618
214.603
214.608
214.583
214.586
214.554
214.551
214.516
214.508
214.465
214.46
214.402
214.402
214.327
214.336
214.248
214.256
214.162
214.164
214.075
214.055
213.989
215.796
215.795
215.799
215.783
215.788
215.762
215.764
215.732
215.728
215.691
215.684
215.636
215.632
215.57
215.571
215.493
215.5
215.409
215.416
215.318
215.318
215.225
215.204
215.132
216.989
216.989
216.992
216.976
216.98
216.955
216.955
216.922
216.918
216.879
216.872
216.822
216.818
216.753
216.753
216.673
216.678
216.585
216.59
216.489
216.487
216.39
216.369
216.29
218.194
218.194
218.197
218.181
218.185
218.159
218.159
218.125
218.121
218.08
218.073
218.021
218.016
217.95
217.948
217.867
217.87
217.775
217.778
217.675
217.671
217.57
217.548
217.464
219.411
219.411
219.413
219.398
219.4
219.375
219.374
219.34
219.335
219.294
219.285
219.233
219.227
219.159
219.156
219.074
219.074
218.979
218.98
218.874
218.869
218.765
218.742
218.653
220.638
220.638
220.64
220.624
220.627
220.601
220.599
220.567
220.558
220.519
220.508
220.456
220.448
220.38
220.376
220.293
220.292
220.195
220.194
220.087
220.08
219.973
219.949
219.855
221.875
221.875
221.877
221.861
221.864
221.837
221.835
221.803
221.793
221.755
221.742
221.691
221.681
221.613
221.607
221.523
221.521
221.423
221.42
221.311
221.304
221.194
221.169
221.071
223.121
223.121
223.123
223.107
223.11
223.083
223.081
223.049
223.038
223.001
222.986
222.935
222.923
222.856
222.848
222.765
222.761
222.661
222.658
222.548
222.538
222.426
222.401
222.299
224.376
224.376
224.379
224.362
224.365
224.338
224.336
224.304
224.292
224.256
224.238
224.19
224.176
224.109
224.099
224.016
224.011
223.91
223.906
223.794
223.784
223.67
223.644
223.538
225.64
225.64
225.643
225.626
225.629
225.602
225.6
225.567
225.555
225.52
225.501
225.453
225.438
225.371
225.36
225.277
225.27
225.169
225.163
225.051
225.039
224.923
224.897
224.788
226.912
226.912
226.915
226.898
226.901
226.874
226.872
226.839
226.827
226.792
226.772
226.724
226.707
226.641
226.629
226.546
226.538
226.436
226.429
226.316
226.304
226.186
226.16
226.048
228.192
228.193
228.195
228.179
228.182
228.154
228.152
228.119
228.106
228.071
228.05
228.003
227.985
227.919
227.906
227.821
227.813
227.712
227.703
227.59
227.576
227.457
227.431
227.316
229.481
229.481
229.484
229.467
229.47
229.442
229.439
229.406
229.393
229.358
229.335
229.289
229.269
229.204
229.19
229.104
229.094
228.993
228.984
228.869
228.856
228.735
228.709
228.592
230.776
230.776
230.779
230.762
230.765
230.737
230.734
230.7
230.686
230.651
230.627
230.581
230.559
230.495
230.48
230.392
230.383
230.282
230.27
230.156
230.142
230.02
229.993
229.875
232.078
232.079
232.081
232.064
232.066
232.038
232.034
232
231.985
231.949
231.924
231.879
231.855
231.791
231.774
231.687
231.676
231.574
231.563
231.449
231.433
231.311
231.284
231.164
233.386
233.386
233.388
233.371
233.373
233.344
233.339
233.305
233.288
233.253
233.225
233.181
233.154
233.092
233.072
232.987
232.975
232.871
232.859
232.746
232.729
232.607
232.58
232.458
234.697
234.697
234.699
234.681
234.683
234.653
234.648
234.613
234.596
234.559
234.531
234.487
234.457
234.397
234.374
234.291
234.277
234.172
234.161
234.048
234.031
233.909
233.881
233.759
236.008
236.008
236.01
235.992
235.993
235.963
235.958
235.922
235.905
235.868
235.839
235.796
235.764
235.705
235.68
235.598
235.581
235.479
235.467
235.353
235.336
235.214
235.188
235.065
237.316
237.316
237.319
237.3
237.302
237.272
237.267
237.231
237.214
237.178
237.148
237.106
237.073
237.016
236.987
236.91
236.888
236.791
236.777
236.663
236.646
236.526
236.499
236.376
238.619
238.619
238.622
238.604
238.607
238.577
238.573
238.538
238.522
238.486
238.458
238.416
238.383
238.328
238.298
238.224
238.201
238.106
238.092
237.977
237.961
237.841
237.816
237.693
239.913
239.914
239.918
239.9
239.904
239.876
239.874
239.841
239.826
239.793
239.766
239.726
239.695
239.642
239.613
239.542
239.517
239.425
239.409
239.298
239.282
239.163
239.138
239.016
241.2
241.2
241.205
241.189
241.195
241.168
241.168
241.138
241.126
241.095
241.071
241.035
241.006
240.957
240.929
240.862
240.837
240.75
240.731
240.625
240.608
240.49
240.467
240.345
242.481
242.482
242.488
242.472
242.48
242.456
242.458
242.43
242.422
242.394
242.374
242.342
242.316
242.271
242.246
242.184
242.16
242.078
242.062
241.957
241.942
241.824
241.802
241.679
243.762
243.764
243.77
243.756
243.765
243.743
243.747
243.722
243.716
243.692
243.674
243.647
243.624
243.584
243.563
243.505
243.486
243.408
243.395
243.294
243.282
243.165
243.146
243.022
245.053
245.055
245.061
245.049
245.058
245.037
245.042
245.02
245.014
244.994
244.978
244.953
244.933
244.897
244.881
244.823
244.814
244.733
244.732
244.63
244.627
244.512
244.496
244.375
246.364
246.367
246.373
246.36
246.369
246.348
246.353
246.331
246.325
246.306
246.289
246.267
246.247
246.213
246.199
246.142
246.141
246.058
246.065
245.963
245.968
245.857
245.848
245.735
247.708
247.71
247.716
247.702
247.711
247.687
247.692
247.666
247.66
247.637
247.62
247.595
247.573
247.54
247.522
247.47
247.465
247.387
247.393
247.293
247.303
247.193
247.19
247.083
249.094
249.095
249.101
249.085
249.092
249.065
249.067
249.037
249.028
249
248.979
248.949
248.923
248.886
248.862
248.81
248.795
248.721
248.722
248.622
248.633
248.52
248.522
248.414
250.528
250.53
250.534
250.516
250.52
250.491
250.488
250.454
250.438
250.405
250.377
250.341
250.307
250.263
250.229
250.172
250.148
250.067
250.065
249.956
249.967
249.845
249.85
249.734
252.013
252.015
252.017
251.998
251.999
251.967
251.959
251.921
251.899
251.861
251.823
251.781
251.735
251.684
251.638
251.571
251.535
251.444
251.429
251.308
251.313
251.178
251.183
251.053
253.545
253.547
253.549
253.528
253.527
253.492
253.481
253.438
253.411
253.367
253.322
253.272
253.218
253.156
253.098
253.022
252.969
252.864
252.835
252.698
252.69
252.534
252.533
252.381
255.118
255.12
255.121
255.098
255.097
255.059
255.046
255
254.97
254.92
254.872
254.815
254.754
254.685
254.617
254.532
254.46
254.352
254.295
254.149
254.116
253.937
253.923
253.735
256.721
256.722
256.723
256.7
256.698
256.659
256.646
256.597
256.566
256.514
256.463
256.403
256.338
256.264
256.19
256.1
256.017
255.906
255.823
255.68
255.612
255.422
255.382
255.148
258.341
258.342
258.344
258.321
258.319
258.28
258.267
258.218
258.187
258.135
258.083
258.022
257.957
257.882
257.806
257.715
257.627
257.517
257.422
257.283
257.191
257.006
256.938
256.669
259.968
259.969
259.971
259.948
259.947
259.909
259.897
259.849
259.819
259.768
259.718
259.659
259.595
259.522
259.447
259.359
259.272
259.164
259.071
258.936
258.844
258.663
258.592
258.326
261.589
261.59
261.593
261.571
261.571
261.534
261.523
261.478
261.449
261.401
261.353
261.298
261.236
261.168
261.096
261.012
260.929
260.828
260.74
260.61
260.528
260.353
260.294
260.052
263.195
263.197
263.201
263.179
263.181
263.145
263.136
263.093
263.067
263.022
262.977
262.925
262.867
262.804
262.736
262.66
262.581
262.487
262.404
262.285
262.21
262.047
261.992
261.77
264.779
264.781
264.785
264.765
264.767
264.733
264.726
264.686
264.662
264.621
264.579
264.533
264.478
264.421
264.357
264.287
264.214
264.128
264.052
263.942
263.872
263.724
263.673
263.47
266.332
266.335
266.339
266.32
266.324
266.292
266.287
266.25
266.228
266.192
266.152
266.111
266.059
266.009
265.949
265.887
265.818
265.742
265.67
265.57
265.507
265.372
265.325
265.141
267.851
267.854
267.859
267.841
267.846
267.817
267.812
267.779
267.758
267.727
267.689
267.655
267.605
267.563
267.505
267.452
267.387
267.32
267.255
267.162
267.105
266.984
266.94
266.774
269.331
269.334
269.339
269.323
269.328
269.301
269.299
269.268
269.25
269.222
269.187
269.158
269.112
269.076
269.021
268.977
268.915
268.857
268.795
268.716
268.662
268.554
268.514
268.365
270.768
270.771
270.777
270.761
270.769
270.742
270.744
270.714
270.7
270.674
270.644
270.617
270.576
270.544
270.495
270.456
270.4
270.35
270.293
270.224
270.173
270.08
270.041
269.909
272.161
272.164
272.171
272.155
272.165
272.139
272.143
272.115
272.105
272.08
272.055
272.03
271.995
271.966
271.923
271.888
271.838
271.796
271.741
271.685
271.636
271.556
271.519
271.404
273.508
273.511
273.519
273.503
273.515
273.49
273.496
273.469
273.462
273.44
273.418
273.397
273.366
273.34
273.303
273.273
273.228
273.192
273.143
273.095
273.049
272.981
272.948
272.847
274.808
274.811
274.819
274.804
274.817
274.793
274.801
274.776
274.772
274.752
274.734
274.715
274.688
274.666
274.633
274.608
274.568
274.538
274.492
274.455
274.411
274.356
274.323
274.237
276.06
276.063
276.072
276.057
276.071
276.048
276.058
276.035
276.033
276.015
276
275.984
275.961
275.943
275.914
275.893
275.857
275.833
275.793
275.762
275.721
275.678
275.646
275.574
277.264
277.267
277.276
277.262
277.277
277.256
277.266
277.245
277.245
277.23
277.217
277.204
277.184
277.17
277.144
277.128
277.096
277.077
277.041
277.018
276.979
276.946
276.916
276.857
278.42
278.423
278.433
278.418
278.436
278.413
278.428
278.406
278.409
278.395
278.385
278.375
278.358
278.347
278.325
278.312
278.285
278.271
278.238
278.221
278.186
278.163
278.134
278.087
279.529
279.531
279.541
279.53
279.542
279.528
279.537
279.522
279.523
279.514
279.505
279.497
279.483
279.475
279.456
279.447
279.423
279.413
279.385
279.373
279.342
279.326
279.299
279.263
280.59
280.593
280.604
280.59
280.609
280.587
280.606
280.585
280.593
280.582
280.577
280.571
280.56
280.554
280.538
280.533
280.512
280.506
280.482
280.475
280.447
280.438
280.412
280.387
281.607
281.609
281.619
281.609
281.622
281.61
281.62
281.609
281.612
281.607
281.601
281.598
281.589
281.586
281.572
281.57
281.553
281.551
281.529
281.527
281.503
281.499
281.475
281.46
282.577
282.58
282.588
282.581
282.593
282.582
282.594
282.582
282.588
282.583
282.581
282.579
282.572
282.571
282.56
282.561
282.546
282.547
282.529
282.531
282.509
282.511
282.49
282.482
283.505
283.505
283.517
283.505
283.524
283.507
283.524
283.512
283.52
283.515
283.515
283.515
283.509
283.511
283.502
283.505
283.493
283.498
283.482
283.487
283.469
283.475
283.456
283.456
284.387
284.392
284.395
284.397
284.398
284.402
284.402
284.404
284.403
284.407
284.404
284.407
284.403
284.407
284.4
284.405
284.396
284.403
284.389
284.399
284.382
284.393
284.376
284.382
285.231
285.231
285.244
285.229
285.254
285.231
285.258
285.24
285.256
285.249
285.254
285.255
285.254
285.259
285.254
285.262
285.254
285.264
285.253
285.265
285.252
285.266
285.251
285.262
286.031
286.037
286.036
286.046
286.038
286.054
286.042
286.059
286.049
286.062
286.057
286.066
286.063
286.071
286.067
286.077
286.071
286.083
286.074
286.089
286.077
286.095
286.082
286.098
286.796
286.795
286.809
286.795
286.82
286.798
286.827
286.807
286.828
286.82
286.83
286.831
286.834
286.841
286.84
286.85
286.847
286.861
286.854
286.871
286.861
286.882
286.87
286.891
287.52
287.526
287.524
287.535
287.527
287.545
287.532
287.553
287.541
287.559
287.553
287.565
287.564
287.575
287.574
287.586
287.584
287.6
287.594
287.614
287.605
287.629
287.618
287.642
288.212
288.211
288.222
288.214
288.231
288.219
288.24
288.228
288.246
288.241
288.253
288.256
288.261
288.27
288.271
288.284
288.284
288.301
288.296
288.318
288.311
288.336
288.327
288.355
288.865
288.871
288.87
288.878
288.875
288.887
288.882
288.897
288.892
288.907
288.905
288.917
288.919
288.931
288.932
288.947
288.947
288.965
288.963
288.986
288.98
289.007
288.999
289.03
289.489
289.49
289.497
289.494
289.504
289.502
289.513
289.512
289.522
289.525
289.533
289.54
289.545
289.557
289.56
289.575
289.577
289.596
289.594
289.619
289.614
289.642
289.633
289.67
290.078
290.083
290.082
290.09
290.089
290.099
290.098
290.108
290.11
290.12
290.124
290.134
290.139
290.152
290.155
290.171
290.173
290.193
290.193
290.219
290.214
290.244
290.236
290.275
290.64
290.64
290.647
290.645
290.655
290.653
290.663
290.666
290.673
290.681
290.686
290.696
290.701
290.715
290.718
290.735
290.739
290.76
290.759
290.787
290.783
290.815
290.808
290.846
291.17
291.174
291.173
291.182
291.179
291.191
291.19
291.2
291.204
291.213
291.219
291.229
291.235
291.249
291.253
291.27
291.274
291.296
291.297
291.324
291.322
291.355
291.348
291.388
291.674
291.676
291.681
291.68
291.69
291.688
291.699
291.701
291.709
291.717
291.723
291.734
291.74
291.755
291.76
291.777
291.782
291.804
291.805
291.834
291.831
291.866
291.859
291.901
292.152
292.155
292.156
292.162
292.162
292.171
292.172
292.182
292.185
292.196
292.201
292.213
292.219
292.234
292.239
292.257
292.263
292.285
292.287
292.316
292.314
292.35
292.343
292.385
292.605
292.607
292.609
292.613
292.616
292.622
292.627
292.633
292.64
292.648
292.655
292.666
292.673
292.687
292.694
292.712
292.718
292.74
292.743
292.772
292.77
292.807
292.8
292.845
293.034
293.035
293.039
293.039
293.048
293.048
293.057
293.061
293.068
293.078
293.084
293.096
293.103
293.117
293.124
293.142
293.148
293.171
293.174
293.204
293.203
293.239
293.234
293.277
293.44
293.443
293.442
293.451
293.447
293.461
293.458
293.471
293.473
293.485
293.49
293.502
293.509
293.524
293.531
293.549
293.556
293.579
293.583
293.612
293.612
293.647
293.642
293.688
293.825
293.826
293.831
293.829
293.841
293.836
293.851
293.849
293.862
293.866
293.877
293.886
293.895
293.909
293.917
293.935
293.941
293.964
293.968
293.998
293.999
294.033
294.03
294.074
294.189
294.192
294.191
294.201
294.195
294.211
294.204
294.223
294.219
294.236
294.238
294.253
294.258
294.274
294.281
294.3
294.306
294.329
294.334
294.363
294.364
294.399
294.394
294.439
294.535
294.535
294.541
294.537
294.551
294.544
294.562
294.556
294.573
294.574
294.586
294.595
294.604
294.618
294.627
294.645
294.651
294.674
294.679
294.708
294.71
294.744
294.741
294.783
294.861
294.865
294.861
294.874
294.865
294.885
294.874
294.896
294.89
294.908
294.909
294.924
294.93
294.945
294.953
294.971
294.977
295.001
295.005
295.035
295.035
295.071
295.065
295.111
295.172
295.17
295.179
295.17
295.19
295.176
295.2
295.19
295.21
295.21
295.222
295.231
295.24
295.254
295.262
295.28
295.286
295.31
295.314
295.343
295.344
295.38
295.376
295.418
295.464
295.469
295.461
295.48
295.463
295.491
295.473
295.5
295.49
295.51
295.51
295.526
295.531
295.546
295.554
295.573
295.579
295.602
295.606
295.635
295.637
295.672
295.667
295.711
295.743
295.74
295.751
295.739
295.763
295.744
295.772
295.758
295.781
295.778
295.792
295.8
295.809
295.823
295.831
295.849
295.855
295.878
295.883
295.911
295.914
295.947
295.944
295.986
296.004
296.009
296.002
296.019
296.003
296.03
296.012
296.04
296.029
296.05
296.049
296.065
296.07
296.085
296.093
296.111
296.117
296.139
296.145
296.172
296.176
296.208
296.205
296.246
296.254
296.252
296.261
296.252
296.271
296.257
296.281
296.27
296.291
296.289
296.302
296.31
296.319
296.332
296.341
296.358
296.365
296.388
296.392
296.419
296.421
296.456
296.452
296.492
296.488
296.493
296.487
296.501
296.489
296.511
296.498
296.521
296.514
296.532
296.533
296.547
296.553
296.567
296.575
296.593
296.599
296.621
296.627
296.652
296.653
296.691
296.686
296.726
296.713
296.711
296.718
296.711
296.727
296.718
296.736
296.73
296.745
296.748
296.758
296.768
296.775
296.789
296.797
296.814
296.82
296.843
296.847
296.873
296.876
296.91
296.907
296.945
296.922
296.926
296.921
296.934
296.924
296.942
296.934
296.952
296.948
296.963
296.966
296.979
296.985
296.999
297.007
297.024
297.03
297.051
297.056
297.083
297.086
297.116
297.115
297.154
297.123
297.122
297.127
297.124
297.134
297.131
297.143
297.143
297.153
297.158
297.167
297.177
297.184
297.198
297.206
297.222
297.228
297.25
297.254
297.28
297.282
297.315
297.312
297.35
297.311
297.313
297.312
297.319
297.316
297.327
297.325
297.337
297.338
297.35
297.353
297.366
297.372
297.386
297.393
297.409
297.415
297.437
297.441
297.467
297.469
297.5
297.499
297.536
297.49
297.491
297.493
297.494
297.498
297.502
297.507
297.512
297.518
297.526
297.532
297.544
297.549
297.563
297.57
297.587
297.592
297.614
297.619
297.642
297.645
297.677
297.674
297.711
297.659
297.661
297.661
297.665
297.666
297.672
297.674
297.682
297.686
297.695
297.7
297.712
297.718
297.731
297.738
297.755
297.76
297.781
297.783
297.812
297.813
297.841
297.842
297.876
297.819
297.82
297.822
297.823
297.827
297.83
297.835
297.841
297.846
297.854
297.86
297.871
297.876
297.891
297.896
297.913
297.918
297.94
297.943
297.968
297.968
298.001
297.998
298.033
297.97
297.972
297.972
297.976
297.977
297.983
297.984
297.993
297.996
298.006
298.01
298.022
298.027
298.041
298.047
298.063
298.069
298.089
298.092
298.117
298.12
298.147
298.148
298.18
298.114
298.114
298.116
298.118
298.121
298.124
298.129
298.134
298.14
298.147
298.153
298.164
298.169
298.183
298.188
298.205
298.209
298.231
298.233
298.258
298.259
298.289
298.287
298.321
298.249
298.249
298.251
298.253
298.256
298.26
298.263
298.27
298.274
298.283
298.287
298.299
298.303
298.317
298.321
298.339
298.343
298.365
298.366
298.391
298.392
298.421
298.42
298.452
298.377
298.377
298.378
298.381
298.382
298.388
298.39
298.398
298.401
298.41
298.414
298.426
298.43
298.444
298.448
298.466
298.469
298.489
298.491
298.518
298.518
298.546
298.544
298.577
298.497
298.497
298.5
298.5
298.505
298.506
298.513
298.516
298.523
298.529
298.535
298.545
298.549
298.564
298.568
298.585
298.588
298.61
298.612
298.634
298.636
298.664
298.663
298.693
298.611
298.612
298.612
298.618
298.614
298.625
298.622
298.634
298.633
298.645
298.647
298.66
298.662
298.677
298.68
298.698
298.701
298.72
298.722
298.748
298.748
298.775
298.774
298.805
298.719
298.718
298.723
298.719
298.729
298.725
298.736
298.735
298.744
298.749
298.755
298.766
298.769
298.783
298.787
298.804
298.806
298.828
298.829
298.852
298.854
298.88
298.88
298.909
298.82
298.822
298.819
298.828
298.821
298.835
298.828
298.844
298.84
298.853
298.854
298.867
298.869
298.885
298.887
298.904
298.908
298.926
298.929
298.952
298.952
298.979
298.978
299.008
298.916
298.915
298.92
298.915
298.926
298.921
298.933
298.931
298.941
298.945
298.951
298.961
298.965
298.979
298.981
298.998
299.001
299.022
299.023
299.046
299.046
299.073
299.072
299.1
299.005
299.007
299.005
299.013
299.007
299.02
299.014
299.028
299.025
299.038
299.039
299.051
299.053
299.069
299.07
299.087
299.09
299.109
299.111
299.134
299.134
299.16
299.159
299.188
299.09
299.09
299.094
299.091
299.1
299.096
299.106
299.106
299.114
299.119
299.124
299.134
299.138
299.152
299.154
299.17
299.174
299.193
299.195
299.217
299.216
299.244
299.241
299.269
299.169
299.171
299.17
299.175
299.174
299.181
299.18
299.19
299.19
299.2
299.202
299.214
299.216
299.231
299.233
299.249
299.252
299.271
299.272
299.295
299.295
299.32
299.319
299.346
299.244
299.244
299.246
299.248
299.25
299.254
299.257
299.262
299.265
299.274
299.277
299.288
299.291
299.304
299.306
299.323
299.325
299.344
299.346
299.367
299.367
299.394
299.39
299.419
299.314
299.314
299.317
299.316
299.322
299.321
299.329
299.33
299.337
299.342
299.347
299.357
299.36
299.373
299.376
299.392
299.394
299.412
299.414
299.435
299.436
299.46
299.46
299.485
299.379