/*--------------------------------*- C++ -*----------------------------------*\
  =========                 |
  \\      /  F ield         | OpenFOAM: The Open Source CFD Toolbox
   \\    /   O peration     | Website:  https://openfoam.org
    \\  /    A nd           | Version:  10
     \\/     M anipulation  |
\*---------------------------------------------------------------------------*/
FoamFile
{
    format      ascii;
    class       volVectorField;
    location    "0.24";
    object      U;
}
// * * * * * * * * * * * * * * * * * * * * * * * * * * * * * * * * * * * * * //

dimensions      [0 1 -1 0 0 0 0];

internalField   nonuniform List<vector> 
4176
(
(497.487 -0.0143526 -4.08038e-09)
(497.473 0.0640169 1.30165e-09)
(497.448 0.000970973 -3.864e-10)
(497.399 0.0908239 7.01732e-11)
(497.345 0.0504616 9.72115e-11)
(497.27 0.090143 -3.70089e-10)
(497.179 0.125273 -4.73125e-10)
(497.087 0.0612611 -5.7873e-11)
(496.953 0.22458 2.64743e-10)
(496.847 0.00564137 3.53737e-10)
(496.671 0.343554 2.79102e-10)
(496.548 -0.0682479 3.7219e-10)
(496.337 0.468905 2.94285e-10)
(496.19 -0.138512 -4.43587e-11)
(495.955 0.566901 -2.55825e-10)
(495.772 -0.13464 -2.26379e-10)
(495.535 0.527492 -2.59893e-10)
(495.285 0.0246476 -9.38471e-11)
(495.071 0.333876 2.745e-10)
(494.728 0.324089 2.13329e-10)
(494.574 -0.0178718 -8.49877e-11)
(494.096 0.772667 -1.65695e-10)
(494.066 -0.517435 3.45762e-11)
(493.442 1.44353 1.20158e-10)
(497.469 0.00472522 -4.07962e-09)
(497.454 0.114842 1.30217e-09)
(497.429 0.0760297 -3.86601e-10)
(497.378 0.203736 6.95419e-11)
(497.324 0.185721 9.73072e-11)
(497.246 0.264867 -3.69952e-10)
(497.155 0.32118 -4.74089e-10)
(497.058 0.296357 -5.78995e-11)
(496.923 0.48154 2.65373e-10)
(496.813 0.298765 3.54005e-10)
(496.634 0.662061 2.78846e-10)
(496.507 0.279564 3.72312e-10)
(496.292 0.849467 2.92762e-10)
(496.14 0.259353 -4.42884e-11)
(495.9 1.01159 -2.55736e-10)
(495.712 0.303046 -2.26001e-10)
(495.468 1.04127 -2.61138e-10)
(495.214 0.511694 -9.39221e-11)
(494.994 0.913409 2.73551e-10)
(494.645 0.856239 2.12924e-10)
(494.49 0.627415 -8.49752e-11)
(493.991 1.33195 -1.68063e-10)
(493.955 0.124252 3.53305e-11)
(493.268 1.99361 1.1972e-10)
(497.412 0.0230778 -4.08306e-09)
(497.398 0.1615 1.30149e-09)
(497.374 0.147216 -3.88593e-10)
(497.323 0.308079 7.06428e-11)
(497.271 0.31333 9.70318e-11)
(497.194 0.427057 -3.70947e-10)
(497.106 0.505304 -4.71765e-10)
(497.01 0.515593 -5.62755e-11)
(496.88 0.72226 2.67302e-10)
(496.771 0.573425 3.54362e-10)
(496.598 0.959833 2.78159e-10)
(496.472 0.606956 3.71784e-10)
(496.262 1.20524 2.94559e-10)
(496.115 0.634932 -4.41983e-11)
(495.876 1.42779 -2.56101e-10)
(495.696 0.71479 -2.2496e-10)
(495.453 1.52179 -2.63999e-10)
(495.207 0.966951 -9.54956e-11)
(494.992 1.45622 2.74317e-10)
(494.652 1.3449 2.1255e-10)
(494.505 1.24666 -8.59965e-11)
(494.015 1.88314 -1.65493e-10)
(493.98 0.837833 3.55809e-11)
(493.269 2.60971 1.20626e-10)
(497.308 0.0418167 -4.08098e-09)
(497.293 0.209008 1.30528e-09)
(497.269 0.219723 -3.89512e-10)
(497.219 0.414402 7.3788e-11)
(497.167 0.443306 9.63445e-11)
(497.09 0.592415 -3.75478e-10)
(497.002 0.692865 -4.72062e-10)
(496.906 0.739227 -5.9001e-11)
(496.776 0.967474 2.60509e-10)
(496.667 0.853737 3.57914e-10)
(496.493 1.26316 2.79323e-10)
(496.369 0.941304 3.7039e-10)
(496.156 1.56791 2.96289e-10)
(496.011 1.01912 -4.57365e-11)
(495.769 1.85267 -2.63351e-10)
(495.592 1.13628 -2.2638e-10)
(495.345 2.01624 -2.61726e-10)
(495.096 1.42749 -9.58265e-11)
(494.889 2.00836 2.76701e-10)
(494.539 1.84178 2.11987e-10)
(494.397 1.85728 -8.8871e-11)
(493.914 2.421 -1.66398e-10)
(493.885 1.52477 3.37596e-11)
(493.204 3.2064 1.11063e-10)
(497.156 0.0601524 -4.08245e-09)
(497.142 0.255534 1.31169e-09)
(497.118 0.290655 -3.85678e-10)
(497.068 0.518594 7.38668e-11)
(497.017 0.57045 9.97003e-11)
(496.94 0.754585 -3.70211e-10)
(496.854 0.87634 -4.7438e-10)
(496.759 0.958775 -5.70565e-11)
(496.63 1.20735 2.65947e-10)
(496.523 1.12922 3.55935e-10)
(496.35 1.55995 2.79733e-10)
(496.228 1.2701 3.73575e-10)
(496.016 1.92317 2.93059e-10)
(495.875 1.39685 -4.67202e-11)
(495.633 2.27038 -2.61536e-10)
(495.46 1.55098 -2.29123e-10)
(495.209 2.51157 -2.62954e-10)
(494.965 1.87067 -9.50128e-11)
(494.762 2.5534 2.71332e-10)
(494.41 2.33965 2.17804e-10)
(494.27 2.4518 -8.12198e-11)
(493.792 2.94685 -1.63514e-10)
(493.762 2.16734 3.73455e-11)
(493.101 3.76425 1.21833e-10)
(496.956 0.0784808 -4.09435e-09)
(496.941 0.301767 1.30954e-09)
(496.918 0.361434 -3.84134e-10)
(496.868 0.622203 6.92886e-11)
(496.818 0.697291 8.86401e-11)
(496.741 0.9159 -3.75506e-10)
(496.656 1.05938 -4.72443e-10)
(496.561 1.17727 -6.11408e-11)
(496.434 1.44665 2.6649e-10)
(496.326 1.40362 3.61501e-10)
(496.156 1.85585 2.80243e-10)
(496.034 1.59806 3.68134e-10)
(495.824 2.27681 2.90562e-10)
(495.683 1.77449 -4.43182e-11)
(495.442 2.6848 -2.64686e-10)
(495.273 1.96993 -2.26729e-10)
(495.017 3.0022 -2.52573e-10)
(494.786 2.31357 -9.21174e-11)
(494.569 3.10293 2.8125e-10)
(494.228 2.83644 2.19987e-10)
(494.083 3.04806 -8.55266e-11)
(493.61 3.47488 -1.74363e-10)
(493.574 2.8142 3.40756e-11)
(492.912 4.32115 1.22022e-10)
(496.707 0.096632 -4.09193e-09)
(496.693 0.347336 1.30676e-09)
(496.67 0.431424 -4.00063e-10)
(496.62 0.724374 6.94787e-11)
(496.571 0.822677 1.03442e-10)
(496.494 1.075 -3.74834e-10)
(496.411 1.24032 -4.84265e-10)
(496.315 1.39283 -5.67621e-11)
(496.191 1.68319 2.7302e-10)
(496.083 1.67452 3.56922e-10)
(495.915 2.14831 2.77721e-10)
(495.794 1.92223 3.7943e-10)
(495.586 2.62607 3.06529e-10)
(495.447 2.14849 -4.2445e-11)
(495.207 3.09314 -2.60396e-10)
(495.042 2.38723 -2.23636e-10)
(494.784 3.4818 -2.62185e-10)
(494.564 2.75824 -9.77298e-11)
(494.336 3.65033 2.75852e-10)
(494.009 3.32133 2.17571e-10)
(493.858 3.6432 -8.70166e-11)
(493.392 4.00244 -1.74567e-10)
(493.352 3.47081 3.63465e-11)
(492.691 4.8834 1.27024e-10)
(496.41 0.114646 -4.10683e-09)
(496.395 0.39244 1.31689e-09)
(496.373 0.500792 -3.79596e-10)
(496.323 0.825527 7.30607e-11)
(496.275 0.946895 9.07475e-11)
(496.198 1.2325 -3.72115e-10)
(496.116 1.41951 -4.6821e-10)
(496.022 1.60624 -5.81754e-11)
(495.898 1.91741 2.54838e-10)
(495.792 1.94281 3.54625e-10)
(495.625 2.43785 2.88825e-10)
(495.505 2.24351 3.74024e-10)
(495.3 2.97173 2.81139e-10)
(495.162 2.51952 -5.11381e-11)
(494.923 3.49697 -2.5351e-10)
(494.762 2.80204 -2.31929e-10)
(494.502 3.95402 -2.58711e-10)
(494.291 3.20053 -8.11303e-11)
(494.057 4.19306 2.7981e-10)
(493.741 3.80182 2.02927e-10)
(493.584 4.23644 -8.72856e-11)
(493.126 4.52513 -1.5855e-10)
(493.082 4.12215 3.37966e-11)
(492.43 5.43841 1.03776e-10)
(496.064 0.132478 -4.1179e-09)
(496.05 0.436989 1.30314e-09)
(496.028 0.569377 -4.01426e-10)
(495.978 0.925453 6.09585e-11)
(495.93 1.06965 9.08045e-11)
(495.855 1.38807 -3.80654e-10)
(495.773 1.59652 -4.83992e-10)
(495.68 1.81699 -6.14843e-11)
(495.558 2.1487 2.61447e-10)
(495.453 2.2078 3.51711e-10)
(495.288 2.7237 2.77258e-10)
(495.17 2.56102 3.72768e-10)
(494.966 3.31293 2.89715e-10)
(494.831 2.88655 -4.99147e-11)
(494.593 3.89538 -2.60385e-10)
(494.435 3.21301 -2.29068e-10)
(494.175 4.41776 -2.63153e-10)
(493.972 3.63985 -9.2154e-11)
(493.733 4.72898 2.76485e-10)
(493.429 4.27571 2.09856e-10)
(493.266 4.82707 -8.93451e-11)
(492.817 5.04302 -1.69732e-10)
(492.77 4.76912 3.5529e-11)
(492.126 5.98679 1.20103e-10)
(495.67 0.150127 -4.10095e-09)
(495.656 0.480992 1.33196e-09)
(495.634 0.637174 -3.82646e-10)
(495.585 1.02417 8.42221e-11)
(495.538 1.19096 1.09536e-10)
(495.463 1.54173 -3.63829e-10)
(495.382 1.77135 -4.67522e-10)
(495.29 2.02512 -4.4262e-11)
(495.169 2.37703 2.79916e-10)
(495.065 2.46947 3.68606e-10)
(494.902 3.00578 2.95805e-10)
(494.786 2.87463 3.88936e-10)
(494.584 3.64953 3.08441e-10)
(494.451 3.24934 -3.73096e-11)
(494.215 4.28825 -2.46897e-10)
(494.061 3.61984 -2.18583e-10)
(493.801 4.87337 -2.4949e-10)
(493.606 4.07541 -8.11657e-11)
(493.363 5.25738 2.90489e-10)
(493.07 4.74339 2.21492e-10)
(492.902 5.41304 -7.73108e-11)
(492.463 5.55425 -1.57675e-10)
(492.411 5.40989 4.49282e-11)
(491.777 6.52683 1.29234e-10)
(495.227 0.167564 -4.12082e-09)
(495.213 0.524395 1.32068e-09)
(495.192 0.704087 -3.92417e-10)
(495.143 1.12157 7.68349e-11)
(495.096 1.31064 1.02723e-10)
(495.022 1.69333 -3.72106e-10)
(494.943 1.9438 -4.73102e-10)
(494.851 2.23042 -4.61407e-11)
(494.732 2.60215 2.78275e-10)
(494.63 2.72752 3.67099e-10)
(494.469 3.28375 2.96367e-10)
(494.354 3.18392 3.91777e-10)
(494.154 3.98108 3.11257e-10)
(494.024 3.60731 -3.56695e-11)
(493.79 4.67509 -2.42418e-10)
(493.64 4.02181 -2.12791e-10)
(493.381 5.32073 -2.42163e-10)
(493.193 4.50669 -7.49114e-11)
(492.946 5.77742 3.01069e-10)
(492.665 5.20442 2.323e-10)
(492.491 5.99263 -8.90936e-11)
(492.064 6.05769 -1.91682e-10)
(492.009 6.04408 1.57068e-11)
(491.385 7.05807 9.80805e-11)
(494.736 0.184768 -4.12825e-09)
(494.722 0.567152 1.32355e-09)
(494.701 0.770036 -3.95838e-10)
(494.652 1.21755 7.15001e-11)
(494.607 1.4286 9.77164e-11)
(494.533 1.84275 -3.7839e-10)
(494.456 2.11373 -4.81689e-10)
(494.365 2.43275 -5.61597e-11)
(494.248 2.8239 2.68526e-10)
(494.146 2.9818 3.57867e-10)
(493.987 3.55741 2.86137e-10)
(493.875 3.48863 3.82819e-10)
(493.677 4.30729 3.00466e-10)
(493.55 3.96005 -4.54798e-11)
(493.317 5.05553 -2.57222e-10)
(493.172 4.41833 -2.26704e-10)
(492.913 5.75989 -2.5944e-10)
(492.732 4.9333 -8.82275e-11)
(492.482 6.2885 2.82756e-10)
(492.213 5.65888 2.13885e-10)
(492.034 6.56381 -8.42678e-11)
(491.62 6.55158 -1.62473e-10)
(491.56 6.67123 4.16726e-11)
(490.948 7.57995 1.24564e-10)
(494.196 0.20171 -4.13628e-09)
(494.182 0.609206 1.32334e-09)
(494.161 0.834923 -4.02255e-10)
(494.113 1.31199 6.56825e-11)
(494.069 1.54465 8.94703e-11)
(493.996 1.9898 -3.91084e-10)
(493.919 2.28093 -4.96714e-10)
(493.83 2.6319 -7.28174e-11)
(493.714 3.04204 2.51982e-10)
(493.615 3.23207 3.39499e-10)
(493.458 3.8265 2.60202e-10)
(493.347 3.78847 3.57038e-10)
(493.151 4.62785 2.67751e-10)
(493.028 4.30713 -5.11716e-11)
(492.797 5.42912 -2.33573e-10)
(492.656 4.80869 -2.09553e-10)
(492.399 6.19071 -2.41467e-10)
(492.224 5.35487 -7.57863e-11)
(491.972 6.78995 2.95457e-10)
(491.714 6.10546 2.24264e-10)
(491.531 7.12635 -7.62343e-11)
(491.129 7.03566 -1.574e-10)
(491.067 7.2896 4.70257e-11)
(490.467 8.09194 1.27723e-10)
(493.607 0.218366 -4.13621e-09)
(493.593 0.650504 1.34801e-09)
(493.573 0.898654 -4.03667e-10)
(493.526 1.40476 4.6483e-11)
(493.482 1.65864 8.65262e-11)
(493.41 2.13429 -3.82652e-10)
(493.335 2.44517 -4.76226e-10)
(493.246 2.82763 -3.54097e-11)
(493.133 3.25634 2.71724e-10)
(493.035 3.47807 3.40372e-10)
(492.88 4.09077 2.73593e-10)
(492.772 4.08317 3.80858e-10)
(492.578 4.94247 3.10195e-10)
(492.458 4.64819 -3.21287e-11)
(492.229 5.7955 -2.66965e-10)
(492.093 5.19239 -2.5068e-10)
(491.837 6.61277 -2.77991e-10)
(491.669 5.77081 -9.43558e-11)
(491.415 7.28129 2.89898e-10)
(491.169 6.54381 2.30007e-10)
(490.982 7.67949 -8.8714e-11)
(490.593 7.5088 -1.86353e-10)
(490.528 7.89791 3.02306e-11)
(489.94 8.59349 1.24987e-10)
(492.969 0.234712 -4.15902e-09)
(492.955 0.690995 1.30984e-09)
(492.936 0.96114 -3.95368e-10)
(492.889 1.49574 1.03246e-10)
(492.846 1.77039 1.12247e-10)
(492.775 2.27603 -3.80359e-10)
(492.701 2.60621 -4.9691e-10)
(492.614 3.01968 -8.12258e-11)
(492.503 3.46648 2.69436e-10)
(492.406 3.71948 3.82903e-10)
(492.254 4.3499 2.9479e-10)
(492.148 4.3724 3.75483e-10)
(491.957 5.25085 2.75983e-10)
(491.84 4.9829 -5.39007e-11)
(491.614 6.15434 -2.43117e-10)
(491.482 5.56897 -2.21747e-10)
(491.228 7.02564 -2.67903e-10)
(491.067 6.18038 -1.05656e-10)
(490.812 7.76192 2.49447e-10)
(490.578 6.97362 2.00945e-10)
(490.386 8.22287 -7.58852e-11)
(490.011 7.97018 -1.62192e-10)
(489.943 8.4949 3.04483e-11)
(489.369 9.08406 9.97036e-11)
(492.282 0.250729 -4.1522e-09)
(492.268 0.730634 1.36156e-09)
(492.249 1.0223 -4.02976e-10)
(492.203 1.58482 4.36622e-11)
(492.161 1.87976 8.48779e-11)
(492.091 2.41481 -3.8154e-10)
(492.019 2.76379 -4.69637e-10)
(491.933 3.20775 -2.77415e-11)
(491.824 3.67214 2.74089e-10)
(491.73 3.95596 3.42624e-10)
(491.58 4.60353 2.81003e-10)
(491.476 4.65579 3.89767e-10)
(491.288 5.55265 3.20625e-10)
(491.174 5.31089 -5.76026e-11)
(490.951 6.50532 -2.99848e-10)
(490.823 5.93798 -2.47387e-10)
(490.572 7.42895 -2.68401e-10)
(490.418 6.58277 -8.06733e-11)
(490.162 8.23108 3.05611e-10)
(489.94 7.3946 2.07503e-10)
(489.744 8.75582 -1.1499e-10)
(489.383 8.41949 -1.75513e-10)
(489.312 9.07997 4.38873e-11)
(488.752 9.56296 1.37339e-10)
(491.546 0.266393 -4.17565e-09)
(491.532 0.769375 1.32632e-09)
(491.513 1.08206 -4.21878e-10)
(491.467 1.67189 4.00031e-11)
(491.427 1.98658 9.55693e-11)
(491.358 2.55043 -3.55748e-10)
(491.287 2.91768 -4.66776e-10)
(491.203 3.39154 -4.60476e-11)
(491.096 3.87295 2.71525e-10)
(491.004 4.1871 3.54579e-10)
(490.857 4.85123 2.70216e-10)
(490.756 4.9329 3.58701e-10)
(490.571 5.84744 3.01456e-10)
(490.461 5.63174 -2.71781e-11)
(490.24 6.84808 -2.49569e-10)
(490.117 6.29904 -2.24254e-10)
(489.869 7.82244 -2.64962e-10)
(489.721 6.97714 -9.70066e-11)
(489.466 8.68794 2.6371e-10)
(489.255 7.80643 1.84395e-10)
(489.056 9.27681 -1.26747e-10)
(488.709 8.8574 -1.72395e-10)
(488.634 9.65358 6.18822e-11)
(488.09 10.0289 1.34154e-10)
(490.759 0.281679 -4.1771e-09)
(490.746 0.807163 1.35324e-09)
(490.727 1.14033 -3.88916e-10)
(490.682 1.75682 9.47984e-11)
(490.643 2.0907 1.18951e-10)
(490.575 2.68271 -3.61038e-10)
(490.506 3.06762 -4.59937e-10)
(490.424 3.57077 -2.1696e-11)
(490.319 4.06859 3.12781e-10)
(490.23 4.41252 3.67233e-10)
(490.085 5.09257 2.54693e-10)
(489.988 5.20324 3.55801e-10)
(489.806 6.13474 2.6892e-10)
(489.699 5.94494 -7.91703e-11)
(489.482 7.18221 -2.92061e-10)
(489.364 6.65172 -2.49768e-10)
(489.118 8.20587 -2.82215e-10)
(488.977 7.36274 -1.00368e-10)
(488.723 9.13184 2.7715e-10)
(488.523 8.20881 2.1286e-10)
(488.321 9.78541 -8.33624e-11)
(487.989 9.28346 -1.58196e-10)
(487.91 10.2149 5.08218e-11)
(487.381 10.4813 1.38275e-10)
(489.923 0.29656 -4.19348e-09)
(489.91 0.843935 1.34261e-09)
(489.892 1.197 -4.10368e-10)
(489.847 1.83947 6.87053e-11)
(489.809 2.19193 8.62778e-11)
(489.743 2.81142 -4.05192e-10)
(489.676 3.21336 -5.06833e-10)
(489.596 3.74514 -7.15636e-11)
(489.493 4.25871 2.55027e-10)
(489.406 4.63182 3.43703e-10)
(489.264 5.32711 2.68236e-10)
(489.17 5.46633 3.60794e-10)
(488.992 6.41403 2.65039e-10)
(488.889 6.24993 -8.76374e-11)
(488.675 7.50716 -3.10548e-10)
(488.562 6.99547 -2.72989e-10)
(488.319 8.57879 -2.69811e-10)
(488.185 7.73907 -5.93792e-11)
(487.933 9.56234 3.17427e-10)
(487.744 8.60134 2.39242e-10)
(487.54 10.2811 -6.27205e-11)
(487.223 9.69737 -1.47095e-10)
(487.139 10.7633 5.91183e-11)
(486.627 10.9198 1.42587e-10)
(489.037 0.310999 -4.21963e-09)
(489.023 0.879614 1.35681e-09)
(489.006 1.25194 -3.82184e-10)
(488.962 1.91969 7.37956e-11)
(488.925 2.29008 1.12146e-10)
(488.86 2.93635 -3.56898e-10)
(488.796 3.35464 -4.86233e-10)
(488.717 3.91437 -7.55239e-11)
(488.617 4.44298 2.73789e-10)
(488.533 4.84465 3.83537e-10)
(488.395 5.55442 2.82525e-10)
(488.304 5.72169 3.91293e-10)
(488.129 6.68481 3.15427e-10)
(488.031 6.54613 -6.79195e-11)
(487.821 7.82236 -2.65992e-10)
(487.713 7.32965 -2.13684e-10)
(487.473 8.94066 -2.75047e-10)
(487.346 8.10555 -1.21711e-10)
(487.096 9.97904 2.6826e-10)
(486.918 8.9836 2.12368e-10)
(486.711 10.7634 -1.16257e-10)
(486.41 10.0988 -1.75316e-10)
(486.322 11.2982 4.68051e-11)
(485.827 11.344 1.0606e-10)
(488.1 0.32496 -4.21027e-09)
(488.087 0.914109 1.37164e-09)
(488.07 1.30503 -3.83633e-10)
(488.027 1.99728 1.08481e-10)
(487.992 2.38491 1.30458e-10)
(487.928 3.05722 -3.95984e-10)
(487.866 3.49118 -5.33196e-10)
(487.789 4.07815 -8.43383e-11)
(487.692 4.62108 2.564e-10)
(487.61 5.05065 3.53222e-10)
(487.475 5.77414 2.83386e-10)
(487.388 5.96888 3.87953e-10)
(487.217 6.94657 3.06606e-10)
(487.123 6.83298 -4.28629e-11)
(486.917 8.12722 -2.48049e-10)
(486.815 7.6536 -2.10016e-10)
(486.58 9.29089 -2.37288e-10)
(486.459 8.46152 -9.70692e-11)
(486.211 10.3816 2.40607e-10)
(486.045 9.35522 1.80101e-10)
(485.836 11.2317 -1.16779e-10)
(485.55 10.4874 -1.8819e-10)
(485.458 11.8191 2.0448e-11)
(484.981 11.7533 1.14985e-10)
(487.112 0.338399 -4.24079e-09)
(487.099 0.947329 1.32764e-09)
(487.083 1.3561 -4.08337e-10)
(487.042 2.07205 1.09046e-10)
(487.007 2.47619 1.07128e-10)
(486.946 3.17378 -3.97431e-10)
(486.885 3.62267 -5.10766e-10)
(486.811 4.23618 -4.05372e-11)
(486.717 4.79267 3.20477e-10)
(486.638 5.24948 3.92218e-10)
(486.507 5.98587 2.98945e-10)
(486.423 6.20751 3.75333e-10)
(486.256 7.19888 2.62863e-10)
(486.167 7.10997 -6.60217e-11)
(485.965 8.42119 -2.54035e-10)
(485.869 7.96665 -2.32418e-10)
(485.637 9.62884 -2.82755e-10)
(485.525 8.80615 -1.18506e-10)
(485.279 10.7696 2.86318e-10)
(485.124 9.71584 2.35779e-10)
(484.913 11.6849 -8.32775e-11)
(484.643 10.8627 -1.79975e-10)
(484.547 12.3254 6.72504e-12)
(484.088 12.1474 1.19828e-10)
(486.074 0.351281 -4.25626e-09)
(486.061 0.979189 1.33237e-09)
(486.046 1.40503 -4.1002e-10)
(486.005 2.1438 1.1491e-10)
(485.973 2.56368 1.17233e-10)
(485.912 3.28575 -3.93696e-10)
(485.854 3.7488 -5.12127e-10)
(485.783 4.38812 -9.02317e-11)
(485.692 4.95739 2.71806e-10)
(485.616 5.44078 3.98502e-10)
(485.488 6.18926 3.10073e-10)
(485.409 6.4372 3.86117e-10)
(485.246 7.44134 2.73663e-10)
(485.161 7.37665 -5.74686e-11)
(484.964 8.70377 -2.44686e-10)
(484.874 8.26821 -2.28382e-10)
(484.647 9.95387 -2.78227e-10)
(484.542 9.13858 -1.09472e-10)
(484.3 11.1428 2.97603e-10)
(484.155 10.0651 2.45129e-10)
(483.943 12.1222 -7.35645e-11)
(483.69 11.2242 -1.71463e-10)
(483.59 12.8167 2.15656e-11)
(483.149 12.526 9.27523e-11)
(484.985 0.363575 -4.277e-09)
(484.972 1.00962 1.37741e-09)
(484.958 1.45169 -3.86369e-10)
(484.918 2.21239 7.16525e-11)
(484.887 2.64717 6.15779e-11)
(484.829 3.39286 -4.11346e-10)
(484.773 3.86927 -4.87833e-10)
(484.704 4.53362 -7.41478e-11)
(484.616 5.11489 2.78225e-10)
(484.544 5.62417 3.898e-10)
(484.42 6.38391 2.84952e-10)
(484.344 6.65756 4.02293e-10)
(484.186 7.67355 3.3258e-10)
(484.106 7.63262 -6.30787e-11)
(483.914 8.97455 -3.15086e-10)
(483.829 8.55778 -2.52792e-10)
(483.607 10.2654 -2.62767e-10)
(483.51 9.45812 -1.04718e-10)
(483.272 11.5006 2.93243e-10)
(483.138 10.4023 2.318e-10)
(482.926 12.5426 -1.00304e-10)
(482.689 11.571 -1.57914e-10)
(482.585 13.2918 7.26683e-11)
(482.163 12.8885 1.26377e-10)
(483.844 0.375257 -4.2596e-09)
(483.832 1.03856 1.40604e-09)
(483.818 1.496 -3.72402e-10)
(483.78 2.27767 8.3277e-11)
(483.75 2.72647 6.68804e-11)
(483.694 3.49489 -4.13108e-10)
(483.641 3.9838 -4.94522e-10)
(483.575 4.67237 -3.0503e-11)
(483.49 5.26479 3.17327e-10)
(483.421 5.79927 3.70385e-10)
(483.301 6.56942 2.58764e-10)
(483.23 6.86819 3.72591e-10)
(483.076 7.89511 2.94988e-10)
(483.002 7.87749 -5.38234e-11)
(482.814 9.23312 -2.55556e-10)
(482.736 8.83493 -2.0406e-10)
(482.519 10.5631 -2.74304e-10)
(482.429 9.76423 -1.23921e-10)
(482.195 11.8424 2.66608e-10)
(482.072 10.7268 2.03686e-10)
(481.86 12.9455 -8.4483e-11)
(481.639 11.9023 -1.48628e-10)
(481.533 13.7496 7.83833e-11)
(481.131 13.2343 1.26786e-10)
(482.653 0.386314 -4.26843e-09)
(482.641 1.06599 1.38045e-09)
(482.628 1.5379 -4.33217e-10)
(482.59 2.33955 9.54948e-11)
(482.563 2.80147 9.39015e-11)
(482.508 3.59166 -4.20563e-10)
(482.458 4.09215 -4.79525e-10)
(482.395 4.80408 -5.21683e-11)
(482.313 5.40676 2.57865e-10)
(482.248 5.96569 3.88312e-10)
(482.132 6.74538 2.98944e-10)
(482.066 7.06868 3.73899e-10)
(481.916 8.1056 3.1821e-10)
(481.847 8.11084 -6.49754e-11)
(481.665 9.4791 -3.08145e-10)
(481.593 9.09928 -2.35201e-10)
(481.381 10.8466 -2.86167e-10)
(481.299 10.0564 -1.13885e-10)
(481.07 12.168 2.96505e-10)
(480.957 11.0379 1.99162e-10)
(480.746 13.3303 -1.24744e-10)
(480.542 12.2174 -1.68815e-10)
(480.434 14.1886 1.87208e-11)
(480.051 13.5628 9.19179e-11)
(481.41 0.396735 -4.34153e-09)
(481.398 1.09187 1.36037e-09)
(481.386 1.57733 -4.34918e-10)
(481.35 2.39796 6.62655e-11)
(481.324 2.87205 9.42628e-11)
(481.272 3.68303 -3.99158e-10)
(481.224 4.19415 -4.92233e-10)
(481.163 4.92852 -3.43079e-11)
(481.086 5.5405 3.0497e-10)
(481.024 6.12309 4.01186e-10)
(480.913 6.91137 3.3476e-10)
(480.851 7.25858 3.80804e-10)
(480.706 8.30457 2.89837e-10)
(480.643 8.33225 -7.13236e-11)
(480.466 9.71207 -2.86183e-10)
(480.4 9.35041 -2.41059e-10)
(480.194 11.1153 -2.69268e-10)
(480.12 10.3342 -7.76722e-11)
(479.896 12.4768 3.09591e-10)
(479.793 11.3349 2.29964e-10)
(479.584 13.6963 -1.25449e-10)
(479.396 12.5159 -1.94661e-10)
(479.285 14.6085 1.92505e-11)
(478.923 13.8737 1.07939e-10)
(480.116 0.406509 -4.31542e-09)
(480.104 1.11618 1.41824e-09)
(480.093 1.61427 -3.79859e-10)
(480.058 2.45285 7.91284e-11)
(480.034 2.93814 6.01787e-11)
(479.984 3.76891 -4.30981e-10)
(479.939 4.28966 -5.11034e-10)
(479.881 5.04552 -3.96987e-11)
(479.807 5.66579 3.06415e-10)
(479.75 6.27119 4.14345e-10)
(479.642 7.06707 3.00622e-10)
(479.585 7.43752 3.5935e-10)
(479.446 8.49157 2.78555e-10)
(479.388 8.54125 -7.77281e-11)
(479.216 9.93158 -2.81628e-10)
(479.158 9.58789 -2.25488e-10)
(478.957 11.3691 -2.39915e-10)
(478.891 10.5973 -4.03132e-11)
(478.672 12.7687 2.99143e-10)
(478.58 11.6168 1.78152e-10)
(478.374 14.0423 -1.13987e-10)
(478.202 12.7983 -1.74128e-10)
(478.088 15.01 5.4705e-11)
(477.747 14.1674 1.56262e-10)
(478.771 0.415624 -4.31786e-09)
(478.759 1.1389 1.39104e-09)
(478.749 1.64867 -4.57266e-10)
(478.715 2.50416 7.31604e-11)
(478.693 2.99968 1.30943e-10)
(478.645 3.84922 -3.95735e-10)
(478.602 4.37859 -5.24563e-10)
(478.548 5.15496 -3.91229e-11)
(478.477 5.78248 2.72018e-10)
(478.424 6.4098 3.38646e-10)
(478.321 7.2122 3.01793e-10)
(478.269 7.60515 4.30676e-10)
(478.134 8.66622 3.03907e-10)
(478.083 8.73738 -9.00323e-11)
(477.917 10.1371 -2.76873e-10)
(477.865 9.81124 -2.03768e-10)
(477.67 11.6075 -2.65305e-10)
(477.612 10.8452 -1.05585e-10)
(477.398 13.0433 3.13301e-10)
(477.317 11.883 2.05329e-10)
(477.114 14.3673 -1.33284e-10)
(476.959 13.0644 -1.79949e-10)
(476.843 15.3918 6.70547e-11)
(476.522 14.4422 1.29588e-10)
(477.374 0.424065 -4.39398e-09)
(477.363 1.15999 1.36941e-09)
(477.353 1.68048 -4.47265e-10)
(477.32 2.55183 6.07268e-11)
(477.3 3.05658 8.32187e-11)
(477.254 3.92386 -4.22763e-10)
(477.214 4.46084 -5.14199e-10)
(477.163 5.25675 -5.10081e-11)
(477.096 5.89044 2.85955e-10)
(477.047 6.53878 3.76669e-10)
(476.948 7.34658 3.09172e-10)
(476.901 7.76126 4.14334e-10)
(476.772 8.82819 3.17428e-10)
(476.727 8.92027 -5.58855e-11)
(476.566 10.3283 -2.71815e-10)
(476.522 10.02 -2.27207e-10)
(476.332 11.83 -2.59422e-10)
(476.283 11.0775 -7.17249e-11)
(476.075 13.3004 3.21393e-10)
(476.004 12.1331 2.38894e-10)
(475.804 14.6706 -6.41684e-11)
(475.667 13.3129 -2.02444e-10)
(475.548 15.7542 5.34274e-12)
(475.249 14.6992 1.02145e-10)
(475.926 0.431815 -4.33529e-09)
(475.915 1.1794 1.43843e-09)
(475.906 1.70964 -4.06891e-10)
(475.874 2.59577 1.00952e-10)
(475.856 3.10877 1.14225e-10)
(475.812 3.99275 -3.98833e-10)
(475.775 4.53632 -4.97211e-10)
(475.727 5.35079 -3.77256e-11)
(475.664 5.9896 2.93956e-10)
(475.618 6.65806 3.78304e-10)
(475.525 7.47012 3.04043e-10)
(475.482 7.90572 3.97507e-10)
(475.358 8.97727 2.92728e-10)
(475.319 9.08966 -8.07731e-11)
(475.164 10.5047 -3.11882e-10)
(475.128 10.2136 -2.74813e-10)
(474.944 12.036 -3.12344e-10)
(474.904 11.2936 -5.99595e-11)
(474.701 13.5394 3.23437e-10)
(474.641 12.3667 2.28389e-10)
(474.446 14.9519 -7.73097e-11)
(474.324 13.5439 -1.63805e-10)
(474.204 16.0952 4.37697e-11)
(473.926 14.9368 1.31018e-10)
(474.426 0.43886 -4.36949e-09)
(474.415 1.19712 1.41608e-09)
(474.407 1.73611 -4.46136e-10)
(474.377 2.63593 1.01182e-10)
(474.36 3.15615 1.02105e-10)
(474.318 4.0558 -4.27303e-10)
(474.284 4.60494 -4.86224e-10)
(474.239 5.43701 -4.35173e-11)
(474.18 6.07988 2.76306e-10)
(474.138 6.76757 4.05582e-10)
(474.049 7.58275 3.11764e-10)
(474.012 8.03848 3.92771e-10)
(473.893 9.11338 3.32604e-10)
(473.86 9.24541 -6.3225e-11)
(473.711 10.666 -3.06962e-10)
(473.682 10.3917 -2.27682e-10)
(473.505 12.2251 -2.80186e-10)
(473.474 11.4928 -1.06577e-10)
(473.277 13.7599 3.25221e-10)
(473.228 12.5831 2.17385e-10)
(473.037 15.2115 -1.17674e-10)
(472.931 13.7579 -1.52683e-10)
(472.809 16.4136 4.45475e-11)
(472.554 15.1536 1.08606e-10)
(472.874 0.445193 -4.43811e-09)
(472.863 1.21313 1.42178e-09)
(472.856 1.75986 -4.10135e-10)
(472.827 2.67225 6.08623e-11)
(472.812 3.19869 1.08713e-10)
(472.773 4.11293 -3.82091e-10)
(472.742 4.66662 -5.26653e-10)
(472.7 5.51532 -3.63617e-11)
(472.644 6.16119 3.23611e-10)
(472.607 6.86725 3.68413e-10)
(472.522 7.68441 3.19522e-10)
(472.49 8.15952 4.45309e-10)
(472.377 9.23647 3.00368e-10)
(472.35 9.3875 -5.78699e-11)
(472.207 10.8122 -2.54771e-10)
(472.185 10.5543 -2.58941e-10)
(472.014 12.3969 -2.74405e-10)
(471.992 11.6747 -5.85276e-11)
(471.802 13.9612 2.93034e-10)
(471.763 12.7813 2.23803e-10)
(471.578 15.4496 -6.42167e-11)
(471.487 13.9551 -1.82314e-10)
(471.363 16.7089 5.16597e-11)
(471.132 15.3499 1.562e-10)
(471.27 0.450811 -4.4185e-09)
(471.26 1.22741 1.4651e-09)
(471.254 1.78088 -3.79822e-10)
(471.226 2.70472 9.64211e-11)
(471.213 3.23635 7.0258e-11)
(471.176 4.16412 -4.25189e-10)
(471.148 4.72131 -4.95648e-10)
(471.109 5.58564 -8.90549e-12)
(471.057 6.23345 3.51982e-10)
(471.023 6.95702 4.03336e-10)
(470.944 7.77502 2.80508e-10)
(470.916 8.26879 4.01804e-10)
(470.809 9.34651 3.28262e-10)
(470.788 9.51596 -3.32363e-11)
(470.651 10.9433 -2.3567e-10)
(470.636 10.7013 -2.41181e-10)
(470.472 12.5514 -3.23739e-10)
(470.459 11.8391 -1.01017e-10)
(470.275 14.1429 3.08572e-10)
(470.248 12.9607 2.36569e-10)
(470.067 15.6657 -4.40318e-11)
(469.991 14.1356 -1.71304e-10)
(469.867 16.9804 -2.61225e-12)
(469.658 15.5249 1.08958e-10)
(469.615 0.455723 -4.49623e-09)
(469.605 1.23999 1.39651e-09)
(469.6 1.7992 -4.66351e-10)
(469.573 2.73338 4.76479e-11)
(469.562 3.26916 7.0393e-11)
(469.527 4.20936 -4.48177e-10)
(469.502 4.769 -5.4405e-10)
(469.466 5.64794 -7.66745e-11)
(469.418 6.29661 2.66382e-10)
(469.388 7.03679 3.58009e-10)
(469.313 7.8545 2.81722e-10)
(469.291 8.36621 3.83652e-10)
(469.189 9.44345 2.81326e-10)
(469.174 9.63078 -9.88326e-11)
(469.043 11.0592 -3.26945e-10)
(469.036 10.8327 -2.80093e-10)
(468.877 12.6886 -3.17832e-10)
(468.873 11.9858 -1.19467e-10)
(468.696 14.3048 2.68375e-10)
(468.68 13.1206 1.82429e-10)
(468.505 15.8591 -1.35636e-10)
(468.444 14.2987 -2.08221e-10)
(468.32 17.2277 4.64594e-12)
(468.134 15.6785 9.746e-11)
(467.908 0.459939 -4.44946e-09)
(467.898 1.2509 1.44154e-09)
(467.894 1.81486 -4.55504e-10)
(467.868 2.75827 1.12586e-10)
(467.859 3.29717 1.10717e-10)
(467.826 4.24872 -4.29292e-10)
(467.803 4.80972 -4.78386e-10)
(467.771 5.70226 -2.75844e-11)
(467.726 6.35065 2.95326e-10)
(467.701 7.10653 4.34798e-10)
(467.631 7.92276 3.38245e-10)
(467.614 8.45167 4.12118e-10)
(467.517 9.52715 3.58676e-10)
(467.508 9.73187 -4.72723e-11)
(467.383 11.1599 -2.93386e-10)
(467.383 10.9487 -2.68087e-10)
(467.231 12.8085 -3.25996e-10)
(467.236 12.1152 -8.14977e-11)
(467.065 14.447 2.91743e-10)
(467.06 13.2611 1.83095e-10)
(466.891 16.0297 -8.64939e-11)
(466.845 14.4435 -1.84459e-10)
(466.722 17.4497 4.98341e-12)
(466.559 15.8105 1.41238e-10)
(466.149 0.463472 -4.46151e-09)
(466.139 1.26016 1.45598e-09)
(466.136 1.8279 -4.5119e-10)
(466.112 2.77945 1.20554e-10)
(466.104 3.32046 1.17772e-10)
(466.073 4.28228 -4.24512e-10)
(466.053 4.84357 -4.73276e-10)
(466.023 5.74866 -1.98816e-11)
(465.983 6.39562 3.03804e-10)
(465.962 7.16625 3.74665e-10)
(465.896 7.97977 2.76951e-10)
(465.884 8.52511 4.27452e-10)
(465.792 9.59749 3.03549e-10)
(465.79 9.8191 -1.0133e-10)
(465.671 11.2453 -2.80869e-10)
(465.679 11.0491 -2.56024e-10)
(465.533 12.9112 -3.1313e-10)
(465.547 12.2273 -6.83996e-11)
(465.382 14.5699 3.0833e-10)
(465.388 13.3823 1.9629e-10)
(465.225 16.1777 -7.30093e-11)
(465.192 14.5683 -1.73041e-10)
(465.072 17.6448 2.64976e-11)
(464.932 15.921 1.60787e-10)
(464.338 0.466332 -4.49963e-09)
(464.328 1.26779 1.50952e-09)
(464.325 1.83838 -4.26149e-10)
(464.302 2.79697 6.23724e-11)
(464.296 3.3391 1.17888e-10)
(464.268 4.31011 -3.68964e-10)
(464.251 4.87064 -5.02601e-10)
(464.224 5.78723 -6.89226e-11)
(464.187 6.43162 3.12487e-10)
(464.17 7.21603 4.39459e-10)
(464.109 8.02556 3.27626e-10)
(464.102 8.58651 3.94865e-10)
(464.015 9.65439 3.25826e-10)
(464.02 9.89232 -2.81323e-11)
(463.906 11.3152 -2.96495e-10)
(463.922 11.1338 -2.8338e-10)
(463.782 12.9964 -2.85443e-10)
(463.806 12.3221 -5.51038e-11)
(463.647 14.6734 3.10675e-10)
(463.663 13.4846 1.84281e-10)
(463.506 16.3041 -1.03081e-10)
(463.487 14.6724 -1.54925e-10)
(463.37 17.8114 3.42382e-11)
(463.254 16.0099 9.25412e-11)
(462.474 0.468524 -4.54709e-09)
(462.465 1.27381 1.44579e-09)
(462.463 1.84631 -4.62055e-10)
(462.441 2.81086 4.77914e-11)
(462.437 3.35314 5.60832e-11)
(462.41 4.33227 -4.80277e-10)
(462.396 4.89099 -5.11583e-10)
(462.372 5.81807 2.49541e-11)
(462.338 6.45874 3.63684e-10)
(462.325 7.25596 4.48618e-10)
(462.269 8.06022 3.57576e-10)
(462.267 8.63594 4.45172e-10)
(462.186 9.69785 3.34123e-10)
(462.196 9.95149 -6.28827e-11)
(462.089 11.3693 -3.05166e-10)
(462.112 11.2024 -2.7101e-10)
(461.979 13.0638 -3.15816e-10)
(462.012 12.3993 -1.20366e-10)
(461.859 14.7574 2.61132e-10)
(461.887 13.568 1.65552e-10)
(461.735 16.4088 -9.68677e-11)
(461.73 14.7566 -1.23616e-10)
(461.616 17.9497 9.38999e-11)
(461.522 16.0763 1.69211e-10)
(460.558 0.47005 -4.59532e-09)
(460.549 1.27823 1.46052e-09)
(460.547 1.85171 -4.30064e-10)
(460.527 2.82115 4.08228e-11)
(460.524 3.36261 7.66916e-11)
(460.5 4.34881 -4.31021e-10)
(460.488 4.90469 -5.06591e-10)
(460.467 5.84124 -1.03056e-11)
(460.437 6.47707 2.8059e-10)
(460.428 7.28616 3.93635e-10)
(460.376 8.08386 3.37695e-10)
(460.379 8.67352 3.8401e-10)
(460.304 9.72794 2.98885e-10)
(460.32 9.99667 -7.05859e-11)
(460.219 11.4077 -2.84901e-10)
(460.25 11.255 -2.24766e-10)
(460.123 13.1132 -3.095e-10)
(460.165 12.4586 -8.72114e-11)
(460.019 14.8214 3.29915e-10)
(460.058 13.6322 1.78938e-10)
(459.912 16.492 -1.28062e-10)
(459.921 14.8212 -1.81886e-10)
(459.81 18.0605 5.69261e-11)
(459.737 16.1208 1.57026e-10)
(458.589 0.470907 -4.54584e-09)
(458.58 1.28104 1.49143e-09)
(458.579 1.85456 -4.52946e-10)
(458.56 2.82783 5.62226e-11)
(458.559 3.3675 6.28777e-11)
(458.537 4.35972 -4.11014e-10)