/*--------------------------------*- C++ -*----------------------------------*\
  =========                 |
  \\      /  F ield         | OpenFOAM: The Open Source CFD Toolbox
   \\    /   O peration     | Website:  https://openfoam.org
    \\  /    A nd           | Version:  10
     \\/     M anipulation  |
\*---------------------------------------------------------------------------*/
FoamFile
{
    format      ascii;
    class       surfaceScalarField;
    location    "0.32";
    object      phi;
}
// * * * * * * * * * * * * * * * * * * * * * * * * * * * * * * * * * * * * * //

dimensions      [1 0 -1 0 0 0 0];

internalField   nonuniform List<scalar> 
8154
(
-5.85497e-09
-2.22302e-08
-5.71272e-08
-9.23451e-08
-1.71982e-07
-2.26193e-07
-3.69759e-07
-4.53092e-07
-6.73519e-07
-8.13066e-07
-1.1044e-06
-1.33758e-06
-1.6677e-06
-2.02597e-06
-2.35908e-06
-2.86593e-06
-3.25698e-06
-3.98628e-06
-4.56481e-06
-5.50394e-06
-6.82434e-06
-7.25831e-06
-6.85119e-06
-0.000277438
-0.000832368
2.39924e-08
-0.00138746
9.61324e-08
-0.00194288
2.13001e-07
-0.00249867
3.77689e-07
-0.00305503
5.76761e-07
-0.00361202
8.23411e-07
-0.00416972
1.08871e-06
-0.00472845
1.39879e-06
-0.00528791
1.71212e-06
-0.00584878
2.05703e-06
-0.00641057
2.40266e-06
-0.00697377
2.74796e-06
-0.00753866
3.12062e-06
-0.00810414
3.43777e-06
-0.00867309
3.8519e-06
-0.00924025
4.12667e-06
-0.00981489
4.57253e-06
-0.0103833
4.92429e-06
-0.0109646
5.13877e-06
-0.0115338
5.28181e-06
-0.0121235
5.11854e-06
-0.0126947
4.03411e-06
-0.013293
2.44998e-06
-0.000277462
-0.000832441
2.63035e-08
-0.00138758
1.04675e-07
-0.00194305
2.34392e-07
-0.00249887
4.09807e-07
-0.00305528
6.34713e-07
-0.00361229
8.89513e-07
-0.00417003
1.19495e-06
-0.00472877
1.50218e-06
-0.00528825
1.86799e-06
-0.00584912
2.1916e-06
-0.00641091
2.59318e-06
-0.00697414
2.89263e-06
-0.00753897
3.29935e-06
-0.00810456
3.54101e-06
-0.00867337
3.90639e-06
-0.00924069
4.10549e-06
-0.00981524
4.38877e-06
-0.0103835
5.00137e-06
-0.0109647
4.66608e-06
-0.0115337
5.23419e-06
-0.0121224
5.33536e-06
-0.0126932
5.04417e-06
-0.0132905
4.2301e-06
-0.000277489
-0.000832519
2.12412e-08
-0.00138771
8.4795e-08
-0.00194322
1.87735e-07
-0.00249909
3.30179e-07
-0.00305553
5.01413e-07
-0.00361259
7.07315e-07
-0.00417034
9.22978e-07
-0.00472913
1.16748e-06
-0.00528857
1.39507e-06
-0.00584953
1.64272e-06
-0.00641121
1.84617e-06
-0.00697455
2.04966e-06
-0.00753921
2.19783e-06
-0.00810492
2.28577e-06
-0.00867357
2.35627e-06
-0.00924098
2.20745e-06
-0.00981586
2.34255e-06
-0.0103831
1.89879e-06
-0.0109653
1.783e-06
-0.0115338
1.39442e-06
-0.0121221
1.15661e-06
-0.0126923
7.2284e-07
-0.0132863
5.19698e-07
-0.00027751
-0.000832582
2.54776e-08
-0.00138781
1.01763e-07
-0.00194337
2.25724e-07
-0.00249927
3.97496e-07
-0.00305574
6.05196e-07
-0.00361281
8.55671e-07
-0.00417058
1.11981e-06
-0.00472936
1.4216e-06
-0.00528882
1.70338e-06
-0.00584973
2.01769e-06
-0.00641141
2.27195e-06
-0.00697469
2.54821e-06
-0.0075393
2.7342e-06
-0.00810499
2.8972e-06
-0.00867342
2.98825e-06
-0.00924111
2.89911e-06
-0.00981541
2.97362e-06
-0.010383
2.28209e-06
-0.0109649
2.51868e-06
-0.0115335
1.72742e-06
-0.0121216
1.20686e-06
-0.0126921
3.82065e-07
-0.0132858
-1.66793e-07
-0.000277536
-0.000832659
3.35951e-08
-0.00138794
1.34141e-07
-0.00194354
2.98903e-07
-0.00249947
5.26195e-07
-0.00305599
8.07594e-07
-0.00361307
1.14176e-06
-0.00417089
1.51231e-06
-0.00472964
1.92014e-06
-0.00528914
2.33984e-06
-0.00584998
2.77407e-06
-0.00641169
3.19396e-06
-0.00697488
3.59579e-06
-0.00753946
3.96472e-06
-0.00810508
4.26093e-06
-0.00867333
4.52527e-06
-0.00924119
4.61698e-06
-0.00981472
4.73028e-06
-0.0103833
4.39991e-06
-0.0109641
4.3677e-06
-0.011533
3.67495e-06
-0.0121208
3.21068e-06
-0.0126916
2.27177e-06
-0.013286
1.35445e-06
-0.000277569
-0.000832759
3.75234e-08
-0.0013881
1.4983e-07
-0.00194376
3.34149e-07
-0.00249976
5.8829e-07
-0.00305632
9.04109e-07
-0.00361344
1.27851e-06
-0.00417129
1.69655e-06
-0.00473006
2.15489e-06
-0.00528957
2.6317e-06
-0.00585041
3.12165e-06
-0.00641209
3.60218e-06
-0.00697525
4.05796e-06
-0.00753976
4.4822e-06
-0.00810534
4.82367e-06
-0.00867343
5.12724e-06
-0.0092413
5.25197e-06
-0.00981439
5.36976e-06
-0.0103832
5.08219e-06
-0.0109634
4.96964e-06
-0.0115326
4.21811e-06
-0.0121199
3.67258e-06
-0.0126906
2.63948e-06
-0.0132846
1.61915e-06
-0.000277607
-0.000832871
4.13647e-08
-0.00138829
1.65175e-07
-0.00194402
3.68488e-07
-0.00250007
6.48853e-07
-0.00305669
9.97682e-07
-0.00361386
1.41146e-06
-0.00417175
1.87443e-06
-0.00473054
2.38281e-06
-0.00529006
2.91306e-06
-0.00585089
3.45966e-06
-0.00641255
3.99629e-06
-0.00697567
4.5088e-06
-0.0075401
4.98294e-06
-0.00810565
5.37281e-06
-0.00867355
5.71036e-06
-0.00924142
5.86492e-06
-0.0098141
5.99826e-06
-0.0103831
5.71924e-06
-0.0109626
5.60102e-06
-0.011532
4.81136e-06
-0.0121189
4.19339e-06
-0.0126896
2.98896e-06
-0.013283
1.80242e-06
-0.000277648
-0.000832995
4.50695e-08
-0.00138849
1.79952e-07
-0.0019443
4.01516e-07
-0.00250042
7.06893e-07
-0.00305711
1.08719e-06
-0.00361432
1.53802e-06
-0.00417226
2.04354e-06
-0.00473107
2.59841e-06
-0.00529061
3.17942e-06
-0.00585142
3.77832e-06
-0.00641306
4.3691e-06
-0.00697614
4.93377e-06
-0.00754048
5.45709e-06
-0.00810598
5.89059e-06
-0.00867371
6.26105e-06
-0.00924155
6.44372e-06
-0.00981382
6.58266e-06
-0.010383
6.32962e-06
-0.0109619
6.18033e-06
-0.0115314
5.37598e-06
-0.0121177
4.81419e-06
-0.0126884
3.36154e-06
-0.0132812
2.02306e-06
-0.000277693
-0.00083313
4.87258e-08
-0.00138871
1.94525e-07
-0.0019446
4.34029e-07
-0.0025008
7.63922e-07
-0.00305756
1.17485e-06
-0.00361483
1.66162e-06
-0.00417281
2.20799e-06
-0.00473165
2.80745e-06
-0.0052912
3.43655e-06
-0.00585201
4.08542e-06
-0.00641362
4.7274e-06
-0.00697667
5.3424e-06
-0.00754092
5.91283e-06
-0.00810635
6.38897e-06
-0.00867389
6.791e-06
-0.00924169
6.99906e-06
-0.00981357
7.13859e-06
-0.0103828
6.90432e-06
-0.0109611
6.73154e-06
-0.0115307
5.89516e-06
-0.0121163
4.8997e-06
-0.0126871
3.69181e-06
-0.0132792
2.21535e-06
-0.000277742
-0.000833276
5.23318e-08
-0.00138895
2.08892e-07
-0.00194493
4.66062e-07
-0.00250121
8.20056e-07
-0.00305805
1.26098e-06
-0.00361538
1.78279e-06
-0.00417341
2.36866e-06
-0.00473228
3.01095e-06
-0.00529185
3.68575e-06
-0.00585266
4.38182e-06
-0.00641424
5.07185e-06
-0.00697724
5.73422e-06
-0.00754139
6.34926e-06
-0.00810675
6.86635e-06
-0.0086741
7.2994e-06
-0.00924183
7.53083e-06
-0.00981334
7.66942e-06
-0.0103827
7.44903e-06
-0.0109602
7.24671e-06
-0.0115301
6.39868e-06
-0.0121148
5.59435e-06
-0.0126856
4.03295e-06
-0.013277
2.39841e-06
-0.000277794
-0.000833432
5.59017e-08
-0.00138921
2.23119e-07
-0.00194529
4.97791e-07
-0.00250165
8.75681e-07
-0.00305857
1.34631e-06
-0.00361596
1.90278e-06
-0.00417405
2.52748e-06
-0.00473295
3.2116e-06
-0.00529255
3.9305e-06
-0.00585335
4.67167e-06
-0.0064149
5.40688e-06
-0.00697785
6.11358e-06
-0.00754191
6.77006e-06
-0.00810718
7.32574e-06
-0.00867434
7.78896e-06
-0.00924197
8.04489e-06
-0.00981312
8.18926e-06
-0.0103825
7.9708e-06
-0.0109594
7.74277e-06
-0.0115293
6.86306e-06
-0.0121132
6.0076e-06
-0.012684
4.3539e-06
-0.0132746
2.58569e-06
-0.00027785
-0.000833599
5.94277e-08
-0.00138948
2.37178e-07
-0.00194566
5.29178e-07
-0.00250212
9.30774e-07
-0.00305912
1.43092e-06
-0.00361659
2.02185e-06
-0.00417474
2.6851e-06
-0.00473367
3.41059e-06
-0.00529329
4.17264e-06
-0.00585408
4.95744e-06
-0.00641561
5.73552e-06
-0.00697851
6.48358e-06
-0.00754246
7.17791e-06
-0.00810765
7.76862e-06
-0.00867459
8.25906e-06
-0.00924212
8.53787e-06
-0.0098129
8.68885e-06
-0.0103822
8.46817e-06
-0.0109585
8.20525e-06
-0.0115284
7.28813e-06
-0.0121116
6.37417e-06
-0.0126822
4.64906e-06
-0.013272
2.75597e-06
-0.000277909
-0.000833777
6.29091e-08
-0.00138978
2.51065e-07
-0.00194607
5.60209e-07
-0.00250262
9.8532e-07
-0.00305971
1.51481e-06
-0.00361725
2.14011e-06
-0.00417546
2.84182e-06
-0.00473444
3.60859e-06
-0.00529408
4.4135e-06
-0.00585486
5.24124e-06
-0.00641635
6.0608e-06
-0.0069792
6.84799e-06
-0.00754305
7.57698e-06
-0.00810814
8.19897e-06
-0.00867487
8.71291e-06
-0.00924227
9.01144e-06
-0.00981268
9.16647e-06
-0.010382
8.94626e-06
-0.0109576
8.64345e-06
-0.0115275
7.68112e-06
-0.0121098
6.70679e-06
-0.0126803
4.89256e-06
-0.0132692
2.90305e-06
-0.000277972
-0.000833965
6.63476e-08
-0.00139009
2.64781e-07
-0.00194649
5.90866e-07
-0.00250315
1.03924e-06
-0.00306034
1.59782e-06
-0.00361795
2.25727e-06
-0.00417623
2.99729e-06
-0.00473524
3.80528e-06
-0.0052949
4.65302e-06
-0.00585568
5.52356e-06
-0.00641714
6.38408e-06
-0.00697993
7.2092e-06
-0.00754367
7.97062e-06
-0.00810865
8.62053e-06
-0.00867517
9.15383e-06
-0.00924243
9.468e-06
-0.00981247
9.62545e-06
-0.0103817
9.4077e-06
-0.0109566
9.06287e-06
-0.0115265
8.05596e-06
-0.012108
7.01201e-06
-0.0126783
5.05179e-06
-0.0132663
3.02889e-06
-0.000278039
-0.000834163
6.975e-08
-0.00139041
2.78344e-07
-0.00194694
6.21166e-07
-0.00250371
1.09251e-06
-0.003061
1.67978e-06
-0.00361869
2.37295e-06
-0.00417704
3.15086e-06
-0.00473609
3.99978e-06
-0.00529577
4.89018e-06
-0.00585654
5.80352e-06
-0.00641797
6.70507e-06
-0.00698069
7.56791e-06
-0.00754432
8.36096e-06
-0.00810918
9.03681e-06
-0.00867549
9.58601e-06
-0.00924259
9.91094e-06
-0.00981225
1.00669e-05
-0.0103813
9.84909e-06
-0.0109556
9.46337e-06
-0.0115255
8.41813e-06
-0.0121061
7.31082e-06
-0.0126763
5.27139e-06
-0.0132633
3.1612e-06
-0.000278108
-0.000834372
7.31189e-08
-0.00139075
2.91766e-07
-0.00194741
6.51107e-07
-0.0025043
1.14506e-06
-0.00306169
1.76049e-06
-0.00361947
2.48669e-06
-0.00417789
3.3017e-06
-0.00473698
4.19078e-06
-0.00529669
5.12321e-06
-0.00585744
6.07904e-06
-0.00641883
7.02165e-06
-0.00698148
7.92253e-06
-0.007545
8.74763e-06
-0.00810973
9.44927e-06
-0.00867581
1.00132e-05
-0.00924274
1.03456e-05
-0.00981203
1.04934e-05
-0.0103809
1.02629e-05
-0.0109545
9.84308e-06
-0.0115244
8.76008e-06
-0.012104
7.59223e-06
-0.0126741
5.48981e-06
-0.0132601
3.28499e-06
-0.000278181
-0.00083459
7.64447e-08
-0.00139111
3.05003e-07
-0.0019479
6.80584e-07
-0.00250492
1.19667e-06
-0.00306242
1.83956e-06
-0.00362029
2.59784e-06
-0.00417878
3.44875e-06
-0.00473791
4.37668e-06
-0.00529764
5.34985e-06
-0.00585839
6.34714e-06
-0.00641973
7.33028e-06
-0.00698231
8.26928e-06
-0.0075457
9.12721e-06
-0.00811029
9.85572e-06
-0.00867614
1.04356e-05
-0.00924289
1.07758e-05
-0.0098118
1.09145e-05
-0.0103805
1.06674e-05
-0.0109535
1.02126e-05
-0.0115232
9.09272e-06
-0.0121019
7.86269e-06
-0.0126719
5.69084e-06
-0.0132569
3.40154e-06
-0.000278258
-0.000834819
7.97012e-08
-0.00139149
3.17951e-07
-0.00194842
7.09376e-07
-0.00250556
1.24699e-06
-0.00306318
1.91645e-06
-0.00362114
2.70563e-06
-0.0041797
3.59095e-06
-0.00473888
4.55598e-06
-0.00529864
5.568e-06
-0.00585937
6.60496e-06
-0.00642067
7.62722e-06
-0.00698316
8.60361e-06
-0.00754642
9.49465e-06
-0.00811087
1.02512e-05
-0.00867649
1.08493e-05
-0.00924303
1.11996e-05
-0.00981155
1.13313e-05
-0.0103801
1.10697e-05
-0.0109523
1.05754e-05
-0.011522
9.42158e-06
-0.0120998
8.12985e-06
-0.0126696
5.88611e-06
-0.0132535
3.51362e-06
-0.000278337
-0.000835057
8.28306e-08
-0.00139188
3.3039e-07
-0.00194896
7.37023e-07
-0.00250623
1.29527e-06
-0.00306397
1.99014e-06
-0.00362202
2.80876e-06
-0.00418067
3.7267e-06
-0.0047399
4.72672e-06
-0.00529968
5.77521e-06
-0.00586039
6.84931e-06
-0.00642164
7.90832e-06
-0.00698406
8.92022e-06
-0.00754718
9.8435e-06
-0.00811147
1.06284e-05
-0.00867684
1.12468e-05
-0.00924316
1.16102e-05
-0.00981129
1.1739e-05
-0.0103796
1.14656e-05
-0.0109512
1.09315e-05
-0.0115207
9.75048e-06
-0.0120975
8.39945e-06
-0.0126672
6.08129e-06
-0.01325
3.62406e-06
-0.00027842
-0.000835304
8.57561e-08
-0.00139229
3.42022e-07
-0.00194952
7.62904e-07
-0.00250692
1.34051e-06
-0.00306478
2.05926e-06
-0.00362294
2.90552e-06
-0.00418167
3.85403e-06
-0.00474094
4.88667e-06
-0.00530075
5.96891e-06
-0.00586145
7.07719e-06
-0.00642266
8.16982e-06
-0.00698498
9.21426e-06
-0.00754796
1.01674e-05
-0.00811209
1.09795e-05
-0.0086772
1.16189e-05
-0.00924329
1.19981e-05
-0.00981102
1.21291e-05
-0.0103791
1.18484e-05
-0.01095
1.12785e-05
-0.0115193
1.00787e-05
-0.0120952
8.67383e-06
-0.0126648
6.28255e-06
-0.0132463
3.73655e-06
-0.000278506
-0.000835561
8.83888e-08
-0.00139271
3.52504e-07
-0.00195009
7.86279e-07
-0.00250764
1.3815e-06
-0.00306563
2.12208e-06
-0.00362389
2.99373e-06
-0.0041827
3.97035e-06
-0.00474203
5.03297e-06
-0.00530186
6.14604e-06
-0.00586254
7.28525e-06
-0.0064237
8.40797e-06
-0.00698593
9.48123e-06
-0.00754877
1.04607e-05
-0.00811273
1.12969e-05
-0.00867758
1.19556e-05
-0.00924343
1.23511e-05
-0.00981074
1.24884e-05
-0.0103785
1.22078e-05
-0.0109488
1.16163e-05
-0.0115179
1.03986e-05
-0.0120928
8.94566e-06
-0.0126622
6.49076e-06
-0.0132426
3.85305e-06
-0.000278594
-0.000835825
9.06432e-08
-0.00139314
3.61497e-07
-0.00195069
8.06406e-07
-0.00250838
1.41695e-06
-0.0030665
2.17671e-06
-0.00362487
3.07087e-06
-0.00418376
4.0726e-06
-0.00474314
5.16208e-06
-0.005303
6.30277e-06
-0.00586367
7.46949e-06
-0.00642477
8.61859e-06
-0.00698691
9.71661e-06
-0.00754961
1.07182e-05
-0.00811339
1.15743e-05
-0.00867798
1.22488e-05
-0.00924356
1.26578e-05
-0.00981046
1.28014e-05
-0.0103779
1.25246e-05
-0.0109476
1.1923e-05
-0.0115165
1.06888e-05
-0.0120904
9.19587e-06
-0.0126596
6.69596e-06
-0.0132387
3.96949e-06
-0.000278685
-0.000836096
9.24492e-08
-0.00139359
3.68718e-07
-0.0019513
8.22637e-07
-0.00250914
1.44571e-06
-0.0030674
2.22133e-06
-0.00362587
3.13435e-06
-0.00418485
4.15739e-06
-0.00474428
5.26992e-06
-0.00530416
6.43447e-06
-0.00586481
7.62495e-06
-0.00642587
8.79657e-06
-0.00698791
9.91523e-06
-0.00755046
1.09345e-05
-0.00811406
1.18056e-05
-0.00867839
1.24913e-05
-0.00924371
1.29096e-05
-0.00981019
1.30563e-05
-0.0103773
1.27814e-05
-0.0109463
1.21688e-05
-0.011515
1.09253e-05
-0.0120879
9.39937e-06
-0.0126569
6.87185e-06
-0.0132347
4.06866e-06
-0.000278777
-0.000836372
9.37595e-08
-0.00139404
3.73969e-07
-0.00195192
8.34492e-07
-0.00250992
1.46685e-06
-0.00306831
2.25439e-06
-0.00362689
3.18181e-06
-0.00418597
4.22141e-06
-0.00474545
5.35218e-06
-0.00530535
6.5359e-06
-0.00586599
7.74569e-06
-0.00642699
8.93557e-06
-0.00698893
1.00707e-05
-0.00755134
1.11033e-05
-0.00811475
1.19848e-05
-0.00867881
1.26765e-05
-0.00924386
1.30988e-05
-0.00980992
1.32444e-05
-0.0103767
1.29679e-05
-0.0109451
1.2343e-05
-0.0115134
1.10933e-05
-0.0120854
9.52899e-06
-0.0126541
6.97399e-06
-0.0132306
4.11642e-06
-0.000278871
-0.000836652
9.45631e-08
-0.0013945
3.77196e-07
-0.00195255
8.4181e-07
-0.0025107
1.47999e-06
-0.00306924
2.2751e-06
-0.00362793
3.2119e-06
-0.0041871
4.2625e-06
-0.00474663
5.40583e-06
-0.00530656
6.60303e-06
-0.00586718
7.82701e-06
-0.00642812
9.03029e-06
-0.00698996
1.01779e-05
-0.00755222
1.12196e-05
-0.00811544
1.21079e-05
-0.00867923
1.28009e-05
-0.009244
1.32233e-05
-0.00980964
1.33621e-05
-0.0103761
1.30809e-05
-0.0109438
1.24421e-05
-0.0115119
1.11878e-05
-0.0120828
9.57497e-06
-0.0126513
6.96402e-06
-0.0132265
4.08556e-06
-0.000278966
-0.000836935
9.5241e-08
-0.00139497
3.79912e-07
-0.00195319
8.47963e-07
-0.0025115
1.49103e-06
-0.00307017
2.29254e-06
-0.00362898
3.23737e-06
-0.00418824
4.29766e-06
-0.00474783
5.45248e-06
-0.00530779
6.66283e-06
-0.00586838
7.90156e-06
-0.00642927
9.12047e-06
-0.00699101
1.0284e-05
-0.00755311
1.13406e-05
-0.00811613
1.22421e-05
-0.00867965
1.29444e-05
-0.00924414
1.33741e-05
-0.00980936
1.35148e-05
-0.0103754
1.32363e-05
-0.0109426
1.25929e-05
-0.0115102
1.13396e-05
-0.0120802
9.69985e-06
-0.0126484
7.05133e-06
-0.0132224
4.17877e-06
-0.000279061
-0.00083722
9.55261e-08
-0.00139543
3.81052e-07
-0.00195383
8.50549e-07
-0.0025123
1.49568e-06
-0.00307112
2.29995e-06
-0.00363004
3.24835e-06
-0.00418939
4.3132e-06
-0.00474904
5.47383e-06
-0.00530903
6.6915e-06
-0.0058696
7.93936e-06
-0.00643044
9.16914e-06
-0.00699206
1.03449e-05
-0.00755401
1.14146e-05
-0.00811684
1.23287e-05
-0.00868008
1.30417e-05
-0.00924428
1.34796e-05
-0.00980909
1.36242e-05
-0.0103748
1.33487e-05
-0.0109413
1.27014e-05
-0.0115086
1.14476e-05
-0.0120776
9.80102e-06
-0.0126455
7.13793e-06
-0.0132183
4.32784e-06
-0.000279157
-0.000837506
9.53089e-08
-0.0013959
3.80181e-07
-0.00195448
8.48604e-07
-0.00251311
1.49226e-06
-0.00307206
2.29473e-06
-0.00363111
3.24112e-06
-0.00419055
4.30393e-06
-0.00475025
5.46288e-06
-0.00531027
6.67964e-06
-0.00587083
7.92805e-06
-0.00643161
9.1602e-06
-0.00699313
1.03406e-05
-0.00755492
1.14171e-05
-0.00811755
1.23394e-05
-0.00868051
1.30608e-05
-0.00924442
1.35059e-05
-0.00980881
1.36539e-05
-0.0103741
1.33806e-05
-0.0109401
1.27282e-05
-0.0115069
1.14746e-05
-0.0120749
9.82173e-06
-0.0126425
7.16546e-06
-0.0132142
3.9898e-06
-0.000279252
-0.000837791
9.46267e-08
-0.00139637
3.77456e-07
-0.00195512
8.42518e-07
-0.00251391
1.48155e-06
-0.00307301
2.27821e-06
-0.00363217
3.21775e-06
-0.00419171
4.27284e-06
-0.00475147
5.42362e-06
-0.00531152
6.63218e-06
-0.00587206
7.87321e-06
-0.00643279
9.09948e-06
-0.00699421
1.02766e-05
-0.00755585
1.13528e-05
-0.00811827
1.22784e-05
-0.00868096
1.30058e-05
-0.00924457
1.34587e-05
-0.00980854
1.36128e-05
-0.0103735
1.33444e-05
-0.0109388
1.26886e-05
-0.0115053
1.14328e-05
-0.0120723
9.75728e-06
-0.0126396
7.14765e-06
-0.0132099
3.93788e-06
-0.000279347
-0.000838074
9.35066e-08
-0.00139684
3.72995e-07
-0.00195576
8.32583e-07
-0.0025147
1.46413e-06
-0.00307395
2.25144e-06
-0.00363322
3.18001e-06
-0.00419286
4.22268e-06
-0.00475268
5.35998e-06
-0.00531276
6.55435e-06
-0.00587329
7.78134e-06
-0.00643397
8.99445e-06
-0.00699528
1.01606e-05
-0.00755677
1.12292e-05
-0.008119
1.21518e-05
-0.00868141
1.28812e-05
-0.00924472
1.33413e-05
-0.00980827
1.35056e-05
-0.0103728
1.3249e-05
-0.0109375
1.2599e-05
-0.0115036
1.13464e-05
-0.0120697
9.64711e-06
-0.0126367
7.08926e-06
-0.0132056
4.2006e-06
-0.00027944
-0.000838354
9.1976e-08
-0.0013973
3.66909e-07
-0.00195639
8.19066e-07
-0.00251549
1.44052e-06
-0.00307488
2.21534e-06
-0.00363427
3.12937e-06
-0.004194
4.15572e-06
-0.00475387
5.27537e-06
-0.00531399
6.45101e-06
-0.0058745
7.65895e-06
-0.00643514
8.85323e-06
-0.00699635
1.00021e-05
-0.00755769
1.1056e-05
-0.00811973
1.19688e-05
-0.00868187
1.26941e-05
-0.00924489
1.31579e-05
-0.00980801
1.33333e-05
-0.0103722
1.30953e-05
-0.0109363
1.24653e-05
-0.0115019
1.12353e-05
-0.0120672
9.54551e-06
-0.0126338
7.01643e-06
-0.0132014
4.16807e-06
-0.000279533
-0.000838629
9.0075e-08
-0.00139775
3.59357e-07
-0.00195701
8.02309e-07
-0.00251627
1.4113e-06
-0.00307579
2.17081e-06
-0.00363529
3.06715e-06
-0.00419512
4.07392e-06
-0.00475505
5.17258e-06
-0.0053152
6.32615e-06
-0.00587569
7.51163e-06
-0.00643629
8.68338e-06
-0.00699741
9.81076e-06
-0.00755861
1.08449e-05
-0.00812046
1.17416e-05
-0.00868233
1.2456e-05
-0.00924506
1.29171e-05
-0.00980776
1.30999e-05
-0.0103716
1.2881e-05
-0.0109351
1.228e-05
-0.0115002
1.10892e-05
-0.0120646
9.43558e-06
-0.0126309
6.93707e-06
-0.0131973
4.12185e-06
-0.000279623
-0.000838898
8.78622e-08
-0.00139819
3.50565e-07
-0.00195762
7.82791e-07
-0.00251703
1.37727e-06
-0.00307669
2.11897e-06
-0.0036363
2.99485e-06
-0.00419622
3.97913e-06
-0.0047562
5.05398e-06
-0.00531638
6.18288e-06
-0.00587686
7.34359e-06
-0.00643741
8.49078e-06
-0.00699844
9.59457e-06
-0.0075595
1.06063e-05
-0.00812117
1.14833e-05
-0.00868279
1.21813e-05
-0.00924524
1.26331e-05
-0.00980754
1.2816e-05
-0.010371
1.26111e-05
-0.0109339
1.20395e-05
-0.0114986
1.08953e-05
-0.0120621
9.29237e-06
-0.0126281
6.85651e-06
-0.0131931
4.06769e-06
-0.000279711
-0.000839161
8.54119e-08
-0.00139863
3.40821e-07
-0.00195822
7.61126e-07
-0.00251777
1.33942e-06
-0.00307756
2.06125e-06
-0.00363728
2.91425e-06
-0.00419729
3.87345e-06
-0.00475733
4.92188e-06
-0.00531754
6.0238e-06
-0.00587801
7.15788e-06
-0.00643852
8.27929e-06
-0.00699945
9.35889e-06
-0.00756038
1.03479e-05
-0.00812187
1.12045e-05
-0.00868324
1.18841e-05
-0.00924543
1.23226e-05
-0.00980733
1.24987e-05
-0.0103704
1.22992e-05
-0.0109327
1.17494e-05
-0.011497
1.06495e-05
-0.0120597
9.11008e-06
-0.0126253
6.77446e-06
-0.0131891
4.00778e-06
-0.000279796
-0.000839417
8.28061e-08
-0.00139905
3.30444e-07
-0.0019588
7.38005e-07
-0.00251849
1.29893e-06
-0.00307841
1.99929e-06
-0.00363824
2.82749e-06
-0.00419834
3.75936e-06
-0.00475843
4.77895e-06
-0.00531868
5.85152e-06
-0.00587913
6.95697e-06
-0.0064396
8.05134e-06
-0.00700044
9.10641e-06
-0.00756123
1.00734e-05
-0.00812255
1.09111e-05
-0.00868368
1.15739e-05
-0.0092456
1.19997e-05
-0.00980713
1.21665e-05
-0.0103698
1.1966e-05
-0.0109316
1.14259e-05
-0.0114954
1.0356e-05
-0.0120574
8.8759e-06
-0.0126226
6.64766e-06
-0.0131851
3.93073e-06
-0.000279879
-0.000839665
8.01205e-08
-0.00139945
3.19734e-07
-0.00195936
7.14082e-07
-0.00251919
1.2569e-06
-0.00307924
1.93476e-06
-0.00363918
2.73676e-06
-0.00419936
3.63954e-06
-0.00475951
4.6282e-06
-0.00531978
5.66905e-06
-0.00588023
6.74353e-06
-0.00644065
7.80892e-06
-0.00700141
8.83829e-06
-0.00756207
9.78346e-06
-0.00812322
1.06038e-05
-0.00868411
1.12534e-05
-0.00924577
1.16705e-05
-0.00980693
1.18323e-05
-0.0103693
1.16316e-05
-0.0109306
1.10955e-05
-0.0114939
1.00414e-05
-0.0120551
8.59274e-06
-0.0126198
6.41941e-06
-0.0131811
3.82005e-06
-0.000279959
-0.000839904
7.74113e-08
-0.00139985
3.08915e-07
-0.0019599
6.89868e-07
-0.00251987
1.21424e-06
-0.00308004
1.86905e-06
-0.00364008
2.64402e-06
-0.00420035
3.51652e-06
-0.00476055
4.47258e-06
-0.00532086
5.4796e-06
-0.00588129
6.5206e-06
-0.00644168
7.5544e-06
-0.00700235
8.5556e-06
-0.00756289
9.47726e-06
-0.00812387
1.02801e-05
-0.00868453
1.09187e-05
-0.00924593
1.13319e-05
-0.00980673
1.14962e-05
-0.0103688
1.13033e-05
-0.0109295
1.07777e-05
-0.0114925
9.73952e-06
-0.012053
8.31367e-06
-0.0126172
6.18638e-06
-0.0131773
3.67642e-06
-0.000280037
-0.000840136
7.47084e-08
-0.00140023
2.98111e-07
-0.00196042
6.65645e-07
-0.00252052
1.17149e-06
-0.00308082
1.80303e-06
-0.00364095
2.55057e-06
-0.00420131
3.39207e-06
-0.00476156
4.31443e-06
-0.0053219
5.28596e-06
-0.00588233
6.29122e-06
-0.00644268
7.29053e-06
-0.00700327
8.26015e-06
-0.00756369
9.15475e-06
-0.00812451
9.93717e-06
-0.00868494
1.05637e-05
-0.00924609
1.09745e-05
-0.00980654
1.11474e-05
-0.0103682
1.09711e-05
-0.0109285
1.04697e-05
-0.011491
9.45743e-06
-0.0120509
8.05857e-06
-0.0126147
5.9689e-06
-0.0131736
3.48989e-06
-0.000280111
-0.000840359
7.20088e-08
-0.0014006
2.87312e-07
-0.00196093
6.41416e-07
-0.00252115
1.12867e-06
-0.00308157
1.73683e-06
-0.00364179
2.45669e-06
-0.00420223
3.26677e-06
-0.00476253
4.15463e-06
-0.0053229
5.08951e-06
-0.00588332
6.05715e-06
-0.00644365
7.01926e-06
-0.00700416
7.95364e-06
-0.00756448
8.81664e-06
-0.00812513
9.57359e-06
-0.00868535
1.01833e-05
-0.00924626
1.05881e-05
-0.00980637
1.07696e-05
-0.0103677
1.06137e-05
-0.0109275
1.01503e-05
-0.0114896
9.18045e-06
-0.0120488
7.83595e-06
-0.0126123
5.78855e-06
-0.0131702
3.31609e-06
-0.000280183
-0.000840574
6.92881e-08
-0.00140095
2.76428e-07
-0.00196142
6.16984e-07
-0.00252176
1.08547e-06
-0.00308229
1.66999e-06
-0.0036426
2.36183e-06
-0.00420312
3.14e-06
-0.00476347
3.99267e-06
-0.00532387
4.88991e-06
-0.00588428
5.81842e-06
-0.00644458
6.74109e-06
-0.00700502
7.63691e-06
-0.00756523
8.46395e-06
-0.00812574
9.18962e-06
-0.00868576
9.77564e-06
-0.00924644
1.01664e-05
-0.00980622
1.03493e-05
-0.0103673
1.02081e-05
-0.0109265
9.78578e-06
-0.0114883
8.86662e-06
-0.0120467
7.6081e-06
-0.0126098
5.64307e-06
-0.0131668
3.29075e-06
-0.000280252
-0.000840781
6.64955e-08
-0.00140129
2.65258e-07
-0.00196189
5.91915e-07
-0.00252235
1.04113e-06
-0.00308298
1.60136e-06
-0.00364338
2.26437e-06
-0.00420397
3.0097e-06
-0.00476437
3.82607e-06
-0.0053248
4.6844e-06
-0.00588521
5.5721e-06
-0.00644548
6.45323e-06
-0.00700585
7.30754e-06
-0.00756596
8.09493e-06
-0.00812633
8.78402e-06
-0.00868614
9.33938e-06
-0.00924662
9.70661e-06
-0.00980608
9.87956e-06
-0.0103668
9.74e-06
-0.0109256
9.34858e-06
-0.011487
8.47072e-06
-0.0120447
7.30348e-06
-0.0126074
5.43267e-06
-0.0131635
3.22442e-06
-0.000280319
-0.00084098
6.35621e-08
-0.00140162
2.53521e-07
-0.00196233
5.65575e-07
-0.00252291
9.94526e-07
-0.00308364
1.52921e-06
-0.00364413
2.16187e-06
-0.00420479
2.87259e-06
-0.00476523
3.65073e-06
-0.00532569
4.4679e-06
-0.00588609
5.31251e-06
-0.00644633
6.14908e-06
-0.00700664
6.95922e-06
-0.00756665
7.70281e-06
-0.00812689
8.35193e-06
-0.00868651
8.86903e-06
-0.0092468
9.20645e-06
-0.00980594
9.35463e-06
-0.0103664
9.20629e-06
-0.0109247
8.82281e-06
-0.0114859
7.97496e-06
-0.0120428
6.87535e-06
-0.0126053
5.10093e-06
-0.0131603
3.0408e-06
-0.000280382
-0.000841169
6.07432e-08
-0.00140193
2.4223e-07
-0.00196276
5.4025e-07
-0.00252344
9.49742e-07
-0.00308427
1.45991e-06
-0.00364484
2.06353e-06
-0.00420557
2.74121e-06
-0.00476604
3.48313e-06
-0.00532653
4.26137e-06
-0.00588692
5.06573e-06
-0.00644714
5.86054e-06
-0.00700738
6.6305e-06
-0.0075673
7.33408e-06
-0.00812741
7.94878e-06
-0.00868684
8.43082e-06
-0.00924695
8.74392e-06
-0.00980579
8.86654e-06
-0.0103661
8.71282e-06
-0.0109239
8.32647e-06
-0.0114848
7.5081e-06
-0.0120411
6.45172e-06
-0.0126032
4.76362e-06
-0.0131573
2.81317e-06
-0.000280443
-0.00084135
5.82498e-08
-0.00140223
2.32255e-07
-0.00196317
5.17904e-07
-0.00252395
9.10273e-07
-0.00308488
1.39896e-06
-0.00364552
1.97725e-06
-0.00420631
2.62644e-06
-0.00476682
3.33736e-06
-0.00532734
4.08305e-06
-0.00588772
4.85381e-06
-0.00644791
5.61533e-06
-0.00700808
6.3532e-06
-0.00756791
7.02874e-06
-0.0081279
7.61871e-06
-0.00868715
8.0817e-06
-0.00924707
8.38015e-06
-0.00980564
8.49832e-06
-0.0103657
8.34632e-06
-0.010923
7.97826e-06
-0.0114837
7.18711e-06
-0.0120394
6.19279e-06
-0.0126013
4.56638e-06
-0.0131545
2.73653e-06
-0.000280501
-0.000841524
5.55514e-08
-0.00140251
2.21466e-07
-0.00196357
4.93759e-07
-0.00252444
8.67638e-07
-0.00308545
1.33312e-06
-0.00364617
1.88404e-06
-0.00420702
2.50249e-06
-0.00476757
3.17994e-06
-0.00532811
3.89047e-06
-0.00588848
4.62474e-06
-0.00644865
5.35004e-06
-0.00700875
6.0528e-06
-0.0075685
6.69801e-06
-0.00812836
7.26073e-06
-0.00868745
7.70322e-06
-0.00924719
7.98548e-06
-0.00980548
8.1018e-06
-0.0103653
7.95294e-06
-0.0109222
7.60464e-06
-0.0114827
6.83836e-06
-0.0120378
5.89386e-06
-0.0125994
4.32128e-06
-0.0131517
2.6565e-06
-0.000280556
-0.000841689
5.26198e-08
-0.00140278
2.09753e-07
-0.00196394
4.67573e-07
-0.00252491
8.21439e-07
-0.00308601
1.26181e-06
-0.00364678
1.78315e-06
-0.0042077
2.36841e-06
-0.00476828
3.00978e-06
-0.00532884
3.68236e-06
-0.0058892
4.37718e-06
-0.00644935
5.06316e-06
-0.00700939
5.7277e-06
-0.00756906
6.33991e-06
-0.00812881
6.87252e-06
-0.00868774
7.29195e-06
-0.00924731
7.5559e-06
-0.00980531
7.67255e-06
-0.010365
7.53074e-06
-0.0109215
7.21085e-06
-0.0114818
6.47525e-06
-0.0120362
5.56936e-06
-0.0125977
4.03178e-06
-0.0131491
2.46008e-06
-0.000280608
-0.000841846
4.94308e-08
-0.00140304
1.97023e-07
-0.00196429
4.3915e-07
-0.00252535
7.71342e-07
-0.00308653
1.18455e-06
-0.00364737
1.67395e-06
-0.00420834
2.22348e-06
-0.00476895
2.82604e-06
-0.00532954
3.45789e-06
-0.00588989
4.11017e-06
-0.00645002
4.75386e-06
-0.00701
5.37709e-06
-0.00756958
5.95399e-06
-0.00812924
6.45341e-06
-0.00868801
6.84745e-06
-0.00924743
7.0896e-06
-0.00980515
7.20704e-06
-0.0103647
7.07236e-06
-0.0109207
6.791e-06
-0.0114809
6.09514e-06
-0.0120347
5.27322e-06
-0.0125962
4.04425e-06
-0.0131466
2.31378e-06
-0.000280658
-0.000841993
4.5963e-08
-0.00140328
1.83193e-07
-0.00196463
4.08303e-07
-0.00252576
7.17034e-07
-0.00308702
1.10088e-06
-0.00364792
1.55582e-06
-0.00420894
2.06688e-06
-0.00476959
2.62779e-06
-0.00533019
3.21597e-06
-0.00589053
3.82252e-06
-0.00645064
4.42105e-06
-0.00701057
4.99989e-06
-0.00757008
5.53935e-06
-0.00812964
6.0028e-06
-0.00868827
6.37024e-06
-0.00924754
6.58775e-06
-0.009805
6.70654e-06
-0.0103644
6.57532e-06
-0.0109201
6.32828e-06
-0.01148
5.67086e-06
-0.0120331
4.96389e-06
-0.0125947
3.62355e-06
-0.0131443
2.16145e-06
-0.000280703
-0.00084213
4.22071e-08
-0.00140351
1.68218e-07
-0.00196494
3.74919e-07
-0.00252615
6.58293e-07
-0.00308747
1.01045e-06
-0.00364843
1.42824e-06
-0.0042095
1.89793e-06
-0.00477017
2.41412e-06
-0.0053308
2.95555e-06
-0.00589113
3.51301e-06
-0.00645122
4.0636e-06
-0.0070111
4.59481e-06
-0.00757054
5.09479e-06
-0.00813001
5.51927e-06
-0.00868851
5.86009e-06
-0.00924765
6.05138e-06
-0.00980487
6.17666e-06
-0.0103641
6.04575e-06
-0.0109194
5.82161e-06
-0.0114793
5.17163e-06
-0.0120317
4.5987e-06
-0.0125933
3.3176e-06
-0.0131421
1.98414e-06
-0.000280745
-0.000842255
3.8173e-08
-0.00140371
1.5212e-07
-0.00196522
3.39002e-07
-0.0025265
5.95077e-07
-0.00308789
9.13132e-07
-0.0036489
1.29102e-06
-0.00421002
1.71625e-06
-0.00477072
2.18445e-06
-0.00533136
2.67588e-06
-0.00589169
3.18066e-06
-0.00645175
3.68069e-06
-0.0070116
4.16089e-06
-0.00757095
4.61953e-06
-0.00813036
5.00137e-06
-0.00868871
5.31612e-06
-0.00924776
5.47921e-06
-0.00980475
5.61757e-06
-0.0103639
5.48325e-06
-0.0109188
5.33019e-06
-0.0114787
5.02162e-06
-0.0120305
4.09303e-06
-0.012592
3.01279e-06
-0.0131401
1.79427e-06
-0.000280783
-0.000842368
3.38871e-08
-0.0014039
1.34972e-07
-0.00196548
3.00676e-07
-0.00252682
5.27563e-07
-0.00308827
8.0912e-07
-0.00364932
1.14437e-06
-0.00421048
1.52205e-06
-0.00477121
1.93883e-06
-0.00533186
2.37681e-06
-0.00589219
2.82493e-06
-0.00645223
3.27204e-06
-0.00701205
3.69769e-06
-0.00757133
4.11401e-06
-0.00813068
4.44859e-06
-0.00868889
4.74038e-06
-0.00924788
4.87088e-06
-0.00980464
5.02643e-06
-0.0103637
4.87735e-06
-0.0109181
4.81643e-06
-0.0114782
4.32859e-06
-0.0120294
3.66273e-06
-0.0125907
2.73085e-06
-0.0131383
1.61648e-06
-0.000280817
-0.000842469
2.93645e-08
-0.00140407
1.16848e-07
-0.0019657
2.60095e-07
-0.0025271
4.56045e-07
-0.00308861
6.98843e-07
-0.0036497
9.88941e-07
-0.0042109
1.31622e-06
-0.00477164
1.67824e-06
-0.00533231
2.05926e-06
-0.00589264
2.44627e-06
-0.00645265
2.83858e-06
-0.00701245
3.20515e-06
-0.00757166
3.5805e-06
-0.00813098
3.86047e-06
-0.00868903
4.13961e-06
-0.00924803
4.2295e-06
-0.00980448
4.42776e-06
-0.0103637
4.56066e-06
-0.0109175
4.14349e-06
-0.0114776
3.74139e-06
-0.0120285
3.20074e-06
-0.0125896
2.39837e-06
-0.0131367
1.41919e-06
-0.000280846
-0.000842556
2.45661e-08
-0.00140421
9.77458e-08
-0.0019659
2.17403e-07
-0.00252735
3.80938e-07
-0.0030889
5.83098e-07
-0.00365003