/*--------------------------------*- C++ -*----------------------------------*\
  =========                 |
  \\      /  F ield         | OpenFOAM: The Open Source CFD Toolbox
   \\    /   O peration     | Website:  https://openfoam.org
    \\  /    A nd           | Version:  10
     \\/     M anipulation  |
\*---------------------------------------------------------------------------*/
FoamFile
{
    format      ascii;
    class       volScalarField;
    location    "0.32";
    object      rho;
}
// * * * * * * * * * * * * * * * * * * * * * * * * * * * * * * * * * * * * * //

dimensions      [1 -3 0 0 0 0 0];

internalField   nonuniform List<scalar> 
4176
(
0.0308487
0.0308517
0.0308579
0.0308683
0.0308814
0.0308977
0.0309187
0.0309401
0.0309693
0.0309956
0.0310323
0.0310647
0.0311069
0.0311476
0.0311924
0.0312439
0.0312872
0.0313549
0.0313933
0.031479
0.0315108
0.031616
0.0316362
0.0317504
0.0308567
0.0308596
0.0308648
0.0308748
0.0308858
0.0309016
0.0309192
0.0309399
0.0309649
0.0309899
0.031022
0.0310523
0.0310899
0.031127
0.0311681
0.0312141
0.0312542
0.0313144
0.03135
0.0314266
0.0314539
0.031554
0.0315747
0.0317037
0.030876
0.0308789
0.0308845
0.0308946
0.0309062
0.0309224
0.030941
0.0309621
0.0309885
0.031014
0.0310477
0.0310787
0.0311182
0.0311562
0.0311995
0.0312468
0.0312892
0.031352
0.0313877
0.0314681
0.0314956
0.0315944
0.0316132
0.0317344
0.0309047
0.0309076
0.030913
0.0309229
0.0309341
0.0309498
0.0309679
0.0309883
0.0310142
0.0310387
0.031072
0.0311016
0.0311408
0.031177
0.03122
0.0312654
0.0313075
0.0313703
0.0314014
0.0314842
0.0315094
0.0316068
0.0316244
0.0317368
0.0309442
0.030947
0.0309524
0.0309623
0.0309735
0.0309893
0.0310073
0.0310279
0.0310535
0.0310784
0.0311113
0.0311412
0.0311801
0.0312165
0.0312596
0.0313044
0.0313484
0.0314082
0.0314429
0.0315236
0.0315505
0.0316474
0.0316665
0.0317804
0.0309937
0.0309965
0.0310017
0.0310116
0.0310226
0.0310382
0.0310558
0.0310763
0.0311014
0.0311261
0.0311583
0.0311881
0.0312263
0.0312623
0.0313049
0.0313488
0.0313932
0.03145
0.0314881
0.0315648
0.0315926
0.0316883
0.0317083
0.0318237
0.0310536
0.0310564
0.0310616
0.0310714
0.0310822
0.0310978
0.0311152
0.0311356
0.0311603
0.0311848
0.0312168
0.0312463
0.0312842
0.0313198
0.0313623
0.0314053
0.03145
0.0315052
0.0315442
0.0316189
0.031648
0.0317421
0.0317624
0.0318758
0.0311237
0.0311265
0.0311316
0.0311414
0.031152
0.0311675
0.0311846
0.0312048
0.0312292
0.0312534
0.031285
0.031314
0.0313516
0.0313865
0.0314287
0.0314709
0.0315156
0.0315689
0.0316091
0.0316812
0.0317113
0.0318039
0.0318247
0.0319368
0.0312042
0.031207
0.031212
0.0312217
0.0312322
0.0312475
0.0312644
0.0312844
0.0313084
0.0313324
0.0313636
0.0313922
0.0314294
0.0314638
0.0315056
0.031547
0.0315916
0.0316433
0.0316843
0.031754
0.031785
0.0318758
0.0318969
0.0320072
0.031295
0.0312978
0.0313028
0.0313124
0.0313227
0.0313378
0.0313545
0.0313742
0.0313979
0.0314215
0.0314523
0.0314805
0.0315172
0.031551
0.0315925
0.0316329
0.0316774
0.0317274
0.0317691
0.0318364
0.0318685
0.0319567
0.0319785
0.032087
0.0313963
0.031399
0.0314039
0.0314134
0.0314236
0.0314386
0.0314549
0.0314744
0.0314978
0.031521
0.0315514
0.0315791
0.0316153
0.0316484
0.0316895
0.0317289
0.0317733
0.0318218
0.0318639
0.0319288
0.0319619
0.0320473
0.0320697
0.0321762
0.031508
0.0315108
0.0315156
0.031525
0.0315349
0.0315497
0.0315658
0.031585
0.031608
0.0316309
0.0316607
0.0316879
0.0317236
0.031756
0.0317966
0.0318351
0.0318791
0.0319262
0.0319687
0.0320312
0.0320649
0.032148
0.0321705
0.0322749
0.0316303
0.031633
0.0316377
0.031647
0.0316567
0.0316714
0.0316871
0.031706
0.0317286
0.0317511
0.0317805
0.0318071
0.0318423
0.031874
0.031914
0.0319515
0.0319951
0.0320407
0.0320835
0.0321436
0.0321778
0.0322585
0.0322811
0.0323833
0.0317632
0.0317659
0.0317705
0.0317797
0.0317892
0.0318036
0.031819
0.0318376
0.0318597
0.0318818
0.0319106
0.0319367
0.0319713
0.0320023
0.0320417
0.0320782
0.0321213
0.0321654
0.0322083
0.032266
0.0323009
0.0323788
0.0324014
0.0325013
0.0319068
0.0319095
0.031914
0.031923
0.0319323
0.0319464
0.0319615
0.0319797
0.0320014
0.032023
0.0320513
0.0320768
0.0321108
0.0321409
0.0321797
0.0322151
0.0322577
0.0323003
0.0323432
0.0323986
0.0324337
0.0325092
0.0325317
0.0326291
0.0320612
0.0320639
0.0320683
0.0320771
0.0320862
0.0321
0.0321147
0.0321326
0.0321537
0.0321748
0.0322025
0.0322273
0.0322607
0.03229
0.0323282
0.0323625
0.0324045
0.0324456
0.0324882
0.0325411
0.0325768
0.0326492
0.0326723
0.0327669
0.0322265
0.0322291
0.0322334
0.0322421
0.0322509
0.0322645
0.0322787
0.0322962
0.0323168
0.0323373
0.0323644
0.0323885
0.0324211
0.0324496
0.032487
0.0325202
0.0325616
0.0326012
0.0326435
0.032694
0.03273
0.0327994
0.0328228
0.0329146
0.0324028
0.0324054
0.0324095
0.0324181
0.0324265
0.0324399
0.0324537
0.0324707
0.0324908
0.0325107
0.0325371
0.0325604
0.0325923
0.0326198
0.0326564
0.0326884
0.0327291
0.0327671
0.0328091
0.0328571
0.0328934
0.0329599
0.0329836
0.0330723
0.0325901
0.0325927
0.0325967
0.0326051
0.0326133
0.0326262
0.0326396
0.0326562
0.0326756
0.0326949
0.0327206
0.0327432
0.0327742
0.0328007
0.0328365
0.0328673
0.0329071
0.0329436
0.032985
0.0330307
0.0330672
0.0331305
0.0331546
0.0332402
0.0327887
0.0327912
0.0327951
0.0328033
0.0328111
0.0328238
0.0328367
0.0328527
0.0328716
0.0328902
0.0329151
0.0329368
0.032967
0.0329924
0.0330273
0.0330568
0.0330957
0.0331306
0.0331714
0.0332147
0.0332512
0.0333117
0.0333359
0.0334183
0.0329986
0.0330011
0.0330047
0.0330127
0.0330202
0.0330325
0.0330449
0.0330604
0.0330786
0.0330965
0.0331206
0.0331415
0.0331707
0.0331951
0.033229
0.0332571
0.0332951
0.0333283
0.0333684
0.0334093
0.0334459
0.0335031
0.0335277
0.0336067
0.0332199
0.0332223
0.0332258
0.0332336
0.0332407
0.0332526
0.0332644
0.0332794
0.0332969
0.0333141
0.0333373
0.0333573
0.0333856
0.0334088
0.0334416
0.0334684
0.0335054
0.0335369
0.0335761
0.0336147
0.033651
0.0337051
0.0337299
0.0338055
0.0334527
0.0334551
0.0334584
0.0334659
0.0334727
0.0334841
0.0334954
0.0335098
0.0335265
0.0335429
0.0335653
0.0335843
0.0336116
0.0336336
0.0336654
0.0336908
0.0337266
0.0337563
0.0337946
0.0338309
0.0338671
0.0339177
0.0339428
0.0340147
0.0336971
0.0336994
0.0337026
0.0337098
0.0337162
0.0337272
0.0337379
0.0337516
0.0337676
0.0337832
0.0338047
0.0338226
0.0338489
0.0338697
0.0339004
0.0339243
0.033959
0.0339869
0.0340241
0.034058
0.0340938
0.0341412
0.0341663
0.0342344
0.0339532
0.0339555
0.0339584
0.0339654
0.0339713
0.0339819
0.033992
0.0340051
0.0340202
0.034035
0.0340555
0.0340724
0.0340976
0.0341172
0.0341467
0.0341691
0.0342026
0.0342287
0.0342648
0.0342963
0.0343317
0.0343756
0.0344006
0.0344648
0.034221
0.0342233
0.034226
0.0342327
0.0342383
0.0342484
0.0342578
0.0342702
0.0342846
0.0342984
0.034318
0.0343338
0.0343578
0.0343761
0.0344044
0.0344253
0.0344575
0.0344818
0.0345167
0.0345459
0.0345806
0.0346212
0.034646
0.0347064
0.0345007
0.0345029
0.0345054
0.0345119
0.034517
0.0345267
0.0345354
0.0345472
0.0345607
0.0345737
0.0345921
0.0346068
0.0346297
0.0346467
0.0346737
0.0346929
0.0347239
0.0347463
0.03478
0.0348068
0.0348407
0.0348778
0.0349026
0.0349593
0.0347923
0.0347945
0.0347968
0.034803
0.0348077
0.0348169
0.034825
0.034836
0.0348487
0.0348607
0.0348782
0.0348917
0.0349134
0.034929
0.0349547
0.0349723
0.0350019
0.0350224
0.0350548
0.0350793
0.0351122
0.0351459
0.0351704
0.0352234
0.035096
0.0350981
0.0351002
0.0351062
0.0351104
0.0351191
0.0351265
0.0351369
0.0351487
0.0351598
0.0351762
0.0351885
0.035209
0.0352231
0.0352475
0.0352634
0.0352916
0.0353101
0.0353412
0.0353633
0.0353953
0.0354253
0.0354496
0.0354987
0.0354117
0.0354138
0.0354157
0.0354214
0.0354252
0.0354334
0.0354402
0.0354498
0.0354607
0.0354709
0.0354862
0.0354974
0.0355166
0.0355293
0.0355523
0.0355665
0.0355933
0.0356097
0.0356395
0.0356591
0.03569
0.0357165
0.035741
0.0357852
0.0357397
0.0357417
0.0357434
0.0357489
0.0357522
0.0357599
0.035766
0.035775
0.035785
0.0357942
0.0358085
0.0358184
0.0358364
0.0358476
0.0358692
0.0358817
0.035907
0.0359214
0.0359496
0.0359668
0.0359966
0.0360196
0.036044
0.0360836
0.03608
0.036082
0.0360834
0.0360886
0.0360915
0.0360987
0.0361041
0.0361123
0.0361215
0.0361298
0.0361429
0.0361517
0.0361684
0.0361782
0.0361985
0.0362091
0.0362329
0.0362452
0.0362719
0.0362865
0.036315
0.036335
0.0363587
0.0363942
0.0364327
0.0364346
0.0364359
0.0364408
0.0364431
0.0364499
0.0364546
0.0364621
0.0364703
0.0364777
0.0364898
0.0364974
0.0365128
0.0365212
0.03654
0.0365489
0.0365712
0.0365813
0.0366066
0.0366186
0.0366457
0.0366623
0.0366859
0.0367166
0.0367978
0.0367997
0.0368007
0.0368054
0.0368073
0.0368136
0.0368176
0.0368244
0.0368317
0.0368381
0.0368491
0.0368555
0.0368697
0.0368765
0.0368941
0.0369011
0.036922
0.03693
0.0369537
0.0369631
0.0369887
0.0370022
0.0370253
0.0370512
0.0371755
0.0371774
0.0371782
0.0371826
0.037184
0.0371898
0.0371931
0.0371992
0.0372056
0.037211
0.037221
0.0372261
0.0372391
0.0372445
0.0372607
0.037266
0.0372854
0.0372912
0.0373135
0.0373203
0.0373444
0.0373545
0.037377
0.0373984
0.0375659
0.0375677
0.0375683
0.0375724
0.0375734
0.0375788
0.0375814
0.0375868
0.0375923
0.0375968
0.0376056
0.0376095
0.0376213
0.0376251
0.0376399
0.0376435
0.0376614
0.0376651
0.0376859
0.0376902
0.0377128
0.0377198
0.0377413
0.0377578
0.037969
0.0379707
0.0379711
0.037975
0.0379756
0.0379805
0.0379824
0.0379871
0.0379918
0.0379953
0.038003
0.0380058
0.0380162
0.0380186
0.038032
0.0380337
0.0380502
0.0380517
0.0380711
0.0380728
0.0380941
0.0380979
0.0381181
0.0381301
0.0383849
0.0383866
0.0383868
0.0383905
0.0383906
0.0383951
0.0383964
0.0384004
0.0384042
0.0384067
0.0384134
0.038415
0.0384242
0.0384251
0.038437
0.0384369
0.038452
0.0384513
0.0384692
0.0384683
0.0384881
0.0384889
0.0385082
0.0385151
0.0388138
0.0388155
0.0388155
0.0388189
0.0388186
0.0388226
0.0388233
0.0388266
0.0388296
0.0388312
0.0388369
0.0388372
0.0388452
0.0388446
0.0388552
0.0388532
0.0388668
0.0388639
0.0388802
0.0388767
0.0388952
0.0388928
0.0389112
0.0389134
0.0392559
0.0392575
0.0392573
0.0392605
0.0392598
0.0392633
0.0392633
0.039266
0.0392681
0.0392688
0.0392734
0.0392726
0.0392794
0.0392773
0.0392865
0.0392827
0.0392948
0.0392897
0.0393045
0.0392983
0.0393152
0.0393097
0.039327
0.0393251
0.0397112
0.0397128
0.0397124
0.0397153
0.0397142
0.0397173
0.0397166
0.0397186
0.0397198
0.0397197
0.0397232
0.0397213
0.0397268
0.0397233
0.0397311
0.0397255
0.0397361
0.0397288
0.0397421
0.0397331
0.0397487
0.0397397
0.0397558
0.0397502
0.0401798
0.0401814
0.0401808
0.0401835
0.0401819
0.0401845
0.0401832
0.0401846
0.0401849
0.0401839
0.0401864
0.0401832
0.0401875
0.0401826
0.0401891
0.0401816
0.0401909
0.0401813
0.0401932
0.0401813
0.0401956
0.0401831
0.0401982
0.0401882
0.0406619
0.0406635
0.0406627
0.0406651
0.0406631
0.0406653
0.0406633
0.040664
0.0406635
0.0406615
0.0406629
0.0406586
0.0406617
0.0406553
0.0406605
0.0406512
0.0406592
0.0406472
0.0406579
0.0406431
0.0406564
0.04064
0.0406544
0.0406396
0.0411576
0.0411591
0.0411581
0.0411604
0.0411579
0.0411596
0.041157
0.041157
0.0411556
0.0411527
0.0411531
0.0411476
0.0411495
0.0411416
0.0411455
0.0411343
0.0411409
0.0411267
0.0411361
0.0411184
0.0411307
0.0411107
0.0411244
0.0411048
0.041667
0.0416685
0.0416673
0.0416693
0.0416663
0.0416676
0.0416643
0.0416636
0.0416613
0.0416575
0.0416568
0.0416501
0.0416508
0.0416414
0.041644
0.041631
0.0416363
0.0416197
0.0416279
0.0416072
0.0416188
0.041595
0.0416081
0.0415841
0.0421902
0.0421916
0.0421902
0.0421919
0.0421885
0.0421894
0.0421853
0.042184
0.0421808
0.0421761
0.0421743
0.0421664
0.0421658
0.042155
0.0421562
0.0421413
0.0421453
0.0421263
0.0421335
0.0421097
0.0421206
0.0420931
0.0421056
0.0420768
0.0427271
0.0427285
0.0427269
0.0427284
0.0427245
0.0427249
0.0427202
0.0427182
0.0427141
0.0427084
0.0427056
0.0426965
0.0426947
0.0426823
0.0426823
0.0426655
0.0426681
0.0426467
0.0426528
0.0426259
0.0426362
0.0426046
0.0426173
0.0425831
0.0432779
0.0432793
0.0432774
0.0432787
0.0432743
0.0432743
0.0432689
0.0432662
0.0432612
0.0432546
0.0432507
0.0432404
0.0432374
0.0432235
0.0432221
0.0432035
0.0432048
0.0431809
0.043186
0.0431559
0.0431654
0.0431298
0.0431429
0.0431035
0.0438425
0.0438439
0.0438418
0.0438429
0.043838
0.0438376
0.0438314
0.043828
0.0438222
0.0438146
0.0438097
0.0437982
0.0437939
0.0437785
0.0437759
0.0437553
0.0437554
0.0437289
0.0437333
0.0436999
0.0437088
0.0436684
0.0436825
0.0436379
0.044421
0.0444223
0.04442
0.0444209
0.0444155
0.0444146
0.0444078
0.0444038
0.044397
0.0443885
0.0443825
0.0443698
0.0443644
0.0443474
0.0443436
0.044321
0.04432
0.0442909
0.0442945
0.0442577
0.0442664
0.0442215
0.0442357
0.0441863
0.0450132
0.0450145
0.045012
0.0450126
0.0450068
0.0450055
0.044998
0.0449933
0.0449857
0.0449762
0.0449692
0.0449553
0.0449488
0.0449301
0.0449253
0.0449006
0.0448986
0.0448669
0.0448697
0.0448292
0.0448387
0.0447887
0.0448027
0.0447488
0.0456191
0.0456203
0.0456177
0.045618
0.0456118
0.0456101
0.0456019
0.0455965
0.0455881
0.0455777
0.0455698
0.0455545
0.045547
0.0455267
0.045521
0.045494
0.0454914
0.0454568
0.0454593
0.0454143
0.0454245
0.0453704
0.045384
0.0453257
0.0462385
0.0462397
0.0462369
0.0462371
0.0462304
0.0462283
0.0462194
0.0462134
0.0462043
0.0461929
0.0461841
0.0461675
0.0461592
0.046137
0.0461306
0.0461011
0.0460983
0.0460602
0.0460634
0.046014
0.0460239
0.0459663
0.0459793
0.0459168
0.0468713
0.0468725
0.0468695
0.0468695
0.0468624
0.0468599
0.0468505
0.0468439
0.046834
0.0468216
0.0468121
0.0467941
0.0467852
0.046761
0.0467543
0.0467219
0.0467195
0.0466771
0.0466812
0.0466285
0.046637
0.0465766
0.0465888
0.0465222
0.0475174
0.0475186
0.0475154
0.0475152
0.0475077
0.0475049
0.0474948
0.0474877
0.0474771
0.0474638
0.0474537
0.0474341
0.047425
0.0473984
0.047392
0.0473562
0.0473545
0.0473089
0.0473119
0.0472569
0.0472646
0.0472009
0.0472125
0.0471419
0.0481765
0.0481777
0.0481743
0.048174
0.0481661
0.0481631
0.0481524
0.0481447
0.0481335
0.0481191
0.0481089
0.0480873
0.0480786
0.0480491
0.0480435
0.0480047
0.0480022
0.0479552
0.0479565
0.0478996
0.0479059
0.0478396
0.0478502
0.0477759
0.0488484
0.0488497
0.0488461
0.0488458
0.0488374
0.0488341
0.0488229
0.0488146
0.0488032
0.0487873
0.0487776
0.0487535
0.0487456
0.0487135
0.0487077
0.0486673
0.0486636
0.0486148
0.0486152
0.0485562
0.0485613
0.0484921
0.0485022
0.0484242
0.0495329
0.0495343
0.0495303
0.0495302
0.0495212
0.049518
0.0495061
0.0494972
0.049486
0.0494685
0.0494588
0.0494337
0.0494248
0.049392
0.0493848
0.0493432
0.0493386
0.0492884
0.0492872
0.0492265
0.0492305
0.049159
0.0491681
0.0490867
0.0502298
0.0502313
0.050227
0.0502271
0.0502174
0.0502145
0.0502019
0.0501928
0.0501809
0.0501631
0.0501525
0.0501268
0.050117
0.0500834
0.0500752
0.0500328
0.0500268
0.0499753
0.0499729
0.0499106
0.0499134
0.0498395
0.049848
0.0497632
0.0509389
0.0509404
0.0509361
0.050936
0.0509263
0.050923
0.0509097
0.0509013
0.050888
0.0508702
0.0508589
0.0508326
0.0508221
0.0507877
0.0507786
0.0507352
0.0507282
0.0506753
0.0506721
0.050608
0.0506099
0.0505339
0.0505415
0.0504537
0.05166
0.0516616
0.0516573
0.051657
0.0516472
0.0516438
0.0516301
0.0516219
0.051607
0.0515903
0.0515774
0.051551
0.0515396
0.0515048
0.0514945
0.0514506
0.0514427
0.0513888
0.0513841
0.0513189
0.0513196
0.0512416
0.0512486
0.0511579
0.052393
0.0523946
0.0523903
0.0523899
0.05238
0.0523765
0.0523625
0.0523542
0.0523385
0.0523223
0.0523078
0.0522821
0.0522694
0.0522343
0.0522231
0.0521788
0.0521697
0.0521146
0.0521095
0.0520426
0.0520425
0.0519627
0.0519689
0.0518755
0.0531377
0.0531393
0.053135
0.0531346
0.0531245
0.053121
0.0531067
0.0530985
0.0530821
0.0530662
0.0530504
0.0530254
0.0530111
0.0529761
0.0529639
0.0529192
0.0529092
0.0528535
0.052847
0.052779
0.052778
0.0526966
0.0527021
0.0526063
0.0538941
0.0538957
0.0538914
0.0538911
0.0538808
0.0538773
0.0538628
0.0538545
0.0538375
0.0538219
0.0538051
0.0537805
0.0537651
0.0537301
0.0537167
0.0536718
0.0536606
0.0536041
0.0535972
0.0535278
0.0535259
0.0534431
0.0534479
0.0533499
0.0546621
0.0546638
0.0546594
0.0546592
0.0546488
0.0546453
0.0546304
0.0546221
0.0546047
0.0545893
0.0545716
0.0545471
0.0545306
0.0544957
0.0544813
0.0544359
0.054424
0.054367
0.0543589
0.0542886
0.054286
0.0542016
0.0542058
0.0541059
0.0554419
0.0554437
0.0554392
0.055439
0.0554284
0.0554249
0.0554097
0.0554014
0.0553834
0.0553681
0.0553495
0.0553251
0.0553076
0.0552728
0.0552576
0.0552114
0.0551987
0.0551411
0.0551323
0.055061
0.0550575
0.0549721
0.0549755
0.0548738
0.0562333
0.0562352
0.0562306
0.0562304
0.0562196
0.056216
0.0562005
0.056192
0.0561736
0.0561582
0.0561387
0.0561144
0.0560959
0.0560606
0.0560449
0.0559979
0.0559846
0.0559264
0.0559166
0.0558447
0.0558403
0.0557537
0.0557566
0.0556534
0.0570364
0.0570384
0.0570336
0.0570334
0.0570222
0.0570186
0.0570026
0.0569939
0.0569749
0.0569593
0.0569387
0.0569145
0.0568948
0.0568595
0.056843
0.056795
0.0567812
0.0567223
0.0567116
0.0566391
0.0566338
0.0565465
0.0565485
0.0564441
0.0578509
0.0578529
0.0578479
0.0578477
0.0578361
0.0578322
0.0578157
0.0578066
0.057787
0.0577711
0.0577493
0.0577253
0.0577041
0.0576688
0.0576513
0.0576025
0.0575884
0.0575285
0.0575168
0.0574442
0.0574378
0.0573497
0.0573512
0.0572457
0.0586762
0.0586783
0.0586731
0.0586727
0.0586607
0.0586564
0.0586393
0.0586297
0.0586093
0.058593
0.0585701
0.0585461
0.0585233
0.0584883
0.0584689
0.0584206
0.0584055
0.0583444
0.0583322
0.0582594
0.058252
0.0581636
0.0581643
0.0580579
0.0595114
0.0595135
0.059508
0.0595074
0.059495
0.0594902
0.0594726
0.0594625
0.0594414
0.0594244
0.0594005
0.0593766
0.0593518
0.0593178
0.0592958
0.0592487
0.0592321
0.0591704
0.0591574
0.0590847
0.0590763
0.0589875
0.0589876
0.0588807
0.0603547
0.0603568
0.0603513
0.0603504
0.0603378
0.0603326
0.0603146
0.0603039
0.0602822
0.0602648
0.0602401
0.060216
0.0601897
0.0601563
0.0601324
0.0600861
0.0600674
0.0600064
0.059993
0.0599196
0.0599106
0.0598219
0.0598213
0.059714
0.0612042
0.0612063
0.0612008
0.0611998
0.0611872
0.0611819
0.0611637
0.0611529
0.0611309
0.0611132
0.061088
0.061064
0.0610365
0.0610039
0.060978
0.0609331
0.0609117
0.0608533
0.060838
0.0607643
0.060755
0.0606665
0.0606655
0.0605581
0.0620576
0.0620597
0.0620545
0.0620537
0.0620413
0.0620363
0.0620183
0.0620078
0.0619861
0.0619686
0.0619436
0.0619198
0.0618919
0.0618602
0.0618327
0.0617897
0.0617661
0.0617092
0.061693
0.0616193
0.0616098
0.0615217
0.0615205
0.0614132
0.0629129
0.0629153
0.0629104
0.0629101
0.0628983
0.0628941
0.0628769
0.0628673
0.0628464
0.06283
0.0628057
0.0627829
0.0627554
0.0627249
0.0626969
0.0626557
0.0626309
0.0625754
0.0625576
0.0624854
0.0624755
0.0623876
0.0623864
0.0622795
0.0637694
0.063772
0.0637677
0.0637682
0.0637573
0.0637543
0.0637384
0.0637304
0.063711
0.0636962
0.0636735
0.0636525
0.0636262
0.0635977
0.0635702
0.0635312
0.0635053
0.0634527
0.0634329
0.0633632
0.0633524
0.0632648
0.0632637
0.0631571
0.064628
0.0646308
0.0646271
0.0646286
0.0646188
0.0646174
0.0646031
0.064597
0.0645795
0.064567
0.0645464
0.0645279
0.0645036
0.0644775
0.0644518
0.0644156
0.0643903
0.0643403
0.0643205
0.0642524
0.0642415
0.0641538
0.0641529
0.0640463
0.0654918
0.065495
0.0654918
0.0654943
0.0654855
0.0654856
0.0654728
0.0654687
0.0654533
0.065443
0.0654248
0.065409
0.0653873
0.0653641
0.065341
0.0653076
0.0652846
0.0652374
0.0652197
0.0651529
0.0651433
0.0650558
0.065055
0.0649473
0.0663665
0.0663703
0.0663671
0.0663706
0.0663622
0.0663637
0.0663516
0.0663493
0.0663351
0.066327
0.0663105
0.0662973
0.0662776
0.0662572
0.0662373
0.0662057
0.0661873
0.0661413
0.0661281
0.0660629
0.0660572
0.0659705
0.0659711
0.0658627
0.06726
0.0672645
0.0672604
0.0672653
0.0672555
0.0672589
0.0672452
0.0672453
0.0672297
0.067224
0.0672072
0.0671959
0.0671772
0.0671581
0.0671424
0.0671081
0.0670997
0.0670476
0.0670455
0.0669772
0.0669789
0.0668946
0.0668987
0.066796
0.0681814
0.0681854
0.0681821
0.0681851
0.0681764
0.0681771
0.0681646
0.0681615
0.068147
0.0681387
0.0681223
0.0681098
0.0680903
0.0680733
0.0680548
0.0680234
0.0680145
0.0679653
0.0679635
0.0678978
0.0679028
0.0678203
0.0678293
0.0677343
0.0691391
0.0691428
0.0691389
0.069141
0.0691307
0.0691298
0.0691151
0.0691098
0.0690926
0.0690815
0.0690624
0.0690471
0.069025
0.069006
0.0689827
0.0689549
0.068938
0.0688927
0.0688885
0.0688228
0.0688296
0.0687455
0.0687578
0.0686631
0.0701395
0.070143
0.0701382
0.070139
0.0701267
0.0701234
0.0701056
0.0700969
0.0700758
0.0700605
0.0700366
0.0700166
0.0699893
0.0699655
0.0699364
0.0699053
0.0698816
0.0698354
0.069826
0.0697565
0.0697636
0.0696745
0.0696893
0.0695904
0.0711861
0.0711898
0.0711836
0.0711834
0.0711685
0.0711629
0.0711414
0.0711293
0.0711031
0.0710832
0.0710531
0.0710272
0.0709927
0.070962
0.0709246
0.0708865
0.0708546
0.0708007
0.0707852
0.0707072
0.0707117
0.0706139
0.0706292
0.0705219
0.0722789
0.072283
0.0722751
0.0722744
0.072257
0.0722497
0.0722242
0.0722097
0.0721774
0.0721549
0.0721163
0.0720867
0.0720422
0.072005
0.0719581
0.0719102
0.07187
0.0718014
0.0717783
0.0716865
0.0716837
0.0715725
0.0715854
0.0714644
0.0734145
0.0734181
0.0734107
0.0734078
0.0733902
0.0733799
0.0733535
0.0733342
0.0733012
0.0732714
0.0732316
0.0731931
0.0731453
0.0730992
0.0730437
0.0729897
0.0729316
0.0728581
0.0728179
0.072713
0.0726957
0.0725659
0.0725705
0.0724275
0.0745864
0.0745897
0.0745823
0.0745788
0.0745604
0.0745491
0.0745214
0.0745006
0.0744652
0.0744332
0.0743904
0.0743485
0.0742965
0.0742455
0.0741842
0.0741234
0.0740542
0.0739801
0.073912
0.0738092
0.0737654
0.0736181
0.0736062
0.07343
0.0757865
0.0757897
0.0757824
0.0757788
0.0757602
0.0757487
0.0757205
0.0756992
0.0756632
0.0756303
0.0755865
0.0755431
0.0754896
0.0754365
0.0753728
0.0753089
0.0752356
0.0751574
0.0750787
0.0749779
0.0749045
0.0747602
0.0747212
0.0745075
0.0770061
0.0770094
0.0770023
0.076999
0.0769806
0.0769695
0.0769416
0.0769208
0.0768852
0.0768527
0.0768094
0.0767665
0.0767134
0.0766607
0.0765974
0.0765339
0.0764608
0.0763828
0.0763038
0.0762045
0.076125
0.0759889
0.0759324
0.0757068
0.0782366
0.0782403
0.0782333
0.0782307
0.0782128
0.0782026
0.0781755
0.0781558
0.0781213
0.0780903
0.0780484
0.0780073
0.077956
0.0779053
0.0778443
0.0777833
0.0777128
0.0776379
0.0775635
0.0774659
0.0773982
0.0772605
0.0772206
0.0770223
0.07947
0.079474
0.0794675
0.0794656
0.0794484
0.0794394
0.0794134
0.0793954
0.0793624
0.0793334
0.0792935
0.0792549
0.0792061
0.0791586
0.0791007
0.0790434
0.0789767
0.0789065
0.0788366
0.0787448
0.0786826
0.0785528
0.0785157
0.078332
0.0806994
0.0807037
0.0806975
0.0806965
0.0806801
0.0806725
0.0806478
0.0806316
0.0806005
0.0805739
0.0805363
0.0805007
0.0804549
0.0804109
0.0803565
0.0803034
0.0802409
0.080176
0.0801106
0.0800257
0.079968
0.079848
0.0798131
0.0796432
0.0819184
0.0819232
0.0819173
0.0819173
0.0819017
0.0818957
0.0818722
0.0818583
0.0818288
0.0818051
0.0817697
0.0817377
0.0816944
0.0816547
0.0816037
0.0815553
0.0814972
0.081438
0.0813772
0.0812982
0.0812462
0.0811356
0.081103
0.0809469
0.0831224
0.0831275
0.0831214
0.0831232
0.0831076
0.083104
0.083081
0.0830701
0.0830416
0.0830218
0.0829875
0.0829604
0.0829186
0.0828845
0.0828357
0.0827932
0.0827386
0.0826853
0.0826297
0.0825565
0.0825092
0.0824085
0.082378
0.0822356
0.0843069
0.0843122
0.0843063
0.0843093
0.0842941
0.0842926
0.0842703
0.0842625
0.0842346
0.084219
0.0841855
0.0841637
0.0841226
0.0840953
0.0840471
0.0840124
0.0839595
0.083913
0.0838617
0.0837957
0.0837518
0.0836612
0.083633
0.0835039
0.0854682
0.0854737
0.0854686
0.0854715
0.0854586
0.0854568
0.0854378
0.0854298
0.0854063
0.0853908
0.0853623
0.0853413
0.0853056
0.0852801
0.0852372
0.0852059
0.0851578
0.0851172
0.0850684
0.0850108
0.0849703
0.0848894
0.0848635
0.0847473
0.0866036
0.0866093
0.0866049
0.0866081
0.0865965
0.0865956
0.0865786
0.0865718
0.0865511
0.0865368
0.0865123
0.0864926
0.086462
0.0864379
0.0864008
0.0863718
0.0863293
0.0862933
0.0862484
0.0861994
0.0861609
0.0860897
0.086066
0.0859622
0.0877111
0.0877166
0.0877128
0.0877166
0.087706
0.0877062
0.0876907
0.0876854
0.087667
0.0876546
0.0876331
0.0876155
0.0875888
0.0875672
0.0875346
0.0875089
0.0874709
0.0874396
0.0873987
0.0873576
0.0873216
0.0872588
0.0872375
0.0871457
0.0887885
0.0887939
0.0887906
0.0887949
0.0887852
0.0887864
0.0887724
0.0887687
0.0887522
0.0887418
0.088723
0.0887078
0.0886843
0.0886656
0.0886369
0.0886146
0.0885812
0.0885542
0.0885173
0.0884827
0.0884487
0.0883959
0.0883763
0.0882961
0.0898342
0.0898397
0.0898367
0.0898416
0.0898326
0.0898351
0.0898221
0.0898201
0.0898054
0.0897969
0.0897806
0.0897676
0.0897473
0.0897314
0.0897064
0.0896874
0.089658
0.0896351
0.0896028
0.0895736
0.089542
0.0894986
0.0894801
0.0894113
0.0908473
0.0908528
0.0908503
0.0908554
0.0908476
0.0908505
0.0908393
0.0908383
0.0908256
0.0908187
0.0908048
0.090794
0.0907766
0.0907633
0.0907416
0.0907258
0.0907004
0.0906814
0.090653
0.0906292
0.0906004
0.0905654
0.0905485
0.0904899
0.0918272
0.0918326
0.0918299
0.0918364
0.091828
0.0918333
0.0918218
0.0918232
0.0918114
0.0918068
0.0917947
0.0917862
0.0917714
0.0917607
0.0917421
0.0917293
0.0917074
0.0916921
0.0916675
0.0916479
0.0916236
0.0915953
0.0915803
0.0915311
0.092773
0.0927781
0.0927767
0.0927817
0.0927765
0.0927797
0.092772
0.0927724
0.0927637
0.0927596
0.0927502
0.0927433
0.0927311
0.0927228
0.0927071
0.0926972
0.0926787
0.0926669
0.0926459
0.0926308
0.0926093
0.092588
0.0925744
0.0925338
0.0936844
0.0936901
0.0936871
0.0936956
0.0936868
0.0936956
0.0936842
0.0936898
0.0936794
0.0936789
0.09367
0.0936657
0.0936555
0.0936495
0.0936365
0.0936293
0.0936139
0.0936052
0.0935878
0.0935764
0.093559
0.0935425
0.0935301
0.0934985
0.094562
0.0945664
0.0945666
0.0945702
0.0945689
0.0945704
0.0945678
0.0945676
0.0945637
0.0945611
0.094556
0.0945523
0.0945447
0.0945406
0.0945302
0.0945254
0.094513
0.0945073
0.0944928
0.0944854
0.0944708
0.0944592
0.0944489
0.0944249
0.0954047
0.0954106
0.0954071
0.0954177
0.0954077
0.0954205
0.095408
0.0954182
0.0954082
0.0954119
0.0954053
0.0954049
0.0953984
0.0953966
0.0953883
0.095386
0.095376
0.0953731
0.0953615
0.0953572
0.0953459
0.0953382
0.0953303
0.0953133
0.0962144
0.096218
0.0962201
0.0962215
0.0962249
0.0962232
0.0962266
0.0962243
0.0962257
0.0962234
0.0962227
0.0962213
0.0962178
0.0962173
0.0962113
0.096211
0.0962036
0.0962032
0.0961942
0.0961933
0.0961841
0.0961806
0.0961749
0.0961642
0.0969896
0.0969955
0.0969918
0.0970037
0.0969931
0.0970088
0.0969958
0.0970096
0.0969998
0.0970073
0.0970023
0.0970054
0.097002
0.0970038
0.0969995
0.0970013
0.096996
0.096998
0.0969914
0.0969933
0.0969869
0.096987
0.0969834
0.0969781
0.0977331
0.0977359
0.0977394
0.0977395
0.0977457
0.0977425
0.0977499
0.0977463
0.097752
0.09775
0.097753
0.0977534
0.0977534
0.0977559
0.0977536
0.0977571
0.097754
0.097758
0.0977538
0.0977584
0.097754
0.0977576
0.0977561
0.0977555
0.0984429
0.0984485
0.0984455
0.0984565
0.0984484
0.0984629
0.0984527
0.0984667
0.0984592
0.0984685
0.0984656
0.0984712
0.0984704
0.0984751
0.0984742
0.0984794
0.098478
0.0984841
0.0984816
0.0984886
0.0984864
0.0984931
0.098493
0.0984971
0.0991228
0.0991252
0.0991288
0.0991296
0.0991352
0.0991343
0.0991414
0.0991398
0.0991467
0.0991464
0.0991514
0.0991539
0.0991564
0.0991614
0.0991621
0.0991688
0.099169
0.0991767
0.0991763
0.0991855
0.0991847
0.0991942
0.0991955
0.0992036
0.0997702
0.0997752
0.0997739
0.0997822
0.0997786
0.0997888
0.0997847
0.0997951
0.0997925
0.099801
0.0998011
0.0998079
0.0998097
0.0998165
0.0998183
0.0998262
0.0998279
0.0998373
0.0998381
0.0998493
0.0998501
0.0998622
0.0998644
0.0998763
0.10039
0.100392
0.100395
0.100397
0.100401
0.100404
0.100408
0.100411
0.100416
0.100419
0.100424
0.100429
0.100433
0.100441
0.100444
0.100453
0.100456
0.100466
0.100469
0.100482
0.100484
0.100498
0.100501
0.100516
0.100979
0.100983
0.100983
0.100989
0.100989
0.100996
0.100997
0.101003
0.101006
0.101012
0.101016
0.101023
0.101027
0.101035
0.101039
0.101049
0.101053
0.101065
0.101069
0.101083
0.101086
0.101102
0.101106
0.101124
0.101541
0.101543
0.101546
0.101548
0.101553
0.101556
0.10156
0.101565
0.101569
0.101575
0.10158
0.101587
0.101592
0.101601
0.101606
0.101617
0.101622
0.101635
0.10164
0.101655
0.101659
0.101677
0.101682
0.101702
0.102075
0.102079
0.10208
0.102085
0.102086
0.102092
0.102095
0.102101
0.102105
0.102111
0.102117
0.102124
0.10213
0.10214
0.102145
0.102157
0.102163
0.102177
0.102182
0.102199
0.102204
0.102223
0.102228
0.102251
0.102585
0.102587
0.10259
0.102592
0.102597
0.102599
0.102605
0.10261
0.102615
0.102622
0.102627
0.102636
0.102642
0.102652
0.102658
0.102671
0.102677
0.102692
0.102698
0.102716
0.102721
0.102742
0.102747
0.102773
0.103069
0.103071
0.103073
0.103077
0.103079
0.103085
0.103088
0.103095
0.103099
0.103107
0.103113
0.103121
0.103128
0.103139
0.103145
0.103158
0.103165
0.103181
0.103188
0.103206
0.103212
0.103235
0.10324
0.103267
0.103529
0.103531
0.103534
0.103536
0.10354
0.103544
0.103549
0.103554
0.10356
0.103567
0.103574
0.103583
0.10359
0.103601
0.103608
0.103622
0.103629
0.103645
0.103653
0.103672
0.103679
0.103702
0.103708
0.103736
0.103966
0.103968
0.103971
0.103973
0.103977
0.103981
0.103986
0.103992
0.103997
0.104006
0.104012
0.104021
0.104028
0.10404
0.104048
0.104062
0.104069
0.104086
0.104094
0.104114
0.104121
0.104146
0.104151
0.104181
0.104382
0.104384
0.104385
0.104389
0.104392
0.104397
0.104401
0.104408
0.104413
0.104421
0.104428
0.104437
0.104445
0.104457
0.104465
0.104479
0.104487
0.104504
0.104513
0.104534
0.104541
0.104566
0.104572
0.104602
0.104776
0.104778
0.10478
0.104782
0.104787
0.10479
0.104796
0.104802
0.104808
0.104816
0.104823
0.104832
0.10484
0.104852
0.10486
0.104875
0.104884
0.104901
0.10491
0.104931
0.104939
0.104964
0.10497
0.105002
0.10515
0.105152
0.105154
0.105157
0.105161
0.105166
0.10517
0.105177
0.105182
0.10519
0.105197
0.105207
0.105215
0.105227
0.105236
0.105251
0.105259
0.105277
0.105286
0.105308
0.105316
0.105342
0.105348
0.105381
0.105506
0.105507
0.105509
0.105513
0.105516
0.105521
0.105525
0.105531
0.105538
0.105545
0.105553
0.105563
0.105571
0.105583
0.105592
0.105607
0.105616
0.105634
0.105643
0.105664
0.105673
0.105699
0.105705
0.105739
0.105843
0.105844
0.105847
0.105849
0.105853
0.105857
0.105862
0.105868
0.105874
0.105883
0.105889
0.1059
0.105908
0.10592
0.105929
0.105944
0.105953
0.105972
0.10598