/*--------------------------------*- C++ -*----------------------------------*\
  =========                 |
  \\      /  F ield         | OpenFOAM: The Open Source CFD Toolbox
   \\    /   O peration     | Website:  https://openfoam.org
    \\  /    A nd           | Version:  10
     \\/     M anipulation  |
\*---------------------------------------------------------------------------*/
FoamFile
{
    format      ascii;
    class       volScalarField;
    location    "0.32";
    object      T;
}
// * * * * * * * * * * * * * * * * * * * * * * * * * * * * * * * * * * * * * //

dimensions      [0 0 0 1 0 0 0];

internalField   nonuniform List<scalar> 
4176
(
180.347
180.351
180.372
180.382
180.426
180.445
180.506
180.538
180.613
180.66
180.749
180.809
180.913
180.985
181.101
181.192
181.307
181.43
181.534
181.702
181.777
182.011
182.025
182.326
180.356
180.361
180.382
180.393
180.436
180.457
180.518
180.552
180.628
180.677
180.767
180.83
180.935
181.01
181.128
181.221
181.339
181.465
181.572
181.743
181.818
182.062
182.08
182.411
180.384
180.389
180.409
180.42
180.462
180.483
180.542
180.576
180.649
180.698
180.785
180.847
180.95
181.022
181.139
181.229
181.346
181.468
181.572
181.739
181.811
182.049
182.067
182.408
180.436
180.44
180.461
180.472
180.514
180.534
180.594
180.627
180.7
180.749
180.837
180.897
181.001
181.073
181.191
181.28
181.398
181.522
181.622
181.794
181.862
182.098
182.113
182.439
180.511
180.515
180.536
180.546
180.588
180.608
180.667
180.7
180.772
180.82
180.907
180.967
181.07
181.14
181.258
181.344
181.464
181.586
181.683
181.857
181.923
182.157
182.172
182.487
180.61
180.614
180.634
180.645
180.686
180.706
180.764
180.797
180.869
180.917
181.002
181.062
181.164
181.234
181.351
181.436
181.558
181.673
181.777
181.945
182.014
182.245
182.263
182.578
180.733
180.737
180.757
180.768
180.808
180.828
180.886
180.918
180.989
181.037
181.12
181.18
181.28
181.35
181.465
181.549
181.671
181.781
181.89
182.051
182.122
182.35
182.37
182.684
180.88
180.884
180.904
180.914
180.955
180.974
181.031
181.063
181.132
181.18
181.263
181.322
181.421
181.489
181.604
181.686
181.808
181.914
182.025
182.181
182.255
182.478
182.5
182.809
181.05
181.055
181.074
181.084
181.124
181.143
181.2
181.231
181.3
181.347
181.428
181.486
181.584
181.651
181.765
181.845
181.967
182.069
182.181
182.332
182.409
182.626
182.651
182.955
181.245
181.249
181.269
181.278
181.318
181.337
181.392
181.423
181.491
181.537
181.617
181.675
181.771
181.837
181.949
182.028
182.148
182.248
182.361
182.506
182.585
182.797
182.823
183.122
181.463
181.468
181.487
181.496
181.535
181.553
181.608
181.639
181.706
181.751
181.83
181.886
181.981
182.046
182.157
182.233
182.353
182.449
182.563
182.703
182.782
182.991
183.017
183.31
181.705
181.709
181.728
181.737
181.776
181.794
181.848
181.878
181.944
181.988
182.066
182.121
182.215
182.278
182.387
182.461
182.58
182.673
182.787
182.922
183.003
183.205
183.232
183.52
181.971
181.975
181.994
182.003
182.041
182.058
182.111
182.14
182.205
182.248
182.325
182.379
182.471
182.533
182.64
182.713
182.829
182.919
183.033
183.163
183.245
183.44
183.469
183.751
182.26
182.264
182.283
182.291
182.329
182.345
182.398
182.426
182.49
182.532
182.608
182.66
182.751
182.811
182.916
182.987
183.102
183.189
183.302
183.427
183.509
183.7
183.728
184.004
182.573
182.577
182.595
182.604
182.641
182.657
182.708
182.736
182.798
182.839
182.913
182.964
183.053
183.111
183.215
183.284
183.397
183.481
183.593
183.713
183.796
183.98
184.008
184.278
182.91
182.914
182.932
182.94
182.976
182.991
183.042
183.069
183.13
183.17
183.242
183.292
183.379
183.435
183.537
183.603
183.714
183.795
183.907
184.022
184.104
184.282
184.311
184.573
183.271
183.275
183.292
183.3
183.335
183.35
183.4
183.425
183.485
183.524
183.594
183.642
183.728
183.782
183.882
183.946
184.054
184.132
184.242
184.352
184.435
184.606
184.635
184.891
183.655
183.659
183.676
183.683
183.718
183.732
183.781
183.805
183.864
183.901
183.97
184.016
184.099
184.152
184.249
184.31
184.417
184.492
184.6
184.705
184.788
184.952
184.982
185.23
184.063
184.067
184.084
184.09
184.125
184.137
184.185
184.208
184.266
184.301
184.368
184.413
184.494
184.544
184.639
184.698
184.802
184.874
184.98
185.08
185.162
185.32
185.35
185.59
184.495
184.498
184.515
184.521
184.555
184.567
184.614
184.635
184.691
184.725
184.79
184.833
184.912
184.96
185.052
185.108
185.21
185.278
185.382
185.477
185.559
185.71
185.74
185.973
184.95
184.954
184.97
184.975
185.008
185.019
185.065
185.085
185.14
185.172
185.235
185.276
185.352
185.398
185.488
185.541
185.64
185.705
185.806
185.896
185.977
186.122
186.152
186.377
185.429
185.433
185.448
185.453
185.486
185.496
185.54
185.559
185.612
185.642
185.704
185.742
185.816
185.859
185.946
185.997
186.092
186.154
186.252
186.338
186.418
186.555
186.585
186.803
185.932
185.935
185.951
185.955
185.986
185.995
186.038
186.056
186.107
186.136
186.195
186.231
186.302
186.343
186.427
186.475
186.568
186.626
186.721
186.802
186.88
187.011
187.04
187.251
186.458
186.461
186.476
186.48
186.511
186.518
186.56
186.576
186.625
186.652
186.709
186.743
186.812
186.85
186.931
186.976
187.065
187.12
187.212
187.288
187.364
187.488
187.516
187.72
187.008
187.011
187.025
187.028
187.058
187.065
187.105
187.12
187.167
187.192
187.246
187.278
187.344
187.379
187.458
187.499
187.585
187.636
187.725
187.796
187.871
187.987
188.014
188.21
187.581
187.584
187.598
187.6
187.629
187.634
187.673
187.686
187.732
187.754
187.807
187.836
187.899
187.932
188.007
188.045
188.128
188.175
188.26
188.327
188.399
188.509
188.535
188.722
188.177
188.179
188.193
188.195
188.223
188.227
188.265
188.276
188.319
188.34
188.39
188.416
188.477
188.507
188.579
188.613
188.693
188.736
188.818
188.88
188.949
189.053
189.077
189.255
188.796
188.798
188.812
188.813
188.84
188.843
188.879
188.888
188.93
188.948
188.996
189.02
189.078
189.104
189.173
189.204
189.28
189.32
189.398
189.455
189.522
189.618
189.643
189.81
189.438
189.44
189.453
189.453
189.479
189.481
189.516
189.523
189.563
189.58
189.625
189.646
189.701
189.724
189.79
189.818
189.89
189.926
190
190.053
190.116
190.205
190.23
190.387
190.102
190.104
190.117
190.116
190.141
190.142
190.175
190.181
190.219
190.233
190.276
190.295
190.347
190.367
190.429
190.454
190.522
190.554
190.624
190.673
190.732
190.814
190.836
190.987
190.789
190.791
190.803
190.802
190.826
190.825
190.857
190.862
190.898
190.91
190.95
190.966
191.015
191.032
191.091
191.112
191.177
191.204
191.271
191.314
191.37
191.446
191.465
191.609
191.498
191.5
191.512
191.51
191.533
191.531
191.562
191.564
191.598
191.608
191.646
191.659
191.706
191.72
191.775
191.792
191.854
191.877
191.94
191.978
192.031
192.099
192.119
192.251
192.23
192.231
192.242
192.24
192.262
192.259
192.288
192.289
192.321
192.329
192.364
192.375
192.419
192.43
192.482
192.495
192.553
192.572
192.631
192.664
192.713
192.775
192.792
192.916
192.983
192.984
192.995
192.992
193.013
193.009
193.037
193.036
193.066
193.071
193.105
193.113
193.154
193.161
193.21
193.22
193.274
193.289
193.344
193.372
193.417
193.473
193.488
193.603
193.758
193.759
193.769
193.765
193.786
193.78
193.807
193.804
193.833
193.836
193.867
193.872
193.91
193.915
193.961
193.967
194.018
194.028
194.079
194.103
194.143
194.193
194.207
194.311
194.554
194.555
194.565
194.56
194.58
194.573
194.598
194.594
194.621
194.622
194.651
194.653
194.689
194.69
194.733
194.735
194.783
194.789
194.836
194.855
194.892
194.935
194.946
195.042
195.371
195.373
195.382
195.377
195.395
195.388
195.411
195.406
195.43
195.43
195.456
195.456
195.489
195.487
195.527
195.526
195.57
195.572
195.615
195.629
195.662
195.7
195.708
195.794
196.21
196.211
196.22
196.214
196.232
196.223
196.246
196.238
196.261
196.258
196.283
196.28
196.31
196.305
196.342
196.337
196.378
196.375
196.416
196.424
196.455
196.486
196.491
196.568
197.069
197.07
197.079
197.072
197.089
197.08
197.101
197.092
197.113
197.108
197.13
197.126
197.153
197.145
197.179
197.17
197.208
197.201
197.238
197.241
197.268
197.294
197.295
197.363
197.949
197.95
197.958
197.951
197.968
197.957
197.977
197.966
197.986
197.979
197.999
197.992
198.017
198.006
198.036
198.024
198.058
198.047
198.081
198.079
198.103
198.122
198.121
198.181
198.85
198.85
198.858
198.851
198.866
198.854
198.873
198.861
198.879
198.871
198.888
198.879
198.901
198.887
198.915
198.899
198.93
198.914
198.945
198.938
198.959
198.972
198.968
199.02
199.77
199.771
199.779
199.77
199.785
199.772
199.79
199.776
199.793
199.782
199.798
199.786
199.806
199.789
199.814
199.795
199.823
199.803
199.831
199.818
199.836
199.843
199.835
199.88
200.711
200.712
200.719
200.71
200.724
200.71
200.726
200.712
200.726
200.714
200.728
200.713
200.731
200.711
200.734
200.711
200.736
200.712
200.737
200.719
200.733
200.734
200.723
200.761
201.672
201.672
201.679
201.67
201.683
201.668
201.683
201.667
201.68
201.666
201.678
201.661
201.676
201.654
201.673
201.648
201.67
201.641
201.663
201.64
201.652
201.646
201.633
201.662
202.652
202.652
202.659
202.649
202.661
202.646
202.659
202.642
202.653
202.637
202.647
202.628
202.641
202.616
202.633
202.604
202.623
202.59
202.61
202.582
202.59
202.579
202.564
202.584
203.651
203.652
203.658
203.647
203.659
203.642
203.655
203.636
203.646
203.628
203.636
203.615
203.625
203.597
203.612
203.579
203.596
203.559
203.576
203.543
203.549
203.53
203.515
203.527
204.67
204.67
204.676
204.665
204.676
204.658
204.67
204.65
204.658
204.638
204.644
204.62
204.629
204.598
204.61
204.574
204.589
204.548
204.561
204.524
204.527
204.502
204.487
204.488
205.707
205.707
205.713
205.701
205.711
205.693
205.703
205.682
205.688
205.667
205.671
205.645
205.651
205.618
205.627
205.587
205.6
205.555
205.566
205.523
205.526
205.492
205.477
205.47
206.762
206.762
206.768
206.755
206.765
206.745
206.755
206.732
206.737
206.714
206.716
206.688
206.692
206.656
206.663
206.62
206.63
206.581
206.59
206.54
206.543
206.503
206.486
206.471
207.835
207.835
207.84
207.828
207.837
207.816
207.824
207.8
207.803
207.779
207.779
207.749
207.751
207.712
207.717
207.67
207.679
207.625
207.632
207.576
207.58
207.53
207.514
207.49
208.926
208.926
208.93
208.917
208.925
208.904
208.911
208.886
208.888
208.861
208.86
208.828
208.828
208.786
208.789
208.738
208.745
208.686
208.694
208.63
208.635
208.576
208.562
208.529
210.033
210.033
210.037
210.023
210.031
210.009
210.015
209.988
209.989
209.961
209.957
209.923
209.921
209.877
209.878
209.824
209.83
209.764
209.773
209.704
209.706
209.641
209.626
209.585
211.156
211.156
211.16
211.146
211.153
211.13
211.135
211.107
211.106
211.077
211.072
211.036
211.032
210.984
210.985
210.926
210.931
210.86
210.87
210.793
210.796
210.724
210.708
210.66
212.295
212.294
212.298
212.284
212.29
212.266
212.27
212.242
212.239
212.208
212.202
212.164
212.159
212.108
212.108
212.045
212.049
211.974
211.981
211.899
211.903
211.824
211.807
211.752
213.448
213.448
213.451
213.436
213.442
213.418
213.421
213.391
213.388
213.355
213.348
213.307
213.302
213.247
213.247
213.18
213.185
213.102
213.111
213.024
213.024
212.942
212.924
212.862
214.616
214.615
214.619
214.603
214.608
214.584
214.586
214.555
214.551
214.517
214.509
214.465
214.46
214.401
214.402
214.328
214.336
214.247
214.256
214.164
214.164
214.075
214.057
213.988
215.796
215.796
215.799
215.783
215.788
215.763
215.764
215.732
215.728
215.692
215.684
215.637
215.632
215.57
215.57
215.494
215.5
215.41
215.414
215.32
215.318
215.226
215.205
215.131
216.99
216.989
216.992
216.977
216.981
216.955
216.956
216.923
216.918
216.88
216.873
216.822
216.818
216.754
216.752
216.675
216.677
216.585
216.589
216.491
216.487
216.391
216.37
216.29
218.195
218.195
218.197
218.182
218.185
218.159
218.159
218.126
218.121
218.081
218.073
218.022
218.016
217.95
217.947
217.869
217.869
217.776
217.777
217.676
217.672
217.572
217.549
217.464
219.411
219.411
219.413
219.398
219.401
219.375
219.374
219.341
219.335
219.294
219.286
219.233
219.226
219.16
219.155
219.076
219.074
218.98
218.979
218.876
218.869
218.765
218.743
218.652
220.638
220.638
220.64
220.624
220.627
220.601
220.6
220.567
220.559
220.519
220.509
220.456
220.448
220.381
220.375
220.294
220.291
220.195
220.194
220.088
220.081
219.974
219.951
219.855
221.875
221.875
221.877
221.861
221.864
221.838
221.836
221.803
221.793
221.755
221.742
221.691
221.681
221.613
221.607
221.524
221.52
221.424
221.419
221.313
221.304
221.194
221.171
221.07
223.121
223.121
223.124
223.107
223.11
223.084
223.082
223.049
223.038
223.001
222.986
222.936
222.924
222.856
222.849
222.765
222.759
222.662
222.657
222.549
222.539
222.427
222.403
222.298
224.377
224.376
224.379
224.362
224.366
224.339
224.337
224.304
224.292
224.256
224.239
224.19
224.175
224.11
224.101
224.015
224.01
223.911
223.904
223.796
223.785
223.67
223.646
223.538
225.641
225.64
225.643
225.626
225.629
225.603
225.6
225.568
225.555
225.52
225.501
225.453
225.437
225.372
225.361
225.276
225.269
225.169
225.162
225.053
225.04
224.924
224.899
224.788
226.913
226.913
226.915
226.899
226.902
226.875
226.872
226.84
226.827
226.792
226.772
226.725
226.708
226.641
226.63
226.545
226.538
226.436
226.428
226.318
226.305
226.187
226.162
226.047
228.193
228.193
228.196
228.179
228.182
228.155
228.152
228.12
228.106
228.071
228.05
228.004
227.985
227.92
227.906
227.822
227.814
227.71
227.702
227.591
227.577
227.458
227.432
227.316
229.481
229.481
229.484
229.467
229.47
229.443
229.44
229.407
229.393
229.358
229.336
229.289
229.27
229.204
229.189
229.106
229.096
228.992
228.983
228.87
228.856
228.736
228.71
228.592
230.777
230.777
230.779
230.762
230.765
230.737
230.734
230.701
230.686
230.651
230.627
230.582
230.56
230.495
230.478
230.395
230.384
230.28
230.271
230.156
230.142
230.021
229.995
229.875
232.079
232.079
232.082
232.064
232.066
232.038
232.034
232
231.985
231.95
231.924
231.879
231.855
231.791
231.773
231.689
231.677
231.575
231.564
231.447
231.433
231.311
231.286
231.164
233.387
233.387
233.389
233.371
233.373
233.344
233.34
233.305
233.289
233.253
233.226
233.181
233.155
233.092
233.073
232.987
232.974
232.873
232.862
232.743
232.729
232.607
232.581
232.459
234.697
234.697
234.699
234.681
234.683
234.653
234.648
234.613
234.596
234.559
234.531
234.487
234.458
234.397
234.374
234.292
234.275
234.175
234.163
234.046
234.031
233.907
233.882
233.76
236.008
236.008
236.011
235.992
235.994
235.963
235.959
235.922
235.905
235.868
235.84
235.796
235.764
235.705
235.678
235.599
235.582
235.478
235.468
235.353
235.337
235.214
235.189
235.065
237.317
237.317
237.319
237.3
237.303
237.272
237.268
237.232
237.214
237.178
237.149
237.106
237.073
237.016
236.987
236.91
236.89
236.79
236.775
236.665
236.647
236.524
236.5
236.377
238.619
238.619
238.622
238.604
238.607
238.577
238.574
238.538
238.522
238.487
238.458
238.416
238.384
238.329
238.298
238.224
238.201
238.106
238.089
237.98
237.962
237.841
237.817
237.694
239.914
239.914
239.918
239.9
239.905
239.876
239.874
239.841
239.826
239.793
239.766
239.727
239.695
239.643
239.612
239.542
239.518
239.426
239.41
239.297
239.283
239.162
239.139
239.017
241.2
241.201
241.206
241.189
241.195
241.168
241.169
241.138
241.126
241.095
241.072
241.035
241.006
240.957
240.928
240.862
240.838
240.751
240.732
240.624
240.609
240.489
240.467
240.346
242.481
242.482
242.488
242.473
242.481
242.456
242.459
242.43
242.422
242.395
242.374
242.342
242.316
242.271
242.245
242.184
242.161
242.08
242.06
241.958
241.943
241.823
241.803
241.681
243.763
243.764
243.77
243.756
243.766
243.743
243.748
243.722
243.716
243.692
243.675
243.647
243.625
243.584
243.563
243.505
243.487
243.408
243.395
243.294
243.283
243.165
243.146
243.023
245.053
245.055
245.062
245.049
245.058
245.037
245.043
245.02
245.014
244.994
244.978
244.954
244.933
244.897
244.88
244.824
244.814
244.735
244.731
244.631
244.628
244.511
244.497
244.377
246.365
246.367
246.373
246.36
246.37
246.349
246.354
246.331
246.326
246.306
246.29
246.267
246.248
246.214
246.199
246.143
246.141
246.057
246.066
245.964
245.969
245.856
245.848
245.736
247.708
247.71
247.717
247.702
247.711
247.687
247.692
247.666
247.66
247.637
247.62
247.595
247.574
247.541
247.522
247.47
247.465
247.385
247.395
247.293
247.304
247.192
247.19
247.084
249.094
249.096
249.101
249.085
249.092
249.066
249.068
249.038
249.028
249
248.979
248.949
248.924
248.887
248.861
248.81
248.796
248.721
248.722
248.622
248.635
248.519
248.522
248.415
250.529
250.53
250.534
250.516
250.521
250.491
250.489
250.454
250.439
250.406
250.378
250.341
250.307
250.264
250.229
250.172
250.148
250.07
250.063
249.956
249.968
249.844
249.85
249.736
252.014
252.016
252.018
251.998
252
251.967
251.96
251.921
251.899
251.861
251.823
251.781
251.736
251.684
251.637
251.571
251.536
251.443
251.43
251.309
251.315
251.177
251.183
251.054
253.546
253.548
253.549
253.528
253.528
253.492
253.482
253.438
253.411
253.367
253.322
253.272
253.218
253.157
253.098
253.022
252.97
252.865
252.835
252.698
252.691
252.532
252.533
252.382
255.119
255.12
255.122
255.099
255.098
255.059
255.047
255
254.97
254.92
254.873
254.815
254.755
254.685
254.616
254.532
254.461
254.352
254.294
254.15
254.118
253.936
253.923
253.736
256.721
256.722
256.724
256.7
256.699
256.659
256.646
256.597
256.566
256.514
256.464
256.403
256.339
256.265
256.19
256.1
256.017
255.907
255.823
255.681
255.613
255.42
255.382
255.149
258.342
258.342
258.345
258.321
258.32
258.28
258.267
258.218
258.187
258.135
258.084
258.022
257.958
257.883
257.806
257.715
257.628
257.517
257.422
257.283
257.192
257.004
256.939
256.67
259.968
259.969
259.972
259.948
259.948
259.909
259.897
259.849
259.819
259.768
259.719
259.659
259.595
259.523
259.447
259.359
259.273
259.165
259.072
258.935
258.844
258.662
258.593
258.327
261.59
261.59
261.594
261.571
261.572
261.534
261.524
261.478
261.45
261.401
261.354
261.298
261.237
261.168
261.095
261.013
260.93
260.828
260.741
260.61
260.529
260.352
260.294
260.053
263.196
263.197
263.201
263.179
263.181
263.145
263.137
263.093
263.067
263.022
262.977
262.926
262.868
262.805
262.736
262.659
262.582
262.488
262.406
262.284
262.211
262.045
261.993
261.771
264.779
264.781
264.785
264.765
264.768
264.734
264.727
264.686
264.663
264.621
264.58
264.533
264.478
264.421
264.357
264.287
264.215
264.129
264.052
263.942
263.874
263.722
263.674
263.471
266.332
266.335
266.34
266.321
266.325
266.293
266.288
266.25
266.228
266.192
266.152
266.111
266.06
266.009
265.948
265.886
265.819
265.742
265.67
265.572
265.508
265.37
265.326
265.141
267.851
267.854
267.859
267.842
267.846
267.817
267.813
267.779
267.759
267.728
267.689
267.655
267.605
267.563
267.504
267.452
267.387
267.32
267.255
267.164
267.106
266.983
266.941
266.775
269.331
269.334
269.339
269.323
269.329
269.301
269.3
269.268
269.251
269.223
269.188
269.158
269.112
269.076
269.021
268.976
268.916
268.858
268.797
268.715
268.663
268.554
268.513
268.366
270.769
270.771
270.778
270.762
270.77
270.742
270.744
270.714
270.701
270.674
270.645
270.617
270.577
270.544
270.495
270.456
270.4
270.35
270.292
270.223
270.176
270.079
270.04
269.91
272.161
272.164
272.172
272.156
272.166
272.139
272.144
272.115
272.105
272.081
272.055
272.031
271.995
271.966
271.923
271.888
271.839
271.795
271.742
271.686
271.638
271.556
271.518
271.405
273.508
273.511
273.519
273.504
273.515
273.49
273.496
273.469
273.462
273.441
273.419
273.397
273.367
273.341
273.303
273.273
273.228
273.192
273.143
273.096
273.05
272.981
272.946
272.848
274.808
274.811
274.82
274.804
274.818
274.793
274.802
274.776
274.772
274.752
274.734
274.715
274.689
274.667
274.633
274.608
274.568
274.538
274.493
274.456
274.412
274.353
274.323
274.239
276.06
276.063
276.072
276.059
276.07
276.05
276.057
276.036
276.032
276.016
276
275.985
275.961
275.943
275.914
275.893
275.858
275.833
275.793
275.762
275.722
275.676
275.645
275.576
277.264
277.267
277.278
277.261
277.28
277.252
277.27
277.243
277.246
277.23
277.218
277.204
277.185
277.17
277.145
277.128
277.097
277.077
277.042
277.019
276.98
276.946
276.915
276.859
278.42
278.424
278.431
278.424
278.429
278.42
278.422
278.411
278.406
278.398
278.385
278.376
278.358
278.347
278.325
278.313
278.285
278.27
278.239
278.221
278.188
278.162
278.132
278.089
279.529
279.53
279.546
279.523
279.554
279.516
279.548
279.514
279.529
279.511
279.507
279.497
279.483
279.475
279.456
279.447
279.424
279.414
279.386
279.374
279.343
279.325
279.298
279.265
280.591
280.596
280.598
280.601
280.595
280.603
280.592
280.597
280.585
280.588
280.575
280.573
280.559
280.554
280.539
280.533
280.512
280.507
280.483
280.475
280.449
280.438
280.41
280.389
281.607
281.607
281.626
281.598
281.638
281.592
281.637
281.595
281.622
281.601
281.605
281.597
281.59
281.586
281.573
281.571
281.553
281.551
281.53
281.528
281.503
281.499
281.474
281.461
282.577
282.584
282.581
282.594
282.576
282.601
282.575
282.599
282.577
282.591
282.576
282.582
282.571
282.571
282.561
282.561
282.546
282.548
282.53
282.531
282.51
282.511
282.488
282.484
283.505
283.503
283.525
283.494
283.54
283.49
283.543
283.496
283.532
283.508
283.519
283.513
283.511
283.51
283.503
283.506
283.493
283.498
283.483
283.489
283.469
283.476
283.454
283.457
284.387
284.396
284.389
284.408
284.385
284.418
284.385
284.42
284.392
284.415
284.399
284.41
284.402
284.407
284.401
284.406
284.396
284.403
284.39
284.399
284.383
284.394
284.374
284.384
285.232
285.229
285.249
285.222
285.264
285.221
285.27
285.229
285.265
285.243
285.258
285.254
285.255
285.259
285.255
285.262
285.254
285.264
285.254
285.266
285.252
285.267
285.249
285.264
286.031
286.04
286.033
286.051
286.032
286.062
286.035
286.067
286.043
286.068
286.054
286.068
286.063
286.071
286.068
286.077
286.071
286.084
286.074
286.089
286.077
286.096
286.08
286.1
286.797
286.795
286.811
286.793
286.822
286.796
286.829
286.805
286.831
286.819
286.831
286.831
286.835
286.841
286.841
286.851
286.847
286.861
286.854
286.872
286.861
286.883
286.868
286.893
287.52
287.528
287.523
287.537
287.526
287.546
287.532
287.553
287.542
287.559
287.553
287.566
287.565
287.575
287.575
287.587
287.584
287.6
287.594
287.614
287.605
287.63
287.616
287.644
288.212
288.212
288.223
288.213
288.232
288.22
288.238
288.231
288.244
288.244
288.251
288.257
288.26
288.27
288.272
288.285
288.283
288.301
288.297
288.319
288.31
288.338
288.325
288.356
288.865
288.872
288.868
288.881
288.873
288.889
288.883
288.896
288.895
288.905
288.907
288.917
288.919
288.931
288.934
288.947
288.947
288.966
288.962
288.986
288.979
289.01
288.996
289.031
289.489
289.49
289.498
289.493
289.507
289.501
289.513
289.514
289.521
289.528
289.531
289.542
289.545
289.557
289.561
289.576
289.576
289.596
289.594
289.619
289.613
289.645
289.635
289.669
290.079
290.084
290.081
290.093
290.086
290.101
290.097
290.109
290.111
290.12
290.124
290.134
290.139
290.151
290.156
290.171
290.173
290.194
290.192
290.219
290.214
290.247
290.236
290.274
290.64
290.641
290.646
290.645
290.655
290.653
290.664
290.666
290.673
290.681
290.686
290.697
290.702
290.715
290.72
290.736
290.738
290.76
290.76
290.787
290.783
290.817
290.807
290.846
291.171
291.174
291.175
291.181
291.181
291.19
291.191
291.201
291.203
291.214
291.218
291.23
291.235
291.249
291.254
291.271
291.274
291.297
291.297
291.324
291.321
291.357
291.347
291.389
291.675
291.677
291.679
291.684
291.686
291.692
291.696
291.703
291.71
291.717
291.724
291.735
291.741
291.754
291.761
291.778
291.782
291.804
291.806
291.834
291.832
291.867
291.86
291.9
292.152
292.154
292.158
292.159
292.166
292.168
292.175
292.181
292.186
292.196
292.201
292.214
292.219
292.234
292.24
292.258
292.262
292.286
292.287
292.315
292.314
292.35
292.343
292.386
292.605
292.608
292.608
292.615
292.615
292.624
292.625
292.635
292.639
292.649
292.655
292.667
292.673
292.688
292.694
292.713
292.717
292.74
292.743
292.772
292.771
292.807
292.802
292.844
293.034
293.036
293.038
293.042
293.046
293.05
293.056
293.062
293.069
293.077
293.084
293.096
293.103
293.117
293.125
293.143
293.148
293.172
293.175
293.203
293.203
293.24
293.234
293.278
293.44
293.442
293.445
293.447
293.452
293.456
293.461
293.469
293.474
293.485
293.49
293.503
293.51
293.524
293.532
293.55
293.556
293.579
293.582
293.612
293.612
293.648
293.644
293.687
293.825
293.827
293.828
293.834
293.834
293.843
293.845
293.854
293.859
293.869
293.876
293.887
293.895
293.909
293.917
293.935
293.941
293.965
293.969
293.997
293.998
294.035
294.03
294.074
294.19
294.191
294.194
294.196
294.202
294.205
294.212
294.217
294.224
294.233
294.24
294.252
294.259
294.274
294.281
294.3
294.306
294.33
294.333
294.363
294.363
294.399
294.397
294.439
294.535
294.536
294.539
294.542
294.546
294.551
294.555
294.563
294.568
294.578
294.584
294.597
294.604
294.619
294.626
294.645
294.651
294.675
294.679
294.708
294.709
294.745
294.741
294.785
294.862
294.864
294.865
294.87
294.871
294.878
294.881
294.889
294.895
294.904
294.912
294.923
294.931
294.945
294.953
294.972
294.978
295.002
295.005
295.035
295.035
295.071
295.069
295.11
295.172
295.173
295.176
295.177
295.183
295.185
295.193
295.197
295.205
295.213
295.221
295.232
295.24
295.254
295.262
295.281
295.287
295.31
295.315
295.343
295.344
295.38
295.376
295.419
295.465
295.466
295.468
295.471
295.474
295.48
295.483
295.492
295.496
295.507
295.513
295.525
295.532
295.547
295.554
295.573
295.579
295.603
295.606
295.635
295.636
295.672
295.67
295.71
295.742
295.744
295.745
295.749
295.75
295.758
295.761
295.768
295.774
295.783
295.791
295.801
295.809
295.824
295.831
295.849
295.856
295.878
295.883
295.912
295.913
295.948
295.945
295.987
296.005
296.006
296.009
296.008
296.017
296.016
296.027
296.028
296.038
296.044
296.053
296.063
296.071
296.086
296.093
296.111
296.118
296.141
296.144
296.173
296.174
296.209
296.207
296.247
296.254
296.256
296.255
296.262
296.259
296.272
296.268
296.282
296.282
296.295
296.299
296.312
296.319
296.334
296.34
296.358
296.365
296.387
296.392
296.42
296.422
296.455
296.453
296.494
296.489
296.489
296.494
296.492
296.502
296.498
296.512
296.509
296.523
296.526
296.537
296.545
296.554
296.568
296.575
296.592
296.6
296.622
296.626
296.653
296.655
296.69
296.687
296.725
296.712
296.714
296.712
296.721
296.716
296.73
296.725
296.74
296.738
296.753
296.756
296.769
296.775
296.79
296.796
296.814
296.821
296.842
296.847
296.875
296.877
296.908
296.907
296.947
296.923
296.923
296.928
296.924
296.936
296.931
296.945
296.943
296.955
296.959
296.968
296.978
296.986
297
297.006
297.024
297.031
297.052
297.057
297.083
297.085
297.118
297.116
297.153
297.122
297.125
297.122
297.132
297.126
297.141
297.135
297.15
297.148
297.162
297.165
297.178
297.184
297.198
297.205
297.222
297.229
297.25
297.254
297.281
297.283
297.313
297.313
297.351
297.312
297.311
297.316
297.313
297.324
297.319
297.333
297.331
297.342
297.347
297.355
297.365
297.372
297.386
297.392
297.41
297.416
297.437
297.441
297.468
297.468
297.502
297.499
297.536
297.49
297.492
297.49
297.498
297.495
297.506
297.503
297.516
297.515
297.528
297.532
297.544
297.55
297.564
297.57
297.587
297.593
297.614
297.619
297.644
297.646
297.676
297.675
297.711
297.66
297.66
297.662
297.663
297.668
297.67
297.677
297.68
297.687
297.695
297.701
297.712
297.718
297.732
297.738
297.755
297.761
297.781
297.785
297.812
297.811
297.844
297.841
297.877
297.819
297.821
297.821
297.824
297.826
297.831
297.835
297.841
297.846
297.855
297.86
297.871
297.877
297.89
297.896
297.914
297.918
297.94
297.944
297.968
297.97
298
297.998
298.033
297.971
297.972
297.972
297.976
297.976
297.984
297.984
297.994
297.995
298.007
298.01
298.022
298.027
298.041
298.046
298.064
298.068
298.089
298.091
298.119
298.117
298.15
298.146
298.181
298.114
298.114
298.117
298.116
298.124
298.122
298.132
298.132
298.141
298.147
298.154
298.163
298.169
298.183
298.189
298.205
298.209
298.231
298.234
298.258
298.26
298.289
298.287
298.32
298.249
298.251
298.249
298.257
298.251
298.265
298.259
298.274
298.271
298.285
298.286
298.299
298.303
298.317
298.322
298.34
298.343
298.363
298.366
298.393
298.391
298.423
298.418
298.453
298.377
298.376
298.381
298.377
298.388
298.383
298.396
298.393
298.404
298.408
298.415
298.425
298.431
298.444
298.449
298.466
298.468
298.491
298.493
298.517
298.518
298.547
298.544
298.576
298.497
298.499
298.497
298.505
298.499
298.513
298.507
298.522
298.519
298.532
298.533
298.546
298.549
298.564
298.568
298.586
298.588
298.609
298.611
298.637
298.635
298.666
298.661
298.695
298.612
298.611
298.615
298.613
298.621
298.618
298.629
298.628
298.637
298.643
298.648
298.659
298.663
298.677
298.681
298.698
298.7
298.723
298.724
298.747
298.749
298.776
298.774
298.805
298.718
298.72
298.719
298.725
298.722
298.732
298.729
298.741
298.74
298.752
298.754
298.766
298.769
298.784
298.787
298.805
298.807
298.827
298.829
298.854
298.852
298.882
298.878
298.91
298.82
298.82
298.823
298.822
298.829
298.828
298.835
298.838
298.844
298.851
298.855
298.867
298.87
298.884
298.888
298.904
298.906
298.929
298.929
298.952
298.954
298.979
298.978
299.008
298.915
298.917
298.916
298.921
298.92
298.928
298.927
298.937
298.937
298.948
298.95
298.962
298.964
298.979
298.982
298.999
299.002
299.02
299.022
299.047
299.046
299.073
299.072
299.1
299.006
299.006
299.008
299.009
299.013
299.014
299.02
299.024
299.029
299.036
299.04
299.051
299.054
299.067
299.071
299.088
299.089
299.111
299.112
299.133
299.135
299.16
299.159
299.188
299.09
299.091
299.092
299.094
299.095
299.101
299.102
299.11
299.112
299.121
299.124
299.135
299.138
299.152
299.155
299.172
299.174
299.192
299.193
299.218
299.217
299.242
299.243
299.269
299.17
299.17
299.172
299.173
299.175
299.18
299.182
299.188
299.191
299.2
299.202
299.214
299.217
299.23
299.233
299.25
299.25
299.272
299.273
299.293
299.294
299.32
299.319
299.347
299.244
299.245
299.247
299.247
299.251
299.253
299.257
299.262
299.266
299.274
299.277
299.288
299.291
299.304
299.307
299.323
299.326
299.344
299.344
299.368
299.369
299.391
299.393
299.418
299.314
299.315
299.316
299.318
299.32
299.324
299.327
299.333
299.335
299.344
299.346
299.357
299.36
299.373
299.376
299.392
299.393
299.414
299.415
299.435
299.435
299.461
299.459
299.486
299.38
299.38
299.382
299.383