/*--------------------------------*- C++ -*----------------------------------*\
  =========                 |
  \\      /  F ield         | OpenFOAM: The Open Source CFD Toolbox
   \\    /   O peration     | Website:  https://openfoam.org
    \\  /    A nd           | Version:  10
     \\/     M anipulation  |
\*---------------------------------------------------------------------------*/
FoamFile
{
    format      ascii;
    class       volVectorField;
    location    "0.32";
    object      U;
}
// * * * * * * * * * * * * * * * * * * * * * * * * * * * * * * * * * * * * * //

dimensions      [0 1 -1 0 0 0 0];

internalField   nonuniform List<vector> 
4176
(
(497.488 -0.0142058 -5.27867e-09)
(497.474 0.0638199 1.64724e-09)
(497.45 0.00127992 -5.07956e-10)
(497.4 0.0905044 6.464e-11)
(497.346 0.0508316 -1.47228e-11)
(497.271 0.0897094 -5.34079e-10)
(497.181 0.125684 -4.96643e-10)
(497.088 0.0607549 7.91875e-11)
(496.954 0.22509 4.7131e-10)
(496.848 0.00512101 5.45555e-10)
(496.672 0.34415 4.23608e-10)
(496.549 -0.0688049 4.18355e-10)
(496.339 0.469546 2.29361e-10)
(496.191 -0.139125 -1.63846e-10)
(495.956 0.567565 -3.66835e-10)
(495.773 -0.13518 -2.80544e-10)
(495.536 0.528154 -2.44462e-10)
(495.286 0.0240171 -3.78688e-11)
(495.073 0.334513 3.10427e-10)
(494.73 0.323337 1.93505e-10)
(494.576 -0.0169957 -1.27e-10)
(494.097 0.771928 -1.76634e-10)
(494.066 -0.51678 7.43217e-11)
(493.444 1.44287 1.84769e-10)
(497.47 0.00486508 -5.27883e-09)
(497.455 0.114641 1.64749e-09)
(497.431 0.0763291 -5.08195e-10)
(497.379 0.20341 6.38674e-11)
(497.325 0.186086 -1.47766e-11)
(497.247 0.264432 -5.33823e-10)
(497.156 0.32159 -4.9739e-10)
(497.059 0.295854 7.92655e-11)
(496.925 0.482052 4.7198e-10)
(496.814 0.298252 5.45808e-10)
(496.636 0.662672 4.23231e-10)
(496.508 0.279013 4.1832e-10)
(496.293 0.850126 2.27787e-10)
(496.142 0.258747 -1.63794e-10)
(495.901 1.01226 -3.66685e-10)
(495.714 0.302492 -2.80064e-10)
(495.469 1.04189 -2.45622e-10)
(495.216 0.511052 -3.79561e-11)
(494.996 0.914064 3.09414e-10)
(494.646 0.855457 1.93099e-10)
(494.491 0.628302 -1.26977e-10)
(493.992 1.33132 -1.78976e-10)
(493.956 0.124921 7.50866e-11)
(493.27 1.99293 1.84361e-10)
(497.413 0.023213 -5.28289e-09)
(497.398 0.161296 1.64654e-09)
(497.375 0.147505 -5.10289e-10)
(497.324 0.307749 6.48494e-11)
(497.273 0.31369 -1.5164e-11)
(497.194 0.42662 -5.34714e-10)
(497.108 0.505714 -4.94841e-10)
(497.011 0.515086 8.10552e-11)
(496.882 0.722775 4.73994e-10)
(496.772 0.572912 5.4617e-10)
(496.599 0.960455 4.22407e-10)
(496.473 0.606415 4.17589e-10)
(496.263 1.20592 2.29407e-10)
(496.116 0.63433 -1.63756e-10)
(495.877 1.42848 -3.66982e-10)
(495.698 0.714241 -2.78883e-10)
(495.454 1.52239 -2.48346e-10)
(495.209 0.966278 -3.95231e-11)
(494.993 1.45689 3.10091e-10)
(494.653 1.34412 1.92653e-10)
(494.506 1.24755 -1.27987e-10)
(494.016 1.88252 -1.76342e-10)
(493.981 0.838524 7.5385e-11)
(493.271 2.6091 1.85288e-10)
(497.309 0.041947 -5.28179e-09)
(497.294 0.208801 1.65004e-09)
(497.271 0.220003 -5.11316e-10)
(497.22 0.414067 6.79074e-11)
(497.169 0.443663 -1.59779e-11)
(497.09 0.591977 -5.39184e-10)
(497.004 0.693276 -4.9493e-10)
(496.907 0.738715 7.8517e-11)
(496.777 0.96799 4.67304e-10)
(496.668 0.85322 5.49753e-10)
(496.494 1.26379 4.23459e-10)
(496.37 0.94077 4.15959e-10)
(496.158 1.5686 2.30942e-10)
(496.013 1.01853 -1.65345e-10)
(495.771 1.85337 -3.74181e-10)
(495.593 1.13573 -2.80166e-10)
(495.346 2.01683 -2.45928e-10)
(495.097 1.4268 -3.98439e-11)
(494.891 2.00904 3.12386e-10)
(494.54 1.84103 1.92022e-10)
(494.399 1.85812 -1.30856e-10)
(493.915 2.42033 -1.77177e-10)
(493.886 1.52554 7.36197e-11)
(493.206 3.2059 1.75803e-10)
(497.157 0.0602785 -5.28459e-09)
(497.143 0.255326 1.65626e-09)
(497.12 0.290926 -5.07241e-10)
(497.069 0.518256 6.79402e-11)
(497.019 0.570804 -1.27589e-11)
(496.941 0.754146 -5.33987e-10)
(496.856 0.876751 -4.97057e-10)
(496.76 0.958259 8.06464e-11)
(496.632 1.20787 4.72873e-10)
(496.524 1.1287 5.47852e-10)
(496.351 1.56058 4.23782e-10)
(496.229 1.26957 4.18943e-10)
(496.018 1.92387 2.27515e-10)
(495.876 1.39629 -1.66352e-10)
(495.634 2.2711 -3.72331e-10)
(495.461 1.55043 -2.82734e-10)
(495.21 2.51218 -2.47027e-10)
(494.967 1.86997 -3.9022e-11)
(494.764 2.55408 3.0693e-10)
(494.411 2.33894 1.97784e-10)
(494.271 2.45259 -1.23147e-10)
(493.793 2.94615 -1.74257e-10)
(493.763 2.16815 7.72125e-11)
(493.103 3.76379 1.86606e-10)
(496.957 0.0786031 -5.29806e-09)
(496.942 0.301557 1.65402e-09)
(496.92 0.361698 -5.05784e-10)
(496.869 0.621862 6.33331e-11)
(496.819 0.697643 -2.39896e-11)
(496.742 0.915461 -5.39191e-10)
(496.658 1.0598 -4.94782e-10)
(496.561 1.17675 7.67748e-11)
(496.435 1.44716 4.73577e-10)
(496.327 1.40309 5.53484e-10)
(496.157 1.85648 4.24229e-10)
(496.035 1.59753 4.13307e-10)
(495.825 2.27752 2.24803e-10)
(495.684 1.77394 -1.64029e-10)
(495.443 2.68553 -3.75462e-10)
(495.274 1.96939 -2.80219e-10)
(495.018 3.00285 -2.36519e-10)
(494.787 2.31287 -3.61109e-11)
(494.57 3.1036 3.16767e-10)
(494.229 2.8358 1.99909e-10)
(494.084 3.04875 -1.27442e-10)
(493.611 3.47409 -1.85016e-10)
(493.575 2.81508 7.39686e-11)
(492.914 4.32071 1.86868e-10)
(496.708 0.0967511 -5.29718e-09)
(496.693 0.347125 1.65131e-09)
(496.671 0.431681 -5.21893e-10)
(496.621 0.724031 6.34483e-11)
(496.572 0.823027 -9.37717e-12)
(496.495 1.07456 -5.385e-10)
(496.412 1.24073 -5.06346e-10)
(496.316 1.39231 8.13983e-11)
(496.192 1.68371 4.80305e-10)
(496.084 1.67398 5.48913e-10)
(495.916 2.14894 4.216e-10)
(495.795 1.92169 4.24411e-10)
(495.588 2.62678 2.40538e-10)
(495.448 2.14794 -1.62255e-10)
(495.208 3.09387 -3.71161e-10)
(495.043 2.3867 -2.76999e-10)
(494.784 3.48249 -2.46031e-10)
(494.565 2.75756 -4.16938e-11)
(494.337 3.65103 3.11283e-10)
(494.01 3.32081 1.97417e-10)
(493.859 3.64374 -1.28929e-10)
(493.392 4.00154 -1.85161e-10)
(493.352 3.47174 7.62941e-11)
(492.693 4.88293 1.91938e-10)
(496.41 0.114762 -5.31335e-09)
(496.396 0.392229 1.66162e-09)
(496.374 0.501044 -5.01703e-10)
(496.324 0.825183 6.69362e-11)
(496.276 0.947244 -2.23086e-11)
(496.199 1.23206 -5.35837e-10)
(496.117 1.41992 -4.90022e-10)
(496.022 1.60571 8.02519e-11)
(495.9 1.91792 4.62343e-10)
(495.793 1.94227 5.46675e-10)
(495.626 2.43847 4.32647e-10)
(495.506 2.24297 4.1882e-10)
(495.301 2.97244 2.14895e-10)
(495.163 2.51897 -1.71064e-10)
(494.924 3.4977 -3.64266e-10)
(494.763 2.80151 -2.85163e-10)
(494.503 3.95474 -2.42432e-10)
(494.292 3.19988 -2.50654e-11)
(494.059 4.19377 3.15161e-10)
(493.742 3.80138 1.8267e-10)
(493.586 4.23691 -1.29204e-10)
(493.127 4.52417 -1.69097e-10)
(493.083 4.12311 7.37912e-11)
(492.431 5.43789 1.68747e-10)
(496.065 0.132592 -5.32485e-09)
(496.051 0.436778 1.64818e-09)
(496.029 0.569624 -5.23747e-10)
(495.979 0.925107 5.47195e-11)
(495.932 1.07 -2.25175e-11)
(495.855 1.38763 -5.4446e-10)
(495.775 1.59694 -5.05545e-10)
(495.681 1.81647 7.72298e-11)
(495.559 2.14921 4.69195e-10)
(495.454 2.20726 5.43892e-10)
(495.289 2.72432 4.21031e-10)
(495.171 2.56048 4.17379e-10)
(494.967 3.31363 2.23218e-10)
(494.832 2.886 -1.69971e-10)
(494.594 3.8961 -3.71157e-10)
(494.437 3.21248 -2.82179e-10)
(494.176 4.4185 -2.46758e-10)
(493.973 3.63923 -3.60501e-11)
(493.734 4.72967 3.11757e-10)
(493.43 4.2753 1.89509e-10)
(493.268 4.82753 -1.31273e-10)
(492.818 5.04207 -1.8023e-10)
(492.77 4.77008 7.55777e-11)
(492.127 5.98621 1.85149e-10)
(495.671 0.150239 -5.30933e-09)
(495.657 0.48078 1.67736e-09)
(495.635 0.637417 -5.05022e-10)
(495.585 1.02382 7.78533e-11)
(495.539 1.1913 -4.07601e-12)
(495.463 1.54129 -5.27777e-10)
(495.384 1.77177 -4.88803e-10)
(495.29 2.0246 9.4755e-11)
(495.17 2.37755 4.8789e-10)
(495.066 2.46893 5.6094e-10)
(494.903 3.00641 4.39599e-10)
(494.787 2.87409 4.33351e-10)
(494.585 3.65023 2.41675e-10)
(494.452 3.24879 -1.57512e-10)
(494.216 4.28896 -3.5773e-10)
(494.062 3.61931 -2.71548e-10)
(493.802 4.87412 -2.3297e-10)
(493.607 4.07483 -2.50238e-11)
(493.364 5.25807 3.25691e-10)
(493.071 4.7428 2.01051e-10)
(492.903 5.41368 -1.19255e-10)
(492.463 5.55347 -1.68133e-10)
(492.412 5.41067 8.5079e-11)
(491.779 6.52621 1.94366e-10)
(495.228 0.167674 -5.33068e-09)
(495.214 0.524182 1.66638e-09)
(495.193 0.704324 -5.14886e-10)
(495.144 1.12122 7.03598e-11)
(495.098 1.31098 -1.10115e-11)
(495.023 1.69289 -5.36137e-10)
(494.944 1.94422 -4.94116e-10)
(494.852 2.2299 9.32088e-11)
(494.734 2.60266 4.86573e-10)
(494.631 2.72699 5.59618e-10)
(494.47 3.28438 4.4017e-10)
(494.355 3.18338 4.35976e-10)
(494.155 3.98178 2.44209e-10)
(494.025 3.60677 -1.56032e-10)
(493.791 4.6758 -3.53309e-10)
(493.641 4.02129 -2.65629e-10)
(493.382 5.32149 -2.25478e-10)
(493.194 4.50611 -1.87272e-11)
(492.947 5.7781 3.36206e-10)
(492.666 5.20381 2.11762e-10)
(492.492 5.99331 -1.31066e-10)
(492.065 6.05693 -2.02091e-10)
(492.009 6.04483 5.59347e-11)
(491.386 7.05744 1.63314e-10)
(494.737 0.184876 -5.33963e-09)
(494.723 0.566938 1.66959e-09)
(494.702 0.77027 -5.18409e-10)
(494.653 1.2172 6.49382e-11)
(494.608 1.42893 -1.62825e-11)
(494.534 1.84231 -5.42541e-10)
(494.457 2.11415 -5.02441e-10)
(494.365 2.43223 8.35501e-11)
(494.249 2.82441 4.77148e-10)
(494.147 2.98127 5.50599e-10)
(493.988 3.55804 4.29879e-10)
(493.876 3.4881 4.26873e-10)
(493.678 4.30799 2.33125e-10)
(493.551 3.95952 -1.66021e-10)
(493.318 5.05624 -3.68162e-10)
(493.173 4.41781 -2.79429e-10)
(492.914 5.76064 -2.42565e-10)
(492.733 4.93271 -3.19941e-11)
(492.483 6.28919 3.17828e-10)
(492.214 5.65826 1.9325e-10)
(492.035 6.56451 -1.26274e-10)
(491.621 6.55083 -1.72843e-10)
(491.561 6.67198 8.19934e-11)
(490.949 7.57932 1.89895e-10)
(494.197 0.201817 -5.3493e-09)
(494.183 0.60899 1.66971e-09)
(494.162 0.835152 -5.24958e-10)
(494.114 1.31163 5.90563e-11)
(494.07 1.54498 -2.4793e-11)
(493.997 1.98935 -5.55358e-10)
(493.921 2.28134 -5.17215e-10)
(493.831 2.63138 6.727e-11)
(493.715 3.04256 4.60943e-10)
(493.616 3.23154 5.3237e-10)
(493.459 3.82713 4.03961e-10)
(493.348 3.78795 4.00894e-10)
(493.152 4.62855 2.00103e-10)
(493.029 4.3066 -1.71914e-10)
(492.798 5.42983 -3.44579e-10)
(492.657 4.80817 -2.6221e-10)
(492.399 6.19145 -2.24461e-10)
(492.225 5.35428 -1.94997e-11)
(491.973 6.79064 3.30471e-10)
(491.715 6.10485 2.03524e-10)
(491.532 7.12704 -1.18279e-10)
(491.13 7.0349 -1.67719e-10)
(491.068 7.29036 8.74403e-11)
(490.468 8.09128 1.93148e-10)
(493.608 0.218472 -5.35131e-09)
(493.594 0.650285 1.69471e-09)
(493.574 0.89888 -5.26545e-10)
(493.526 1.4044 3.97893e-11)
(493.483 1.65897 -2.79964e-11)
(493.411 2.13385 -5.47056e-10)
(493.336 2.44558 -4.96478e-10)
(493.247 2.82711 1.05015e-10)
(493.134 3.25685 4.81079e-10)
(493.036 3.47754 5.33453e-10)
(492.881 4.09139 4.17382e-10)
(492.773 4.08265 4.24505e-10)
(492.579 4.94317 2.42236e-10)
(492.459 4.64768 -1.531e-10)
(492.23 5.7962 -3.78065e-10)
(492.094 5.19188 -3.03237e-10)
(491.838 6.61351 -2.60821e-10)
(491.67 5.77022 -3.80031e-11)
(491.416 7.28199 3.24853e-10)
(491.17 6.5432 2.09159e-10)
(490.983 7.6802 -1.30802e-10)
(490.594 7.50804 -1.96597e-10)
(490.529 7.89867 7.07379e-11)
(489.942 8.59282 1.90531e-10)
(492.97 0.234818 -5.37743e-09)
(492.956 0.690773 1.65697e-09)
(492.937 0.961363 -5.18461e-10)
(492.889 1.49538 9.63397e-11)
(492.847 1.77073 -2.52629e-12)
(492.776 2.27558 -5.44896e-10)
(492.702 2.60662 -5.16915e-10)
(492.615 3.01916 5.96269e-11)
(492.504 3.46699 4.79202e-10)
(492.407 3.71895 5.76203e-10)
(492.255 4.35052 4.38617e-10)
(492.149 4.37188 4.18923e-10)
(491.958 5.25155 2.07679e-10)
(491.841 4.98239 -1.75074e-10)
(491.615 6.15504 -3.54311e-10)
(491.483 5.56846 -2.74202e-10)
(491.229 7.02637 -2.50555e-10)
(491.068 6.17979 -4.92279e-11)
(490.813 7.76264 2.84334e-10)
(490.579 6.97299 1.79987e-10)
(490.387 8.22359 -1.18017e-10)
(490.012 7.96943 -1.72387e-10)
(489.944 8.49566 7.10545e-11)
(489.37 9.08338 1.65377e-10)
(492.283 0.250834 -5.37332e-09)
(492.269 0.730409 1.70955e-09)
(492.25 1.02252 -5.26305e-10)
(492.203 1.58446 3.66691e-11)
(492.162 1.8801 -3.01637e-11)
(492.092 2.41436 -5.46216e-10)
(492.02 2.76421 -4.89367e-10)
(491.934 3.20722 1.13546e-10)
(491.825 3.67264 4.8427e-10)
(491.731 3.95542 5.3617e-10)
(491.58 4.60414 4.24871e-10)
(491.477 4.65527 4.32995e-10)
(491.289 5.55334 2.51954e-10)
(491.175 5.31038 -1.78997e-10)
(490.952 6.50601 -4.11126e-10)
(490.824 5.93747 -2.99708e-10)
(490.573 7.42968 -2.50864e-10)
(490.419 6.58219 -2.41639e-11)
(490.164 8.23181 3.40469e-10)
(489.94 7.39399 1.86426e-10)
(489.745 8.75652 -1.57176e-10)
(489.384 8.41872 -1.85656e-10)
(489.313 9.08077 8.45991e-11)
(488.753 9.56228 2.03109e-10)
(491.546 0.266498 -5.39971e-09)
(491.533 0.769144 1.67537e-09)
(491.514 1.08228 -5.45446e-10)
(491.468 1.67152 3.29251e-11)
(491.427 1.98692 -1.97514e-11)
(491.358 2.54999 -5.20583e-10)
(491.288 2.9181 -4.86205e-10)
(491.204 3.39102 9.57104e-11)
(491.097 3.87346 4.82152e-10)
(491.005 4.18656 5.48371e-10)
(490.857 4.85183 4.14217e-10)
(490.757 4.93238 4.01718e-10)
(490.572 5.84812 2.32423e-10)
(490.461 5.63123 -1.48822e-10)
(490.241 6.84877 -3.60952e-10)
(490.118 6.29853 -2.76468e-10)
(489.869 7.82317 -2.47221e-10)
(489.722 6.97658 -4.04033e-11)
(489.467 8.68868 2.98503e-10)
(489.256 7.80581 1.632e-10)
(489.057 9.2775 -1.68992e-10)
(488.71 8.8566 -1.82486e-10)
(488.635 9.65442 1.02706e-10)
(488.09 10.0282 2.00055e-10)
(490.76 0.281784 -5.40431e-09)
(490.746 0.806927 1.70291e-09)
(490.728 1.14054 -5.12736e-10)
(490.683 1.75645 8.76344e-11)
(490.644 2.09104 3.33481e-12)
(490.576 2.68227 -5.26049e-10)
(490.507 3.06805 -4.79052e-10)
(490.425 3.57025 1.20551e-10)
(490.32 4.0691 5.23907e-10)
(490.23 4.41198 5.61347e-10)
(490.086 5.09316 3.9878e-10)
(489.988 5.20271 3.98596e-10)
(489.806 6.13541 1.99503e-10)
(489.7 5.94443 -2.01081e-10)
(489.483 7.18289 -4.03574e-10)
(489.365 6.65122 -3.01869e-10)
(489.118 8.2066 -2.64253e-10)
(488.978 7.3622 -4.36639e-11)
(488.724 9.13259 3.119e-10)
(488.524 8.20818 1.91542e-10)
(488.322 9.78609 -1.25668e-10)
(487.99 9.28263 -1.68237e-10)
(487.911 10.2158 9.17631e-11)
(487.382 10.4807 2.04307e-10)
(489.924 0.296665 -5.42383e-09)
(489.91 0.843694 1.69315e-09)
(489.893 1.19721 -5.34476e-10)
(489.848 1.8391 6.14787e-11)
(489.81 2.19227 -2.96601e-11)
(489.743 2.81098 -5.70402e-10)
(489.677 3.21379 -5.25632e-10)
(489.596 3.74462 7.12064e-11)
(489.494 4.25922 4.66679e-10)
(489.407 4.63128 5.38183e-10)
(489.265 5.32769 4.12425e-10)
(489.171 5.46579 4.0336e-10)
(488.992 6.41469 1.95228e-10)
(488.89 6.24941 -2.09837e-10)
(488.676 7.50783 -4.22201e-10)
(488.563 6.99496 -3.24968e-10)
(488.32 8.57951 -2.51652e-10)
(488.186 7.73854 -2.56889e-12)
(487.934 9.56309 3.5214e-10)
(487.745 8.6007 2.17804e-10)
(487.54 10.2818 -1.05097e-10)
(487.224 9.69649 -1.57086e-10)
(487.14 10.7643 1.00184e-10)
(486.628 10.9193 2.08776e-10)
(489.037 0.311105 -5.45408e-09)
(489.024 0.879366 1.70821e-09)
(489.007 1.25215 -5.0659e-10)
(488.963 1.91931 6.64693e-11)
(488.926 2.29041 -4.12288e-12)
(488.861 2.9359 -5.2236e-10)
(488.796 3.35508 -5.04715e-10)
(488.718 3.91385 6.77862e-11)
(488.618 4.4435 4.85999e-10)
(488.534 4.84411 5.78344e-10)
(488.395 5.55501 4.26824e-10)
(488.305 5.72114 4.3364e-10)
(488.13 6.68545 2.45215e-10)
(488.031 6.5456 -1.90428e-10)
(487.822 7.82301 -3.77728e-10)
(487.714 7.32914 -2.65574e-10)
(487.474 8.94138 -2.56712e-10)
(487.347 8.10504 -6.47789e-11)
(487.097 9.97979 3.02933e-10)
(486.919 8.98293 1.9079e-10)
(486.712 10.7641 -1.58713e-10)
(486.411 10.0979 -1.85254e-10)
(486.323 11.2992 8.79993e-11)
(485.828 11.3435 1.72403e-10)
(488.1 0.325067 -5.44842e-09)
(488.087 0.913856 1.72395e-09)
(488.071 1.30524 -5.08347e-10)
(488.028 1.99689 1.0092e-10)
(487.992 2.38525 1.38394e-11)
(487.929 3.05678 -5.61721e-10)
(487.866 3.49161 -5.5144e-10)
(487.79 4.07764 5.95344e-11)
(487.693 4.6216 4.69197e-10)
(487.611 5.05011 5.48378e-10)
(487.476 5.77472 4.27802e-10)
(487.389 5.96834 4.30121e-10)
(487.218 6.94721 2.35977e-10)
(487.124 6.83245 -1.65694e-10)
(486.918 8.12786 -3.59915e-10)
(486.816 7.65309 -2.61798e-10)
(486.58 9.2916 -2.18734e-10)
(486.46 8.46101 -4.0014e-11)
(486.212 10.3823 2.75247e-10)
(486.046 9.35452 1.58392e-10)
(485.836 11.2324 -1.59317e-10)
(485.551 10.4864 -1.98075e-10)
(485.459 11.8202 6.1774e-11)
(484.981 11.753 1.81485e-10)
(487.113 0.338508 -5.48252e-09)
(487.1 0.947071 1.68094e-09)
(487.084 1.35632 -5.33356e-10)
(487.042 2.07165 1.01394e-10)
(487.008 2.47653 -9.86242e-12)
(486.946 3.17333 -5.63501e-10)
(486.886 3.6231 -5.28711e-10)
(486.812 4.23567 1.03913e-10)
(486.718 4.79319 5.33885e-10)
(486.639 5.24894 5.87731e-10)
(486.507 5.98646 4.43488e-10)
(486.424 6.20697 4.17274e-10)
(486.257 7.19952 1.91804e-10)
(486.168 7.10943 -1.89177e-10)
(485.966 8.42183 -3.66036e-10)
(485.87 7.96613 -2.84091e-10)
(485.638 9.62953 -2.64005e-10)
(485.525 8.80563 -6.13224e-11)
(485.28 10.7703 3.20933e-10)
(485.125 9.7151 2.13928e-10)
(484.914 11.6858 -1.25897e-10)
(484.644 10.8618 -1.89809e-10)
(484.549 12.3265 4.81884e-11)
(484.088 12.1472 1.86489e-10)
(486.075 0.351393 -5.50072e-09)
(486.062 0.978927 1.68667e-09)
(486.047 1.40524 -5.35328e-10)
(486.006 2.1434 1.07168e-10)
(485.973 2.56401 -1.34691e-13)
(485.913 3.28529 -5.60042e-10)
(485.855 3.74924 -5.29774e-10)
(485.784 4.38759 5.48276e-11)
(485.692 4.95791 4.85798e-10)
(485.617 5.44024 5.94392e-10)
(485.489 6.18985 4.5475e-10)
(485.41 6.43666 4.27826e-10)
(485.246 7.44198 2.02171e-10)
(485.162 7.37612 -1.80929e-10)
(484.965 8.70441 -3.56824e-10)
(484.875 8.26769 -2.7995e-10)
(484.647 9.95455 -2.59255e-10)
(484.542 9.13804 -5.21637e-11)
(484.301 11.1434 3.32192e-10)
(484.156 10.0643 2.23135e-10)
(483.944 12.1231 -1.1627e-10)
(483.691 11.2233 -1.81245e-10)
(483.591 12.8177 6.31733e-11)
(483.149 12.5258 1.59542e-10)
(484.985 0.36369 -5.5252e-09)
(484.973 1.00935 1.73275e-09)
(484.958 1.45191 -5.11991e-10)
(484.919 2.21198 6.38319e-11)
(484.888 2.6475 -5.61861e-11)
(484.829 3.39239 -5.77989e-10)
(484.774 3.8697 -5.05179e-10)
(484.705 4.53309 7.15348e-11)
(484.617 5.11541 4.92821e-10)
(484.545 5.62362 5.86085e-10)
(484.421 6.3845 4.29768e-10)
(484.345 6.65702 4.43768e-10)
(484.186 7.67419 2.60649e-10)
(484.107 7.63209 -1.8689e-10)
(483.915 8.9752 -4.2743e-10)
(483.83 8.55727 -3.04253e-10)
(483.608 10.2661 -2.43569e-10)
(483.51 9.45755 -4.72828e-11)
(483.273 11.5012 3.27805e-10)
(483.138 10.4014 2.09659e-10)
(482.926 12.5436 -1.431e-10)
(482.689 11.5702 -1.67645e-10)
(482.586 13.2928 1.14428e-10)
(482.164 12.8882 1.93325e-10)
(483.845 0.375376 -5.51163e-09)
(483.833 1.03829 1.76247e-09)
(483.819 1.49622 -4.98444e-10)
(483.781 2.27725 7.53657e-11)
(483.751 2.7268 -5.12796e-11)
(483.695 3.49441 -5.8022e-10)
(483.642 3.98422 -5.11571e-10)
(483.576 4.67183 1.15824e-10)
(483.491 5.26531 5.32574e-10)
(483.422 5.79871 5.67083e-10)
(483.302 6.57001 4.03727e-10)
(483.231 6.86765 4.13836e-10)
(483.077 7.89576 2.22601e-10)
(483.002 7.87697 -1.77998e-10)
(482.815 9.23378 -3.68086e-10)
(482.737 8.83443 -2.55421e-10)
(482.519 10.5638 -2.54883e-10)
(482.43 9.76364 -6.63598e-11)
(482.196 11.8431 3.01142e-10)
(482.073 10.7259 1.81395e-10)
(481.861 12.9466 -1.2737e-10)
(481.64 11.9017 -1.58309e-10)
(481.535 13.7505 1.20293e-10)
(481.132 13.2339 1.93882e-10)
(482.653 0.386438 -5.52441e-09)
(482.641 1.06572 1.73801e-09)
(482.629 1.53812 -5.59736e-10)
(482.591 2.33913 8.74877e-11)
(482.563 2.8018 -2.4658e-11)
(482.509 3.59117 -5.8805e-10)
(482.459 4.09257 -4.96272e-10)
(482.395 4.80353 9.48345e-11)
(482.314 5.40727 4.73784e-10)
(482.249 5.96512 5.85436e-10)
(482.133 6.74596 4.44069e-10)
(482.067 7.06813 4.14922e-10)
(481.917 8.10625 2.45359e-10)
(481.848 8.11032 -1.89523e-10)
(481.666 9.47977 -4.20864e-10)
(481.594 9.09878 -2.86461e-10)
(481.381 10.8472 -2.66526e-10)
(481.3 10.0558 -5.6171e-11)
(481.071 12.1686 3.31015e-10)
(480.958 11.037 1.76713e-10)
(480.747 13.3314 -1.6773e-10)
(480.543 12.2168 -1.7844e-10)
(480.435 14.1894 6.07778e-11)
(480.052 13.5622 1.59189e-10)
(481.411 0.396863 -5.60163e-09)
(481.399 1.0916 1.71913e-09)
(481.387 1.57757 -5.61921e-10)
(481.351 2.39754 5.8163e-11)
(481.325 2.87238 -2.47126e-11)
(481.272 3.68253 -5.67038e-10)
(481.224 4.19457 -5.08679e-10)
(481.164 4.92796 1.1339e-10)
(481.086 5.541 5.21594e-10)
(481.025 6.12251 5.98751e-10)
(480.913 6.91195 4.80057e-10)
(480.852 7.25803 4.2157e-10)
(480.707 8.30521 2.16503e-10)
(480.644 8.33172 -1.96255e-10)
(480.467 9.71273 -3.99094e-10)
(480.401 9.34991 -2.92228e-10)
(480.194 11.116 -2.49411e-10)
(480.121 10.3337 -1.98076e-11)
(479.896 12.4774 3.44079e-10)
(479.794 11.3341 2.0735e-10)
(479.585 13.6973 -1.68535e-10)
(479.398 12.5155 -2.04228e-10)
(479.287 14.6091 6.1464e-11)
(478.924 13.8728 1.75393e-10)
(480.117 0.406642 -5.57975e-09)
(480.105 1.11591 1.77828e-09)
(480.094 1.61451 -5.07203e-10)
(480.059 2.45243 7.09167e-11)
(480.035 2.93847 -5.92411e-11)
(479.985 3.7684 -5.99266e-10)
(479.939 4.29008 -5.27178e-10)
(479.882 5.04495 1.08601e-10)
(479.808 5.66629 5.23762e-10)
(479.75 6.27061 6.12452e-10)
(479.643 7.06765 4.46093e-10)
(479.586 7.43696 3.99881e-10)
(479.446 8.49222 2.04725e-10)
(479.389 8.54071 -2.03056e-10)
(479.217 9.93224 -3.94738e-10)
(479.159 9.58739 -2.76542e-10)
(478.957 11.3698 -2.19842e-10)
(478.892 10.5968 1.773e-11)
(478.672 12.7693 3.33608e-10)
(478.581 11.6161 1.55418e-10)
(478.374 14.0432 -1.57178e-10)
(478.203 12.798 -1.83634e-10)
(478.09 15.0104 9.70799e-11)
(477.747 14.1661 2.23904e-10)
(478.772 0.415762 -5.5866e-09)
(478.76 1.13862 1.75215e-09)
(478.75 1.64892 -5.85148e-10)
(478.716 2.50374 6.48462e-11)
(478.693 3.00001 1.10644e-11)
(478.645 3.8487 -5.64453e-10)
(478.603 4.379 -5.40402e-10)
(478.548 5.15438 1.09873e-10)
(478.478 5.78298 4.90106e-10)
(478.425 6.40921 5.37251e-10)
(478.322 7.21278 4.47451e-10)
(478.269 7.60459 4.70967e-10)
(478.135 8.66687 2.29573e-10)
(478.083 8.73684 -2.15769e-10)
(477.917 10.1378 -3.90188e-10)
(477.866 9.81073 -2.54724e-10)
(477.67 11.6082 -2.44961e-10)
(477.613 10.8447 -4.73538e-11)
(477.399 13.044 3.47746e-10)
(477.318 11.8824 1.82437e-10)
(477.114 14.3682 -1.76586e-10)
(476.961 13.0639 -1.8937e-10)
(476.845 15.3925 1.09591e-10)
(476.522 14.4412 1.97425e-10)
(477.375 0.424207 -5.66733e-09)
(477.364 1.15971 1.73177e-09)
(477.354 1.68074 -5.75345e-10)
(477.321 2.5514 5.23243e-11)
(477.3 3.05692 -3.71541e-11)
(477.255 3.92334 -5.9192e-10)
(477.215 4.46125 -5.2973e-10)
(477.164 5.25616 9.86987e-11)
(477.097 5.89094 5.04806e-10)
(477.047 6.53819 5.75767e-10)
(476.949 7.34717 4.55028e-10)
(476.902 7.76069 4.54395e-10)
(476.773 8.82883 2.42578e-10)
(476.727 8.91972 -1.82045e-10)
(476.567 10.329 -3.85342e-10)
(476.523 10.0194 -2.78065e-10)
(476.333 11.8307 -2.38833e-10)
(476.284 11.0769 -1.33234e-11)
(476.075 13.3011 3.55819e-10)
(476.005 12.1325 2.15842e-10)
(475.805 14.6714 -1.07577e-10)
(475.668 13.3122 -2.11808e-10)
(475.55 15.755 4.80394e-11)
(475.249 14.6986 1.70182e-10)
(475.926 0.431961 -5.61336e-09)
(475.915 1.17913 1.80206e-09)
(475.907 1.70991 -5.3541e-10)
(475.875 2.59535 9.24959e-11)
(475.856 3.10911 -6.6458e-12)
(475.813 3.99222 -5.68448e-10)
(475.776 4.53674 -5.12431e-10)
(475.727 5.3502 1.12703e-10)
(475.664 5.9901 5.13587e-10)
(475.619 6.65746 5.7791e-10)
(475.525 7.47071 4.5011e-10)
(475.483 7.90514 4.37341e-10)
(475.359 8.97792 2.17351e-10)
(475.32 9.08911 -2.07363e-10)
(475.165 10.5054 -4.2563e-10)
(475.129 10.2131 -3.25573e-10)
(474.945 12.0367 -2.91512e-10)
(474.905 11.293 -1.39151e-12)
(474.702 13.5401 3.57845e-10)
(474.642 12.3661 2.05178e-10)
(474.446 14.9527 -1.2083e-10)
(474.326 13.5431 -1.73115e-10)
(474.205 16.0962 8.66134e-11)
(473.926 14.9362 1.99256e-10)
(474.426 0.43901 -5.65251e-09)
(474.416 1.19684 1.78103e-09)
(474.408 1.73639 -5.75114e-10)
(474.378 2.6355 9.28046e-11)
(474.36 3.15651 -1.92698e-11)
(474.319 4.05527 -5.97379e-10)
(474.285 4.60537 -5.01134e-10)
(474.24 5.43642 1.07647e-10)
(474.18 6.08039 4.96729e-10)
(474.139 6.76697 6.05708e-10)
(474.05 7.58333 4.58056e-10)
(474.013 8.0379 4.32382e-10)
(473.894 9.11402 2.56696e-10)
(473.861 9.24485 -1.90259e-10)
(473.712 10.6667 -4.20936e-10)
(473.683 10.3912 -2.78351e-10)
(473.505 12.2258 -2.59104e-10)
(473.474 11.4922 -4.78256e-11)
(473.278 13.7606 3.59613e-10)
(473.229 12.5825 1.94012e-10)
(473.037 15.2123 -1.61311e-10)
(472.932 13.7572 -1.6194e-10)
(472.81 16.4145 8.75619e-11)
(472.554 15.1529 1.7705e-10)
(472.875 0.445345 -5.72628e-09)
(472.864 1.21284 1.78806e-09)
(472.857 1.76014 -5.39568e-10)
(472.828 2.67182 5.24156e-11)
(472.813 3.19906 -1.31529e-11)
(472.774 4.11241 -5.52648e-10)
(472.742 4.66706 -5.41256e-10)
(472.7 5.51472 1.1555e-10)
(472.645 6.16171 5.44847e-10)
(472.607 6.86665 5.69085e-10)
(472.523 7.68499 4.66054e-10)
(472.491 8.15892 4.84692e-10)
(472.377 9.2371 2.2399e-10)
(472.35 9.38694 -1.85357e-10)
(472.208 10.8129 -3.68977e-10)
(472.186 10.5538 -3.09518e-10)
(472.015 12.3976 -2.53074e-10)
(471.993 11.6742 4.06174e-13)
(471.802 13.9619 3.2741e-10)
(471.764 12.7808 2.00267e-10)
(471.578 15.4504 -1.07972e-10)
(471.488 13.9544 -1.91516e-10)
(471.365 16.7097 9.48496e-11)
(471.132 15.3492 2.24848e-10)
(471.271 0.450966 -5.71203e-09)
(471.261 1.22713 1.83273e-09)
(471.255 1.78117 -5.09716e-10)
(471.227 2.70431 8.7892e-11)
(471.214 3.23673 -5.21042e-11)
(471.177 4.1636 -5.96224e-10)
(471.148 4.72176 -5.09939e-10)
(471.109 5.58505 1.43765e-10)
(471.057 6.23398 5.74041e-10)
(471.024 6.95641 6.04558e-10)
(470.944 7.77561 4.27283e-10)
(470.917 8.26818 4.40962e-10)
(470.809 9.34715 2.5137e-10)
(470.788 9.5154 -1.61186e-10)
(470.651 10.9439 -3.50116e-10)
(470.637 10.7007 -2.91672e-10)
(470.472 12.5521 -3.02161e-10)
(470.459 11.8385 -4.18933e-11)
(470.275 14.1436 3.42939e-10)
(470.249 12.9601 2.12869e-10)
(470.067 15.6665 -8.79056e-11)
(469.992 14.1349 -1.80455e-10)
(469.869 16.9813 4.0756e-11)
(469.658 15.5242 1.77815e-10)
(469.616 0.455881 -5.79537e-09)
(469.606 1.23971 1.76554e-09)
(469.6 1.7995 -5.96727e-10)
(469.574 2.73297 3.90486e-11)
(469.562 3.26955 -5.24956e-11)
(469.528 4.20886 -6.19701e-10)
(469.502 4.76946 -5.58038e-10)
(469.466 5.64737 7.67787e-11)
(469.418 6.29715 4.8927e-10)
(469.389 7.03618 5.59803e-10)
(469.314 7.85509 4.28747e-10)
(469.292 8.36559 4.22586e-10)
(469.189 9.44408 2.03914e-10)
(469.174 9.63022 -2.27248e-10)
(469.043 11.0598 -4.41648e-10)
(469.037 10.8321 -3.30501e-10)
(468.878 12.6892 -2.96004e-10)
(468.874 11.9853 -6.01527e-11)
(468.696 14.3055 3.02735e-10)
(468.681 13.1201 1.58568e-10)
(468.505 15.8599 -1.79634e-10)
(468.445 14.2981 -2.17318e-10)
(468.321 17.2286 4.82038e-11)
(468.134 15.6778 1.66526e-10)
(467.909 0.460101 -5.75435e-09)
(467.899 1.25061 1.81197e-09)
(467.894 1.81517 -5.86346e-10)
(467.869 2.75786 1.03896e-10)
(467.859 3.29758 -1.2688e-11)
(467.827 4.24823 -6.01315e-10)
(467.804 4.8102 -4.92063e-10)
(467.771 5.7017 1.26656e-10)
(467.727 6.35121 5.19069e-10)
(467.702 7.10592 6.37167e-10)
(467.631 7.92335 4.85536e-10)
(467.614 8.45105 4.50826e-10)
(467.517 9.52778 2.80746e-10)
(467.509 9.73131 -1.7617e-10)
(467.384 11.1606 -4.08346e-10)
(467.384 10.9481 -3.1842e-10)
(467.231 12.8091 -3.03917e-10)
(467.237 12.1146 -2.19957e-11)
(467.065 14.4477 3.26106e-10)
(467.061 13.2605 1.59071e-10)
(466.891 16.0305 -1.3061e-10)
(466.846 14.4428 -1.93507e-10)
(466.723 17.4506 4.87398e-11)
(466.559 15.8098 2.10512e-10)
(466.15 0.463637 -5.77231e-09)
(466.14 1.25987 1.82784e-09)
(466.136 1.82823 -5.82495e-10)
(466.112 2.77904 1.11777e-10)
(466.104 3.32088 -6.14864e-12)
(466.074 4.28179 -5.97035e-10)
(466.054 4.84407 -4.86651e-10)
(466.024 5.74811 1.35167e-10)
(465.983 6.39619 5.28418e-10)
(465.962 7.16565 5.77634e-10)
(465.896 7.98037 4.24511e-10)
(465.885 8.52449 4.65939e-10)
(465.793 9.59813 2.25086e-10)
(465.791 9.81853 -2.30711e-10)
(465.671 11.246 -3.96095e-10)
(465.68 11.0485 -3.06292e-10)
(465.533 12.9118 -2.90799e-10)
(465.548 12.2267 -8.70847e-12)
(465.382 14.5706 3.42702e-10)
(465.389 13.3817 1.72104e-10)
(465.225 16.1785 -1.17247e-10)
(465.193 14.5676 -1.82038e-10)
(465.074 17.6457 7.04231e-11)
(464.932 15.9204 2.30271e-10)
(464.338 0.466501 -5.81644e-09)
(464.329 1.26751 1.88281e-09)
(464.326 1.83872 -5.57909e-10)
(464.303 2.79656 5.35111e-11)
(464.297 3.33953 -6.55106e-12)
(464.268 4.30962 -5.4199e-10)
(464.251 4.87115 -5.1568e-10)
(464.225 5.78669 8.69594e-11)
(464.187 6.43221 5.37988e-10)
(464.17 7.21543 6.43034e-10)
(464.109 8.02617 4.75474e-10)
(464.102 8.5859 4.33135e-10)
(464.016 9.65503 2.46827e-10)
(464.02 9.89175 -1.58013e-10)
(463.907 11.3158 -4.11993e-10)
(463.923 11.1332 -3.33592e-10)
(463.783 12.9969 -2.62858e-10)
(463.806 12.3216 4.77591e-12)
(463.647 14.6741 3.45014e-10)
(463.664 13.4841 1.59933e-10)
(463.506 16.3049 -1.47446e-10)
(463.488 14.6717 -1.6387e-10)
(463.372 17.8123 7.83649e-11)
(463.253 16.0091 1.6224e-10)
(462.475 0.468696 -5.86995e-09)
(462.466 1.27353 1.82057e-09)
(462.463 1.84665 -5.94249e-10)
(462.442 2.81046 3.8832e-11)
(462.437 3.35358 -6.88919e-11)
(462.411 4.33179 -6.53781e-10)
(462.396 4.89152 -5.2437e-10)
(462.372 5.81754 1.81566e-10)
(462.339 6.45934 5.90086e-10)
(462.326 7.25537 6.52813e-10)
(462.269 8.06084 5.0572e-10)
(462.267 8.63534 4.8322e-10)
(462.186 9.69849 2.54575e-10)
(462.197 9.95091 -1.93263e-10)
(462.09 11.3699 -4.20939e-10)
(462.113 11.2018 -3.21178e-10)
(461.979 13.0644 -2.92976e-10)
(462.012 12.3988 -6.02943e-11)
(461.859 14.7582 2.95469e-10)
(461.888 13.5675 1.41044e-10)
(461.735 16.4097 -1.41365e-10)
(461.731 14.7559 -1.32506e-10)
(461.618 17.9505 1.38231e-10)
(461.522 16.0756 2.3912e-10)
(460.558 0.470225 -5.92426e-09)
(460.55 1.27795 1.83679e-09)
(460.548 1.85206 -5.6286e-10)
(460.528 2.82075 3.17599e-11)
(460.525 3.36305 -4.88184e-11)
(460.5 4.34833 -6.05006e-10)
(460.488 4.90523 -5.19088e-10)
(460.468 5.84072 1.47188e-10)
(460.438 6.47767 5.07884e-10)
(460.429 7.28557 5.98462e-10)
(460.376 8.08448 4.8614e-10)
(460.38 8.67293 4.21844e-10)
(460.304 9.72859 2.1878e-10)
(460.321 9.99607 -2.01474e-10)
(460.219 11.4083 -4.00949e-10)
(460.251 11.2544 -2.74899e-10)
(460.123 13.1137 -2.86402e-10)
(460.166 12.4581 -2.69523e-11)
(460.019 14.8222 3.64259e-10)
(460.059 13.6316 1.5427e-10)
(459.912 16.4928 -1.72699e-10)
(459.922 14.8204 -1.90715e-10)
(459.812 18.0613 1.01481e-10)
(459.737 16.1201 2.27161e-10)
(458.589 0.471084 -5.87926e-09)
(458.581 1.28076 1.86919e-09)
(458.58 1.85492 -5.86291e-10)
(458.561 2.82742 4.70558e-11)
(458.559 3.36794 -6.3176e-11)
(458.537 4.35924 -5.85463e-10)