/*--------------------------------*- C++ -*----------------------------------*\
  =========                 |
  \\      /  F ield         | OpenFOAM: The Open Source CFD Toolbox
   \\    /   O peration     | Website:  https://openfoam.org
    \\  /    A nd           | Version:  10
     \\/     M anipulation  |
\*---------------------------------------------------------------------------*/
FoamFile
{
    format      ascii;
    class       surfaceScalarField;
    location    "0.38";
    object      phi;
}
// * * * * * * * * * * * * * * * * * * * * * * * * * * * * * * * * * * * * * //

dimensions      [1 0 -1 0 0 0 0];

internalField   nonuniform List<scalar> 
8154
(
-5.88816e-09
-2.23979e-08
-5.71712e-08
-9.24475e-08
-1.71671e-07
-2.25728e-07
-3.69101e-07
-4.52731e-07
-6.73235e-07
-8.1314e-07
-1.10457e-06
-1.33789e-06
-1.66775e-06
-2.02642e-06
-2.36066e-06
-2.86689e-06
-3.25761e-06
-3.98546e-06
-4.56191e-06
-5.50569e-06
-6.82266e-06
-7.26534e-06
-6.84503e-06
-0.000277438
-0.000832369
2.3968e-08
-0.00138746
9.60196e-08
-0.00194289
2.12996e-07
-0.00249866
3.77649e-07
-0.00305504
5.77155e-07
-0.00361201
8.23783e-07
-0.00416974
1.08953e-06
-0.00472844
1.39896e-06
-0.00528791
1.71242e-06
-0.00584877
2.0567e-06
-0.00641057
2.40228e-06
-0.00697376
2.74735e-06
-0.00753866
3.12033e-06
-0.00810414
3.43706e-06
-0.00867312
3.85114e-06
-0.00924019
4.12605e-06
-0.00981488
4.57335e-06
-0.0103833
4.92514e-06
-0.0109646
5.1404e-06
-0.0115338
5.28002e-06
-0.0121235
5.11437e-06
-0.0126948
4.03262e-06
-0.0132929
2.45035e-06
-0.000277462
-0.000832441
2.62871e-08
-0.00138758
1.04591e-07
-0.00194305
2.34432e-07
-0.00249886
4.09814e-07
-0.00305528
6.35145e-07
-0.00361228
8.89892e-07
-0.00417005
1.1958e-06
-0.00472876
1.50236e-06
-0.00528825
1.86824e-06
-0.00584912
2.19115e-06
-0.00641092
2.59253e-06
-0.00697413
2.89162e-06
-0.00753897
3.29866e-06
-0.00810456
3.54004e-06
-0.00867339
3.90531e-06
-0.00924064
4.10535e-06
-0.00981522
4.39069e-06
-0.0103835
5.00291e-06
-0.0109647
4.66755e-06
-0.0115336
5.23266e-06
-0.0121224
5.33059e-06
-0.0126933
5.04211e-06
-0.0132905
4.22815e-06
-0.000277489
-0.000832519
2.12336e-08
-0.00138771
8.474e-08
-0.00194323
1.87819e-07
-0.00249909
3.30229e-07
-0.00305554
5.01868e-07
-0.00361258
7.07697e-07
-0.00417035
9.23847e-07
-0.00472912
1.16768e-06
-0.00528858
1.39535e-06
-0.00584952
1.64224e-06
-0.00641122
1.84532e-06
-0.00697454
2.04835e-06
-0.00753922
2.19658e-06
-0.00810493
2.2843e-06
-0.00867359
2.35491e-06
-0.00924093
2.20761e-06
-0.00981583
2.34492e-06
-0.0103831
1.90007e-06
-0.0109653
1.78339e-06
-0.0115337
1.39404e-06
-0.0121221
1.15419e-06
-0.0126924
7.20979e-07
-0.0132862
5.11304e-07
-0.00027751
-0.000832583
2.5477e-08
-0.00138781
1.01729e-07
-0.00194337
2.25843e-07
-0.00249926
3.97574e-07
-0.00305574
6.05659e-07
-0.0036128
8.56055e-07
-0.0041706
1.12068e-06
-0.00472935
1.42186e-06
-0.00528882
1.70372e-06
-0.00584972
2.01727e-06
-0.00641142
2.27102e-06
-0.00697469
2.54671e-06
-0.0075393
2.7325e-06
-0.008105
2.89512e-06
-0.00867344
2.98631e-06
-0.00924107
2.89899e-06
-0.00981538
2.9761e-06
-0.010383
2.28396e-06
-0.0109649
2.5189e-06
-0.0115335
1.72721e-06
-0.0121217
1.20707e-06
-0.0126922
3.79747e-07
-0.0132857
-1.77094e-07
-0.000277535
-0.000832659
3.36005e-08
-0.00138793
1.34125e-07
-0.00194354
2.99049e-07
-0.00249947
5.26294e-07
-0.00305599
8.08054e-07
-0.00361306
1.14213e-06
-0.0041709
1.51315e-06
-0.00472963
1.92044e-06
-0.00528914
2.34024e-06
-0.00584998
2.77374e-06
-0.00641169
3.19308e-06
-0.00697487
3.59424e-06
-0.00753946
3.96281e-06
-0.0081051
4.25841e-06
-0.00867335
4.52279e-06
-0.00924115
4.61617e-06
-0.00981469
4.73204e-06
-0.0103833
4.40151e-06
-0.0109641
4.36726e-06
-0.0115329
3.67471e-06
-0.0121209
3.21514e-06
-0.0126917
2.27022e-06
-0.0132859
1.34267e-06
-0.000277569
-0.00083276
3.75338e-08
-0.0013881
1.49829e-07
-0.00194377
3.34317e-07
-0.00249975
5.88407e-07
-0.00305633
9.04565e-07
-0.00361343
1.27887e-06
-0.00417131
1.69737e-06
-0.00473005
2.15521e-06
-0.00528957
2.63215e-06
-0.0058504
3.1214e-06
-0.0064121
3.60137e-06
-0.00697524
4.05647e-06
-0.00753976
4.48027e-06
-0.00810536
4.82101e-06
-0.00867344
5.12449e-06
-0.00924127
5.25054e-06
-0.00981435
5.37023e-06
-0.0103832
5.08287e-06
-0.0109634
4.96705e-06
-0.0115325
4.21833e-06
-0.01212
3.68296e-06
-0.0126908
2.63931e-06
-0.0132845
1.60704e-06
-0.000277606
-0.000832872
4.13792e-08
-0.00138828
1.65187e-07
-0.00194402
3.68675e-07
-0.00250007
6.48988e-07
-0.0030567
9.98137e-07
-0.00361385
1.4118e-06
-0.00417176
1.87522e-06
-0.00473053
2.38313e-06
-0.00529006
2.91351e-06
-0.00585088
3.45946e-06
-0.00641255
3.99553e-06
-0.00697567
4.50739e-06
-0.0075401
4.98106e-06
-0.00810566
5.37022e-06
-0.00867356
5.70764e-06
-0.0092414
5.86309e-06
-0.00981406
5.99728e-06
-0.0103831
5.71891e-06
-0.0109626
5.59718e-06
-0.0115319
4.81259e-06
-0.0121189
4.20553e-06
-0.0126898
2.99028e-06
-0.0132829
1.79129e-06
-0.000277648
-0.000832996
4.50876e-08
-0.00138849
1.79977e-07
-0.0019443
4.01722e-07
-0.00250041
7.0705e-07
-0.00305711
1.08765e-06
-0.00361431
1.53835e-06
-0.00417227
2.04429e-06
-0.00473106
2.59872e-06
-0.00529061
3.17984e-06
-0.00585142
3.77812e-06
-0.00641306
4.36832e-06
-0.00697614
4.93237e-06
-0.00754049
5.45523e-06
-0.00810599
5.88808e-06
-0.00867372
6.25849e-06
-0.00924153
6.44167e-06
-0.00981378
6.58073e-06
-0.010383
6.32839e-06
-0.0109618
6.17716e-06
-0.0115313
5.37518e-06
-0.0121177
4.82759e-06
-0.0126886
3.36217e-06
-0.0132811
2.0143e-06
-0.000277693
-0.000833131
4.87471e-08
-0.00138871
1.94562e-07
-0.00194461
4.34253e-07
-0.00250079
7.64106e-07
-0.00305757
1.17532e-06
-0.00361482
1.66196e-06
-0.00417283
2.20871e-06
-0.00473164
2.80774e-06
-0.00529121
3.43693e-06
-0.00585201
4.08518e-06
-0.00641363
4.72657e-06
-0.00697667
5.34097e-06
-0.00754092
5.91093e-06
-0.00810636
6.38643e-06
-0.0086739
6.78852e-06
-0.00924168
6.99678e-06
-0.00981353
7.13601e-06
-0.0103829
6.90237e-06
-0.010961
6.72778e-06
-0.0115307
5.91234e-06
-0.0121163
4.85941e-06
-0.0126872
3.71143e-06
-0.0132791
2.20838e-06
-0.000277742
-0.000833276
5.23561e-08
-0.00138895
2.08941e-07
-0.00194494
4.66305e-07
-0.00250121
8.20268e-07
-0.00305805
1.26147e-06
-0.00361537
1.78315e-06
-0.00417342
2.36937e-06
-0.00473227
3.01124e-06
-0.00529185
3.68608e-06
-0.00585265
4.38154e-06
-0.00641424
5.07095e-06
-0.00697724
5.73273e-06
-0.00754139
6.34727e-06
-0.00810676
6.8637e-06
-0.00867411
7.29693e-06
-0.00924182
7.5285e-06
-0.0098133
7.66642e-06
-0.0103827
7.44769e-06
-0.0109602
7.2467e-06
-0.01153
6.3959e-06
-0.0121148
5.60204e-06
-0.0126857
4.03255e-06
-0.0132769
2.39647e-06
-0.000277794
-0.000833433
5.5929e-08
-0.00138921
2.2318e-07
-0.00194529
4.98054e-07
-0.00250165
8.75924e-07
-0.00305857
1.34683e-06
-0.00361595
1.90316e-06
-0.00417407
2.52819e-06
-0.00473294
3.21191e-06
-0.00529255
3.9308e-06
-0.00585335
4.67134e-06
-0.0064149
5.40591e-06
-0.00697786
6.11201e-06
-0.00754191
6.76797e-06
-0.00810719
7.32298e-06
-0.00867434
7.78652e-06
-0.00924196
8.04264e-06
-0.00981308
8.18669e-06
-0.0103825
7.96958e-06
-0.0109593
7.74164e-06
-0.0115292
6.86318e-06
-0.0121132
6.00812e-06
-0.0126841
4.35647e-06
-0.0132745
2.58323e-06
-0.00027785
-0.0008336
5.9458e-08
-0.00138948
2.37253e-07
-0.00194567
5.29458e-07
-0.00250212
9.31045e-07
-0.00305913
1.43146e-06
-0.00361658
2.02226e-06
-0.00417475
2.68582e-06
-0.00473366
3.41092e-06
-0.00529329
4.17293e-06
-0.00585408
4.9571e-06
-0.00641561
5.7345e-06
-0.00697851
6.48193e-06
-0.00754246
7.17571e-06
-0.00810764
7.76572e-06
-0.0086746
8.25666e-06
-0.00924211
8.5357e-06
-0.00981287
8.68634e-06
-0.0103823
8.46668e-06
-0.0109585
8.20402e-06
-0.0115284
7.28758e-06
-0.0121116
6.37558e-06
-0.0126823
4.65121e-06
-0.0132719
2.75399e-06
-0.000277909
-0.000833778
6.29425e-08
-0.00138977
2.51153e-07
-0.00194607
5.60505e-07
-0.00250262
9.85612e-07
-0.00305972
1.51536e-06
-0.00361724
2.14053e-06
-0.00417547
2.84254e-06
-0.00473443
3.60897e-06
-0.00529408
4.41381e-06
-0.00585486
5.24092e-06
-0.00641636
6.05977e-06
-0.00697921
6.84631e-06
-0.00754305
7.57469e-06
-0.00810813
8.19594e-06
-0.00867488
8.71052e-06
-0.00924226
9.00933e-06
-0.00981265
9.16415e-06
-0.010382
8.94467e-06
-0.0109575
8.64207e-06
-0.0115275
7.68044e-06
-0.0121098
6.70768e-06
-0.0126804
4.89481e-06
-0.0132691
2.90141e-06
-0.000277972
-0.000833966
6.63844e-08
-0.00139008
2.64883e-07
-0.00194649
5.91177e-07
-0.00250315
1.03955e-06
-0.00306035
1.59836e-06
-0.00361794
2.25768e-06
-0.00417624
2.998e-06
-0.00473523
3.80571e-06
-0.0052949
4.65337e-06
-0.00585568
5.52331e-06
-0.00641714
6.3831e-06
-0.00697993
7.20753e-06
-0.00754367
7.96828e-06
-0.00810864
8.6174e-06
-0.00867518
9.15148e-06
-0.00924242
9.46596e-06
-0.00981244
9.62323e-06
-0.0103817
9.40586e-06
-0.0109566
9.06139e-06
-0.0115265
8.05569e-06
-0.012108
7.0127e-06
-0.0126785
5.05393e-06
-0.0132662
3.02735e-06
-0.000278038
-0.000834164
6.97907e-08
-0.00139041
2.78462e-07
-0.00194694
6.21491e-07
-0.00250371
1.09283e-06
-0.003061
1.68031e-06
-0.00361868
2.37334e-06
-0.00417705
3.15154e-06
-0.00473608
4.00023e-06
-0.00529577
4.89059e-06
-0.00585654
5.80339e-06
-0.00641797
6.7042e-06
-0.0069807
7.56633e-06
-0.00754432
8.35866e-06
-0.00810916
9.03364e-06
-0.0086755
9.5837e-06
-0.00924258
9.90893e-06
-0.00981223
1.00646e-05
-0.0103813
9.8469e-06
-0.0109556
9.46169e-06
-0.0115255
8.41763e-06
-0.0121061
7.31275e-06
-0.0126764
5.274e-06
-0.0132632
3.1588e-06
-0.000278108
-0.000834372
7.31641e-08
-0.00139075
2.91903e-07
-0.00194741
6.5145e-07
-0.00250429
1.14539e-06
-0.0030617
1.76099e-06
-0.00361946
2.48704e-06
-0.0041779
3.30232e-06
-0.00473697
4.19123e-06
-0.00529669
5.12366e-06
-0.00585744
6.07902e-06
-0.00641883
7.02095e-06
-0.00698149
7.92112e-06
-0.007545
8.74546e-06
-0.00810971
9.44616e-06
-0.00867583
1.0011e-05
-0.00924274
1.03436e-05
-0.00981201
1.0491e-05
-0.010381
1.02601e-05
-0.0109545
9.84123e-06
-0.0115244
8.76008e-06
-0.012104
7.59476e-06
-0.0126743
5.49213e-06
-0.01326
3.28054e-06
-0.000278181
-0.000834591
7.6495e-08
-0.00139111
3.0516e-07
-0.00194791
6.80949e-07
-0.00250491
1.19701e-06
-0.00306242
1.84003e-06
-0.00362028
2.59813e-06
-0.00417878
3.44928e-06
-0.0047379
4.37708e-06
-0.00529764
5.3503e-06
-0.00585839
6.34722e-06
-0.00641973
7.32977e-06
-0.00698231
8.26811e-06
-0.0075457
9.12529e-06
-0.00811027
9.8528e-06
-0.00867616
1.04336e-05
-0.00924289
1.07738e-05
-0.00981179
1.09118e-05
-0.0103805
1.06641e-05
-0.0109534
1.02108e-05
-0.0115232
9.09306e-06
-0.0121019
7.86615e-06
-0.0126721
5.69247e-06
-0.0132567
3.39387e-06
-0.000278258
-0.000834819
7.97569e-08
-0.00139149
3.18131e-07
-0.00194842
7.09767e-07
-0.00250555
1.24735e-06
-0.00306318
1.9169e-06
-0.00362113
2.70588e-06
-0.00417971
3.59139e-06
-0.00473888
4.55632e-06
-0.00529864
5.56842e-06
-0.00585937
6.60509e-06
-0.00642067
7.62686e-06
-0.00698317
8.60267e-06
-0.00754642
9.49305e-06
-0.00811084
1.02486e-05
-0.00867651
1.08475e-05
-0.00924303
1.11976e-05
-0.00981155
1.13283e-05
-0.0103801
1.10658e-05
-0.0109523
1.05741e-05
-0.011522
9.42213e-06
-0.0120998
8.13414e-06
-0.0126698
5.88687e-06
-0.0132533
3.50192e-06
-0.000278337
-0.000835057
8.28915e-08
-0.00139188
3.30592e-07
-0.00194896
7.37444e-07
-0.00250622
1.29567e-06
-0.00306397
1.9906e-06
-0.00362202
2.80899e-06
-0.00418068
3.72708e-06
-0.00473989
4.727e-06
-0.00529967
5.77556e-06
-0.00586039
6.84944e-06
-0.00642164
7.90804e-06
-0.00698406
8.91946e-06
-0.00754718
9.84218e-06
-0.00811144
1.06262e-05
-0.00867686
1.12454e-05
-0.00924316
1.16084e-05
-0.00981129
1.17358e-05
-0.0103796
1.14613e-05
-0.0109512
1.09309e-05
-0.0115207
9.75129e-06
-0.0120975
8.40338e-06
-0.0126674
6.08121e-06
-0.0132498
3.60852e-06
-0.00027842
-0.000835305
8.58211e-08
-0.00139228
3.42245e-07
-0.00194952
7.63354e-07
-0.00250692
1.34095e-06
-0.00306479
2.05975e-06
-0.00362293
2.90577e-06
-0.00418168
3.85438e-06
-0.00474094
4.88691e-06
-0.00530075
5.9692e-06
-0.00586145
7.07728e-06
-0.00642266
8.16955e-06
-0.00698498
9.21356e-06
-0.00754796
1.01663e-05
-0.00811205
1.09775e-05
-0.00867722
1.16177e-05
-0.00924329
1.19965e-05
-0.00981102
1.2126e-05
-0.010379
1.18441e-05
-0.01095
1.12791e-05
-0.0115193
1.00792e-05
-0.0120952
8.67629e-06
-0.012665
6.28145e-06
-0.0132462
3.71839e-06
-0.000278506
-0.000835561
8.84566e-08
-0.00139271
3.52743e-07
-0.00195009
7.86758e-07
-0.00250764
1.38199e-06
-0.00306563
2.12261e-06
-0.00362388
2.99403e-06
-0.00418271
3.97072e-06
-0.00474202
5.03321e-06
-0.00530186
6.14632e-06
-0.00586254
7.28531e-06
-0.0064237
8.40766e-06
-0.00698593
9.48048e-06
-0.00754878
1.04596e-05
-0.00811269
1.1295e-05
-0.00867761
1.19547e-05
-0.00924342
1.23499e-05
-0.00981075
1.24858e-05
-0.0103785
1.22043e-05
-0.0109488
1.16186e-05
-0.0115179
1.03987e-05
-0.0120928
8.94482e-06
-0.0126624
6.48849e-06
-0.0132425
3.83448e-06
-0.000278594
-0.000835825
9.07118e-08
-0.00139314
3.61746e-07
-0.00195069
8.06905e-07
-0.00250838
1.4175e-06
-0.00306651
2.17731e-06
-0.00362486
3.07126e-06
-0.00418377
4.07303e-06
-0.00474313
5.16239e-06
-0.005303
6.30309e-06
-0.00586366
7.46957e-06
-0.00642477
8.61824e-06
-0.00698691
9.71575e-06
-0.00754961
1.07169e-05
-0.00811335
1.15722e-05
-0.008678
1.22478e-05
-0.00924355
1.26569e-05
-0.00981047
1.27996e-05
-0.0103779
1.25225e-05
-0.0109476
1.19271e-05
-0.0115165
1.06884e-05
-0.0120904
9.19048e-06
-0.0126598
6.69202e-06
-0.0132386
3.95312e-06
-0.000278685
-0.000836096
9.25169e-08
-0.00139358
3.68971e-07
-0.0019513
8.2315e-07
-0.00250914
1.44631e-06
-0.0030674
2.22201e-06
-0.00362586
3.13486e-06
-0.00418486
4.15794e-06
-0.00474428
5.27036e-06
-0.00530416
6.43489e-06
-0.00586481
7.62511e-06
-0.00642587
8.79622e-06
-0.00698791
9.91429e-06
-0.00755047
1.0933e-05
-0.00811402
1.18033e-05
-0.00867841
1.24899e-05
-0.00924369
1.29085e-05
-0.0098102
1.3055e-05
-0.0103772
1.27807e-05
-0.0109463
1.21748e-05
-0.011515
1.09249e-05
-0.0120879
9.38896e-06
-0.012657
6.86586e-06
-0.0132347
4.0568e-06
-0.000278777
-0.000836372
9.38245e-08
-0.00139404
3.7422e-07
-0.00195192
8.35011e-07
-0.00250991
1.46749e-06
-0.00306831
2.25514e-06
-0.00362689
3.18244e-06
-0.00418597
4.22209e-06
-0.00474544
5.35277e-06
-0.00530535
6.53646e-06
-0.00586598
7.74597e-06
-0.00642699
8.93528e-06
-0.00698893
1.00697e-05
-0.00755134
1.11017e-05
-0.00811471
1.19822e-05
-0.00867883
1.26747e-05
-0.00924384
1.30975e-05
-0.00980993
1.32432e-05
-0.0103766
1.29683e-05
-0.0109451
1.23502e-05
-0.0115135
1.10934e-05
-0.0120853
9.51491e-06
-0.0126542
6.96624e-06
-0.0132306
4.11121e-06
-0.000278871
-0.000836653
9.46242e-08
-0.0013945
3.77439e-07
-0.00195255
8.42326e-07
-0.0025107
1.48066e-06
-0.00306924
2.27593e-06
-0.00362793
3.21265e-06
-0.0041871
4.26333e-06
-0.00474662
5.40658e-06
-0.00530656
6.60375e-06
-0.00586717
7.82741e-06
-0.00642813
9.03009e-06
-0.00698997
1.0177e-05
-0.00755222
1.1218e-05
-0.0081154
1.21053e-05
-0.00867925
1.27989e-05
-0.00924399
1.32215e-05
-0.00980966
1.33604e-05
-0.010376
1.30813e-05
-0.0109439
1.2449e-05
-0.0115119
1.11885e-05
-0.0120828
9.55879e-06
-0.0126513
6.95669e-06
-0.0132265
4.089e-06
-0.000278966
-0.000836935
9.52973e-08
-0.00139496
3.80146e-07
-0.00195319
8.48469e-07
-0.0025115
1.49172e-06
-0.00307017
2.29343e-06
-0.00362898
3.23824e-06
-0.00418824
4.29864e-06
-0.00474782
5.4534e-06
-0.00530779
6.66369e-06
-0.00586838
7.90207e-06
-0.00642927
9.12034e-06
-0.00699101
1.02832e-05
-0.00755311
1.13391e-05
-0.00811609
1.22396e-05
-0.00867967
1.29425e-05
-0.00924412
1.33722e-05
-0.00980938
1.35126e-05
-0.0103754
1.32358e-05
-0.0109426
1.25979e-05
-0.0115102
1.134e-05
-0.0120802
9.68347e-06
-0.0126485
7.04891e-06
-0.0132224
4.18917e-06
-0.000279061
-0.00083722
9.55775e-08
-0.00139543
3.81273e-07
-0.00195384
8.51039e-07
-0.0025123
1.49639e-06
-0.00307112
2.30089e-06
-0.00363004
3.24933e-06
-0.0041894
4.31431e-06
-0.00474903
5.4749e-06
-0.00530902
6.69249e-06
-0.0058696
7.93994e-06
-0.00643044
9.16906e-06
-0.00699206
1.03442e-05
-0.00755401
1.14133e-05
-0.0081168
1.23264e-05
-0.0086801
1.304e-05
-0.00924426
1.34778e-05
-0.0098091
1.36217e-05
-0.0103747
1.33472e-05
-0.0109413
1.27039e-05
-0.0115086
1.14446e-05
-0.0120776
9.78688e-06
-0.0126456
7.13284e-06
-0.0132183
4.35786e-06
-0.000279157
-0.000837506
9.53554e-08
-0.0013959
3.80388e-07
-0.00195448
8.49073e-07
-0.0025131
1.49298e-06
-0.00307207
2.2957e-06
-0.0036311
3.24219e-06
-0.00419056
4.30514e-06
-0.00475025
5.46407e-06
-0.00531027
6.68072e-06
-0.00587083
7.92868e-06
-0.00643161
9.16015e-06
-0.00699313
1.03399e-05
-0.00755493
1.14158e-05
-0.00811751
1.23373e-05
-0.00868054
1.30592e-05
-0.00924441
1.35042e-05
-0.00980882
1.36513e-05
-0.0103741
1.3378e-05
-0.0109401
1.2728e-05
-0.0115069
1.14711e-05
-0.0120749
9.81088e-06
-0.0126427
7.18558e-06
-0.0132141
3.94133e-06
-0.000279252
-0.000837791
9.46691e-08
-0.00139637
3.77651e-07
-0.00195512
8.42962e-07
-0.00251391
1.48225e-06
-0.00307301
2.27917e-06
-0.00363216
3.21886e-06
-0.00419172
4.27413e-06
-0.00475147
5.4249e-06
-0.00531152
6.63331e-06
-0.00587206
7.87388e-06
-0.00643279
9.09949e-06
-0.00699421
1.0276e-05
-0.00755585
1.13517e-05
-0.00811823
1.22764e-05
-0.00868098
1.30043e-05
-0.00924455
1.3457e-05
-0.00980854
1.36103e-05
-0.0103734
1.33415e-05
-0.0109388
1.26863e-05
-0.0115053
1.14301e-05
-0.0120723
9.75316e-06
-0.0126398
7.16393e-06
-0.0132098
3.90067e-06
-0.000279347
-0.000838074
9.35454e-08
-0.00139684
3.73177e-07
-0.00195576
8.32998e-07
-0.0025147
1.4648e-06
-0.00307395
2.25238e-06
-0.00363322
3.18113e-06
-0.00419287
4.22399e-06
-0.00475267
5.3613e-06
-0.00531276
6.55551e-06
-0.00587328
7.78205e-06
-0.00643397
8.99453e-06
-0.00699529
1.01601e-05
-0.00755677
1.12281e-05
-0.00811896
1.21499e-05
-0.00868144
1.28798e-05
-0.00924471
1.33396e-05
-0.00980827
1.35031e-05
-0.0103728
1.32465e-05
-0.0109376
1.25965e-05
-0.0115036
1.13436e-05
-0.0120697
9.64669e-06
-0.0126368
7.08602e-06
-0.0132055
4.20056e-06
-0.000279441
-0.000838354
9.20118e-08
-0.0013973
3.67078e-07
-0.00195639
8.19449e-07
-0.00251549
1.44115e-06
-0.00307488
2.21622e-06
-0.00363426
3.13045e-06
-0.004194
4.157e-06
-0.00475387
5.27666e-06
-0.00531399
6.45216e-06
-0.0058745
7.65969e-06
-0.00643514
8.85344e-06
-0.00699636
1.00018e-05
-0.0075577
1.10551e-05
-0.00811969
1.19668e-05
-0.00868189
1.26927e-05
-0.00924487
1.31563e-05
-0.009808
1.3331e-05
-0.0103721
1.30932e-05
-0.0109363
1.24629e-05
-0.0115019
1.12323e-05
-0.0120671
9.54241e-06
-0.0126339
7.01623e-06
-0.0132014
4.163e-06
-0.000279533
-0.000838629
9.01081e-08
-0.00139775
3.59512e-07
-0.00195702
8.02655e-07
-0.00251626
1.41187e-06
-0.00307579
2.17161e-06
-0.00363529
3.06815e-06
-0.00419512
4.07509e-06
-0.00475504
5.17377e-06
-0.00531519
6.32724e-06
-0.00587569
7.5124e-06
-0.00643629
8.68374e-06
-0.00699741
9.81069e-06
-0.00755861
1.08441e-05
-0.00812042
1.17397e-05
-0.00868236
1.24546e-05
-0.00924504
1.29157e-05
-0.00980776
1.30977e-05
-0.0103715
1.28793e-05
-0.0109351
1.22773e-05
-0.0115002
1.10855e-05
-0.0120646
9.43323e-06
-0.0126311
6.93589e-06
-0.0131972
4.11812e-06
-0.000279623
-0.000838899
8.7892e-08
-0.00139819
3.50704e-07
-0.00195762
7.83094e-07
-0.00251702
1.37777e-06
-0.00307669
2.11967e-06
-0.0036363
2.99572e-06
-0.00419622
3.98013e-06
-0.0047562
5.05499e-06
-0.00531638
6.18386e-06
-0.00587686
7.34438e-06
-0.00643741
8.49129e-06
-0.00699845
9.5947e-06
-0.0075595
1.06055e-05
-0.00812113
1.14814e-05
-0.00868282
1.21801e-05
-0.00924523
1.26323e-05
-0.00980753
1.28142e-05
-0.0103709
1.26097e-05
-0.0109339
1.20365e-05
-0.0114986
1.0891e-05
-0.0120621
9.28929e-06
-0.0126283
6.85599e-06
-0.0131931
4.06316e-06
-0.000279711
-0.000839162
8.54374e-08
-0.00139862
3.4094e-07
-0.00195822
7.61381e-07
-0.00251777
1.33985e-06
-0.00307756
2.06182e-06
-0.00363728
2.91496e-06
-0.0041973
3.87422e-06
-0.00475733
4.92265e-06
-0.00531754
6.02462e-06
-0.00587801
7.15865e-06
-0.00643852
8.2799e-06
-0.00699946
9.35916e-06
-0.00756038
1.03472e-05
-0.00812183
1.12027e-05
-0.00868327
1.18833e-05
-0.00924541
1.23225e-05
-0.00980732
1.24974e-05
-0.0103704
1.22979e-05
-0.0109327
1.17462e-05
-0.011497
1.06445e-05
-0.0120597
9.10737e-06
-0.0126255
6.77408e-06
-0.013189
4.00323e-06
-0.000279796
-0.000839417
8.28261e-08
-0.00139905
3.30539e-07
-0.0019588
7.38209e-07
-0.00251849
1.29927e-06
-0.00307842
1.99973e-06
-0.00363824
2.828e-06
-0.00419834
3.75987e-06
-0.00475843
4.77945e-06
-0.00531867
5.85215e-06
-0.00587913
6.95768e-06
-0.0064396
8.05196e-06
-0.00700044
9.10671e-06
-0.00756123
1.00728e-05
-0.00812251
1.09095e-05
-0.00868371
1.15737e-05
-0.00924558
1.20004e-05
-0.00980712
1.21657e-05
-0.0103698
1.19646e-05
-0.0109316
1.14224e-05
-0.0114954
1.03504e-05
-0.0120573
8.87253e-06
-0.0126227
6.64741e-06
-0.013185
3.92675e-06
-0.000279879
-0.000839665
8.01333e-08
-0.00139945
3.198e-07
-0.00195936
7.14233e-07
-0.00251919
1.25716e-06
-0.00307924
1.93508e-06
-0.00363917
2.73708e-06
-0.00419936
3.63977e-06
-0.0047595
4.62841e-06
-0.00531978
5.66947e-06
-0.00588023
6.74414e-06
-0.00644065
7.80944e-06
-0.00700141
8.83849e-06
-0.00756207
9.7828e-06
-0.00812318
1.06026e-05
-0.00868414
1.12537e-05
-0.00924575
1.16722e-05
-0.00980692
1.1832e-05
-0.0103693
1.16297e-05
-0.0109306
1.10918e-05
-0.0114939
1.00354e-05
-0.0120551
8.5897e-06
-0.01262
6.42052e-06
-0.0131811
3.81599e-06
-0.000279959
-0.000839905
7.74163e-08
-0.00139985
3.08952e-07
-0.0019599
6.89968e-07
-0.00251987
1.21444e-06
-0.00308005
1.86926e-06
-0.00364008
2.64416e-06
-0.00420035
3.51648e-06
-0.00476055
4.47251e-06
-0.00532085
5.47981e-06
-0.00588129
6.52105e-06
-0.00644168
7.55471e-06
-0.00700236
8.55561e-06
-0.00756289
9.47662e-06
-0.00812383
1.02794e-05
-0.00868456
1.09197e-05
-0.00924591
1.13343e-05
-0.00980672
1.14963e-05
-0.0103687
1.13007e-05
-0.0109295
1.07738e-05
-0.0114925
9.73382e-06
-0.0120529
8.31043e-06
-0.0126174
6.18815e-06
-0.0131773
3.67315e-06
-0.000280037
-0.000840136
7.47059e-08
-0.00140023
2.98121e-07
-0.00196042
6.65708e-07
-0.00252052
1.17164e-06
-0.00308082
1.80315e-06
-0.00364095
2.55055e-06
-0.00420131
3.3918e-06
-0.00476155
4.31413e-06
-0.0053219
5.286e-06
-0.00588233
6.2915e-06
-0.00644268
7.29056e-06
-0.00700328
8.25992e-06
-0.00756369
9.1542e-06
-0.00812446
9.93702e-06
-0.00868498
1.05651e-05
-0.00924607
1.0977e-05
-0.00980653
1.11475e-05
-0.0103682
1.09677e-05
-0.0109285
1.04659e-05
-0.011491
9.45297e-06
-0.0120508
8.05599e-06
-0.0126149
5.97129e-06
-0.0131736
3.48737e-06
-0.000280111
-0.000840359
7.20017e-08
-0.0014006
2.87306e-07
-0.00196093
6.41462e-07
-0.00252115
1.12881e-06
-0.00308157
1.73691e-06
-0.00364179
2.45656e-06
-0.00420223
3.26632e-06
-0.00476253
4.15417e-06
-0.0053229
5.08942e-06
-0.00588332
6.05725e-06
-0.00644365
7.01901e-06
-0.00700417
7.9532e-06
-0.00756447
8.81628e-06
-0.00812509
9.57403e-06
-0.00868539
1.01848e-05
-0.00924624
1.05898e-05
-0.00980636
1.07691e-05
-0.0103677
1.06096e-05
-0.0109275
1.01469e-05
-0.0114896
9.17862e-06
-0.0120487
7.83384e-06
-0.0126124
5.79083e-06
-0.0131701
3.31424e-06
-0.000280183
-0.000840574
6.92809e-08
-0.00140095
2.76422e-07
-0.00196142
6.17045e-07
-0.00252176
1.08564e-06
-0.00308229
1.67008e-06
-0.0036426
2.36164e-06
-0.00420312
3.13945e-06
-0.00476346
3.99214e-06
-0.00532387
4.88975e-06
-0.00588429
5.81837e-06
-0.00644458
6.7406e-06
-0.00700503
7.63639e-06
-0.00756523
8.46388e-06
-0.0081257
9.19057e-06
-0.00868579
9.77677e-06
-0.00924642
1.01664e-05
-0.0098062
1.03479e-05
-0.0103672
1.02038e-05
-0.0109265
9.78315e-06
-0.0114883
8.86841e-06
-0.0120467
7.60768e-06
-0.0126099
5.64444e-06
-0.0131668
3.28991e-06
-0.000280253
-0.000840781
6.64941e-08
-0.00140129
2.65271e-07
-0.00196189
5.9202e-07
-0.00252234
1.04136e-06
-0.00308298
1.60151e-06
-0.00364338
2.26421e-06
-0.00420397
3.00918e-06
-0.00476436
3.82559e-06
-0.0053248
4.68424e-06
-0.00588521
5.57192e-06
-0.00644548
6.45259e-06
-0.00700586
7.30706e-06
-0.00756596
8.0952e-06
-0.00812629
8.78529e-06
-0.00868618
9.33968e-06
-0.0092466
9.70408e-06
-0.00980606
9.87706e-06
-0.0103668
9.73654e-06
-0.0109256
9.34699e-06
-0.011487
8.47645e-06
-0.0120447
7.30447e-06
-0.0126076
5.43253e-06
-0.0131635
3.22425e-06
-0.000280319
-0.00084098
6.3572e-08
-0.00140162
2.53569e-07
-0.00196233
5.65747e-07
-0.00252291
9.94859e-07
-0.00308364
1.52947e-06
-0.00364412
2.16183e-06
-0.00420479
2.87222e-06
-0.00476522
3.65044e-06
-0.00532569
4.46783e-06
-0.00588609
5.31225e-06
-0.00644633
6.1484e-06
-0.00700665
6.9589e-06
-0.00756665
7.70333e-06
-0.00812685
8.35313e-06
-0.00868654
8.86818e-06
-0.00924678
9.20117e-06
-0.00980592
9.35119e-06
-0.0103664
9.20487e-06
-0.0109247
8.82238e-06
-0.0114859
7.98337e-06
-0.0120429
6.87829e-06
-0.0126053
5.09861e-06
-0.0131603
3.04077e-06
-0.000280382
-0.000841169
6.07684e-08
-0.00140193
2.42321e-07
-0.00196276
5.40491e-07
-0.00252344
9.50169e-07
-0.00308427
1.4603e-06
-0.00364484
2.06367e-06
-0.00420557
2.74113e-06
-0.00476604
3.48317e-06
-0.00532653
4.26148e-06
-0.00588692
5.06546e-06
-0.00644714
5.85999e-06
-0.00700739
6.63049e-06
-0.0075673
7.33462e-06
-0.00812737
7.94943e-06
-0.00868688
8.4287e-06
-0.00924693
8.73637e-06
-0.00980576
8.86287e-06
-0.0103661
8.71473e-06
-0.0109239
8.32732e-06
-0.0114848
7.51713e-06
-0.0120411
6.45528e-06
-0.0126033
4.75887e-06
-0.0131572
2.81315e-06
-0.000280443
-0.000841351
5.82908e-08
-0.00140223
2.32384e-07
-0.00196317
5.18188e-07
-0.00252395
9.10751e-07
-0.00308488
1.39945e-06
-0.00364551
1.9776e-06
-0.00420631
2.62671e-06
-0.00476682
3.33782e-06
-0.00532734
4.08341e-06
-0.00588772
4.85361e-06
-0.00644791
5.6151e-06
-0.00700809
6.35367e-06
-0.00756791
7.02902e-06
-0.00812785
7.61829e-06
-0.00868719
8.07846e-06
-0.00924705
8.37157e-06
-0.0098056
8.49532e-06
-0.0103657
8.35209e-06
-0.0109231
7.98045e-06
-0.0114837
7.19403e-06
-0.0120394
6.19652e-06
-0.0126013
4.55945e-06
-0.0131544
2.73588e-06
-0.000280501
-0.000841524
5.56071e-08
-0.00140251
2.21617e-07
-0.00196356
4.94037e-07
-0.00252444
8.6809e-07
-0.00308546
1.33365e-06
-0.00364616
1.88459e-06
-0.00420702
2.50313e-06
-0.00476756
3.18082e-06
-0.00532811
3.89108e-06
-0.00588848
4.6247e-06
-0.00644865
5.35037e-06
-0.00700877
6.054e-06
-0.00756849
6.69784e-06
-0.00812832
7.25887e-06
-0.00868749
7.69939e-06
-0.00924718
7.9778e-06
-0.00980545
8.10019e-06
-0.0103653
7.96146e-06
-0.0109223
7.60792e-06
-0.0114827
6.84045e-06
-0.0120378
5.89558e-06
-0.0125995
4.31613e-06
-0.0131517
2.65453e-06
-0.000280556
-0.00084169
5.26882e-08
-0.00140278
2.09906e-07
-0.00196394
4.67791e-07
-0.00252491
8.21775e-07
-0.00308601
1.26228e-06
-0.00364678
1.78381e-06
-0.0042077
2.36932e-06
-0.00476828
3.01096e-06
-0.00532884
3.68315e-06
-0.0058892
4.37737e-06
-0.00644935
5.06431e-06
-0.00700941
5.72998e-06
-0.00756905
6.33925e-06
-0.00812876
6.86914e-06
-0.00868777
7.28851e-06
-0.0092473
7.5516e-06
-0.0098053
7.67261e-06
-0.010365
7.53909e-06
-0.0109216
7.21419e-06
-0.0114817
6.47074e-06
-0.0120362
5.5694e-06
-0.0125979
4.03305e-06
-0.013149
2.45431e-06
-0.000280609
-0.000841846
4.95116e-08
-0.00140304
1.97162e-07
-0.00196429
4.39265e-07
-0.00252535
7.71495e-07
-0.00308653
1.18489e-06
-0.00364737
1.67462e-06
-0.00420834
2.22447e-06
-0.00476895
2.82726e-06
-0.00532954
3.45863e-06
-0.00588989
4.11057e-06
-0.00645001
4.75607e-06
-0.00701001
5.38084e-06
-0.00756958
5.95296e-06
-0.00812919
6.44864e-06
-0.00868804
6.84556e-06
-0.00924742
7.0911e-06
-0.00980517
7.20868e-06
-0.0103646
7.07691e-06
-0.0109208
6.79281e-06
-0.0114808
6.08687e-06
-0.0120346
5.25579e-06
-0.0125963
4.07772e-06
-0.0131465
2.29063e-06
-0.000280658
-0.000841993
4.60578e-08
-0.00140328
1.83311e-07
-0.00196463
4.08303e-07
-0.00252576
7.16986e-07
-0.00308702
1.10105e-06
-0.00364792
1.55644e-06
-0.00420894
2.06778e-06
-0.00476958
2.62871e-06
-0.00533019
3.21639e-06
-0.00589053
3.82308e-06
-0.00645063
4.42443e-06
-0.00701058
5.00538e-06
-0.00757007
5.53822e-06
-0.00812958
5.99681e-06
-0.00868829
6.37076e-06
-0.00924754
6.59623e-06
-0.00980505
6.7087e-06
-0.0103643
6.57179e-06
-0.0109201
6.32416e-06
-0.01148
5.66246e-06
-0.0120331
4.96723e-06
-0.0125948
3.62925e-06
-0.0131442
2.16169e-06
-0.000280704
-0.00084213
4.2318e-08
-0.00140351
1.68315e-07
-0.00196494
3.7482e-07
-0.00252615
6.58087e-07
-0.00308747
1.0105e-06
-0.00364843
1.42883e-06
-0.0042095
1.89863e-06
-0.00477017
2.41444e-06
-0.0053308
2.95539e-06
-0.00589113
3.51359e-06
-0.00645121
4.06808e-06
-0.00701112
4.60203e-06
-0.00757054
5.0938e-06
-0.00812995
5.51234e-06
-0.00868852
5.86334e-06
-0.00924766
6.06602e-06
-0.00980492
6.17797e-06
-0.0103641
6.03324e-06
-0.0109194
5.814e-06
-0.0114793
5.1755e-06
-0.0120318
4.59685e-06
-0.0125934
3.32445e-06
-0.0131421
1.98435e-06
-0.000280745
-0.000842256
3.82994e-08
-0.00140371
1.52197e-07
-0.00196522
3.38833e-07
-0.0025265
5.94786e-07
-0.00308789
9.13185e-07
-0.0036489
1.29168e-06
-0.00421002
1.7168e-06
-0.00477071
2.1841e-06
-0.00533135
2.67508e-06
-0.00589169
3.18122e-06
-0.00645175
3.68593e-06
-0.00701161
4.1693e-06
-0.00757096
4.61873e-06
-0.0081303
4.99376e-06
-0.00868873
5.32179e-06
-0.00924778
5.49687e-06
-0.00980478
5.61689e-06
-0.0103639
5.47037e-06
-0.0109188
5.29825e-06
-0.0114787
5.07205e-06
-0.0120305
4.0671e-06
-0.012592
3.01485e-06
-0.0131401
1.79452e-06
-0.000280783
-0.000842369
3.40244e-08
-0.0014039
1.35029e-07
-0.00196548
3.00467e-07
-0.00252682
5.27266e-07
-0.00308827
8.09273e-07
-0.00364932
1.14522e-06
-0.00421048
1.52261e-06
-0.0047712
1.93799e-06
-0.00533186
2.37567e-06
-0.00589219
2.82567e-06
-0.00645223
3.27765e-06
-0.00701206
3.70629e-06
-0.00757134
4.11306e-06
-0.00813062
4.4406e-06
-0.0086889
4.74737e-06
-0.0092479
4.88715e-06
-0.00980462
5.02155e-06
-0.0103637
4.86925e-06
-0.0109181
4.80939e-06
-0.0114782
4.34232e-06
-0.0120294
3.66375e-06
-0.0125908
2.7268e-06
-0.0131383
1.61413e-06
-0.000280817
-0.000842469
2.95046e-08
-0.00140406
1.16884e-07
-0.0019657
2.59875e-07
-0.0025271
4.55799e-07
-0.00308861
6.99164e-07
-0.0036497
9.90025e-07
-0.0042109
1.31696e-06
-0.00477164
1.67723e-06
-0.00533231
2.05826e-06
-0.00589264
2.44757e-06
-0.00645265
2.84421e-06
-0.00701247
3.21287e-06
-0.00757168
3.57897e-06
-0.00813092
3.85322e-06
-0.00868905
4.14673e-06
-0.00924803
4.2423e-06
-0.00980445
4.40377e-06
-0.0103637
4.6155e-06
-0.0109176
4.11721e-06
-0.0114775
3.74673e-06
-0.0120285
3.20362e-06
-0.0125897
2.39655e-06
-0.0131367
1.41761e-06
-0.000280846
-0.000842556
2.46994e-08
-0.00140421
9.77753e-08
-0.0019659
2.17211e-07
-0.00252735
3.80791e-07
-0.0030889
5.83606e-07
-0.00365003
8.27164e-07
-0.00421126
1.10118e-06