/*--------------------------------*- C++ -*----------------------------------*\
  =========                 |
  \\      /  F ield         | OpenFOAM: The Open Source CFD Toolbox
   \\    /   O peration     | Website:  https://openfoam.org
    \\  /    A nd           | Version:  10
     \\/     M anipulation  |
\*---------------------------------------------------------------------------*/
FoamFile
{
    format      ascii;
    class       volScalarField;
    location    "0.38";
    object      rho;
}
// * * * * * * * * * * * * * * * * * * * * * * * * * * * * * * * * * * * * * //

dimensions      [1 -3 0 0 0 0 0];

internalField   nonuniform List<scalar> 
4176
(
0.0308487
0.0308517
0.0308579
0.0308683
0.0308813
0.0308978
0.0309186
0.0309402
0.0309693
0.0309956
0.0310323
0.0310648
0.0311068
0.0311475
0.0311925
0.031244
0.0312869
0.0313548
0.0313932
0.031479
0.0315107
0.031616
0.0316363
0.0317504
0.0308567
0.0308596
0.0308648
0.0308748
0.0308857
0.0309016
0.0309192
0.03094
0.0309649
0.0309899
0.031022
0.0310523
0.0310899
0.031127
0.0311681
0.0312142
0.031254
0.0313143
0.0313499
0.0314267
0.0314539
0.0315541
0.0315749
0.0317036
0.030876
0.0308789
0.0308844
0.0308947
0.0309062
0.0309224
0.0309409
0.0309622
0.0309884
0.031014
0.0310477
0.0310787
0.0311182
0.0311562
0.0311995
0.0312469
0.031289
0.0313519
0.0313877
0.0314681
0.0314955
0.0315945
0.0316134
0.0317343
0.0309047
0.0309076
0.0309129
0.0309229
0.0309341
0.0309498
0.0309679
0.0309884
0.0310141
0.0310388
0.031072
0.0311016
0.0311407
0.031177
0.0312201
0.0312655
0.0313073
0.0313703
0.0314014
0.0314841
0.0315092
0.0316069
0.0316247
0.0317366
0.0309441
0.030947
0.0309523
0.0309624
0.0309734
0.0309894
0.0310072
0.031028
0.0310534
0.0310784
0.0311112
0.0311413
0.0311801
0.0312165
0.0312597
0.0313045
0.0313483
0.0314081
0.031443
0.0315235
0.0315503
0.0316476
0.0316668
0.0317803
0.0309936
0.0309965
0.0310017
0.0310117
0.0310225
0.0310383
0.0310557
0.0310764
0.0311013
0.0311261
0.0311583
0.0311881
0.0312263
0.0312623
0.031305
0.0313489
0.031393
0.0314499
0.0314881
0.0315647
0.0315923
0.0316885
0.0317086
0.0318235
0.0310535
0.0310564
0.0310615
0.0310715
0.0310821
0.0310979
0.0311151
0.0311356
0.0311603
0.0311849
0.0312168
0.0312463
0.0312842
0.0313198
0.0313623
0.0314054
0.0314498
0.031505
0.0315442
0.0316188
0.0316477
0.0317423
0.0317626
0.0318756
0.0311237
0.0311265
0.0311315
0.0311414
0.0311519
0.0311675
0.0311845
0.0312048
0.0312291
0.0312534
0.0312849
0.031314
0.0313515
0.0313865
0.0314288
0.031471
0.0315155
0.0315688
0.0316091
0.0316811
0.0317111
0.031804
0.031825
0.0319366
0.0312042
0.031207
0.031212
0.0312218
0.0312321
0.0312476
0.0312643
0.0312844
0.0313084
0.0313324
0.0313635
0.0313922
0.0314294
0.0314637
0.0315057
0.031547
0.0315915
0.0316431
0.0316843
0.0317539
0.0317849
0.0318758
0.0318972
0.0320071
0.031295
0.0312978
0.0313027
0.0313124
0.0313226
0.0313379
0.0313544
0.0313743
0.0313979
0.0314216
0.0314523
0.0314805
0.0315172
0.0315509
0.0315925
0.0316329
0.0316773
0.0317273
0.0317692
0.0318363
0.0318683
0.0319568
0.0319788
0.0320868
0.0313963
0.0313991
0.0314039
0.0314135
0.0314235
0.0314386
0.0314548
0.0314745
0.0314977
0.0315211
0.0315513
0.0315791
0.0316153
0.0316484
0.0316895
0.031729
0.0317732
0.0318216
0.031864
0.0319288
0.0319617
0.0320475
0.03207
0.032176
0.031508
0.0315108
0.0315155
0.031525
0.0315348
0.0315498
0.0315657
0.0315851
0.0316079
0.0316309
0.0316607
0.0316879
0.0317237
0.031756
0.0317967
0.0318352
0.031879
0.0319261
0.0319688
0.0320311
0.0320647
0.0321481
0.0321709
0.0322747
0.0316303
0.0316331
0.0316377
0.0316471
0.0316567
0.0316714
0.031687
0.0317061
0.0317285
0.0317511
0.0317805
0.0318071
0.0318423
0.031874
0.031914
0.0319516
0.0319951
0.0320406
0.0320836
0.0321435
0.0321778
0.0322584
0.0322814
0.0323831
0.0317632
0.0317659
0.0317704
0.0317797
0.0317891
0.0318036
0.0318189
0.0318376
0.0318597
0.0318818
0.0319106
0.0319367
0.0319714
0.0320022
0.0320417
0.0320782
0.0321212
0.0321653
0.0322084
0.0322659
0.0323006
0.0323789
0.0324018
0.032501
0.0319068
0.0319095
0.0319139
0.0319231
0.0319322
0.0319465
0.0319614
0.0319798
0.0320013
0.032023
0.0320513
0.0320768
0.0321108
0.0321409
0.0321797
0.0322152
0.0322577
0.0323002
0.0323433
0.0323984
0.0324337
0.0325092
0.0325321
0.0326289
0.0320612
0.0320639
0.0320682
0.0320772
0.0320861
0.0321001
0.0321146
0.0321326
0.0321537
0.0321748
0.0322025
0.0322273
0.0322607
0.03229
0.0323281
0.0323625
0.0324044
0.0324455
0.0324883
0.032541
0.0325767
0.0326492
0.0326727
0.0327666
0.0322265
0.0322292
0.0322333
0.0322422
0.0322508
0.0322645
0.0322786
0.0322962
0.0323168
0.0323373
0.0323644
0.0323885
0.0324212
0.0324496
0.0324869
0.0325203
0.0325615
0.0326011
0.0326435
0.0326939
0.0327299
0.0327995
0.0328233
0.0329143
0.0324028
0.0324054
0.0324094
0.0324181
0.0324265
0.0324399
0.0324536
0.0324707
0.0324907
0.0325107
0.0325371
0.0325604
0.0325923
0.0326198
0.0326563
0.0326885
0.032729
0.0327671
0.032809
0.032857
0.0328934
0.0329599
0.0329841
0.033072
0.0325901
0.0325927
0.0325966
0.0326051
0.0326132
0.0326263
0.0326395
0.0326562
0.0326756
0.0326949
0.0327206
0.0327432
0.0327742
0.0328007
0.0328364
0.0328674
0.0329071
0.0329436
0.032985
0.0330306
0.0330671
0.0331306
0.0331551
0.0332399
0.0327887
0.0327913
0.032795
0.0328033
0.032811
0.0328238
0.0328366
0.0328527
0.0328715
0.0328902
0.0329151
0.0329368
0.032967
0.0329924
0.0330272
0.0330569
0.0330957
0.0331306
0.0331714
0.0332146
0.0332512
0.0333117
0.0333365
0.033418
0.0329986
0.0330011
0.0330047
0.0330128
0.0330202
0.0330326
0.0330448
0.0330605
0.0330786
0.0330965
0.0331206
0.0331415
0.0331707
0.0331951
0.0332288
0.0332573
0.033295
0.0333283
0.0333683
0.0334093
0.0334459
0.0335031
0.0335282
0.0336064
0.0332199
0.0332223
0.0332258
0.0332336
0.0332407
0.0332527
0.0332644
0.0332794
0.0332968
0.0333141
0.0333373
0.0333573
0.0333856
0.0334088
0.0334415
0.0334685
0.0335053
0.0335369
0.0335759
0.0336147
0.0336511
0.033705
0.0337305
0.0338052
0.0334527
0.0334551
0.0334583
0.0334659
0.0334726
0.0334842
0.0334953
0.0335098
0.0335265
0.0335429
0.0335653
0.0335843
0.0336116
0.0336336
0.0336653
0.0336909
0.0337265
0.0337564
0.0337944
0.0338309
0.0338671
0.0339177
0.0339432
0.0340144
0.0336971
0.0336995
0.0337025
0.0337099
0.0337161
0.0337273
0.0337378
0.0337516
0.0337676
0.0337832
0.0338047
0.0338226
0.0338489
0.0338697
0.0339002
0.0339244
0.0339589
0.0339869
0.0340239
0.0340581
0.0340939
0.0341411
0.0341666
0.0342343
0.0339532
0.0339555
0.0339583
0.0339654
0.0339713
0.033982
0.0339919
0.0340051
0.0340202
0.034035
0.0340555
0.0340724
0.0340976
0.0341172
0.0341465
0.0341692
0.0342025
0.0342287
0.0342646
0.0342964
0.0343317
0.0343756
0.0344009
0.0344648
0.034221
0.0342233
0.0342259
0.0342328
0.0342382
0.0342484
0.0342577
0.0342703
0.0342845
0.0342984
0.0343179
0.0343338
0.0343578
0.0343761
0.0344042
0.0344254
0.0344574
0.0344818
0.0345165
0.034546
0.0345807
0.0346211
0.0346462
0.0347064
0.0345007
0.0345029
0.0345054
0.034512
0.034517
0.0345267
0.0345354
0.0345472
0.0345607
0.0345736
0.0345921
0.0346068
0.0346297
0.0346467
0.0346735
0.0346931
0.0347238
0.0347463
0.0347798
0.0348069
0.0348407
0.0348778
0.0349029
0.0349593
0.0347923
0.0347945
0.0347967
0.0348031
0.0348076
0.0348169
0.0348249
0.0348361
0.0348487
0.0348607
0.0348782
0.0348917
0.0349134
0.034929
0.0349545
0.0349724
0.0350018
0.0350224
0.0350546
0.0350793
0.0351122
0.0351457
0.035171
0.035223
0.035096
0.0350981
0.0351001
0.0351062
0.0351103
0.0351192
0.0351265
0.0351369
0.0351486
0.0351598
0.0351762
0.0351886
0.035209
0.0352231
0.0352473
0.0352635
0.0352916
0.0353102
0.035341
0.0353634
0.0353952
0.0354252
0.0354504
0.0354983
0.0354118
0.0354138
0.0354156
0.0354215
0.0354251
0.0354335
0.0354401
0.0354499
0.0354607
0.0354709
0.0354862
0.0354974
0.0355166
0.0355293
0.0355521
0.0355666
0.0355932
0.0356098
0.0356392
0.0356592
0.0356901
0.0357164
0.0357415
0.035785
0.0357398
0.0357418
0.0357434
0.0357489
0.0357521
0.03576
0.035766
0.035775
0.0357849
0.0357942
0.0358084
0.0358185
0.0358364
0.0358477
0.0358691
0.0358818
0.0359069
0.0359214
0.0359494
0.0359669
0.0359966
0.0360196
0.0360443
0.0360835
0.03608
0.036082
0.0360834
0.0360887
0.0360914
0.0360988
0.0361041
0.0361124
0.0361214
0.0361297
0.0361429
0.0361517
0.0361685
0.0361782
0.0361983
0.0362092
0.0362328
0.0362452
0.0362718
0.0362866
0.0363151
0.0363348
0.0363594
0.0363938
0.0364327
0.0364346
0.0364358
0.0364408
0.0364431
0.03645
0.0364546
0.0364622
0.0364703
0.0364776
0.0364897
0.0364974
0.0365129
0.0365212
0.0365398
0.036549
0.0365712
0.0365813
0.0366064
0.0366187
0.0366457
0.0366623
0.0366865
0.0367163
0.0367979
0.0367997
0.0368007
0.0368054
0.0368073
0.0368136
0.0368175
0.0368244
0.0368316
0.036838
0.036849
0.0368555
0.0368697
0.0368766
0.0368939
0.0369013
0.036922
0.0369299
0.0369536
0.0369632
0.0369888
0.037002
0.0370258
0.037051
0.0371756
0.0371774
0.0371781
0.0371826
0.037184
0.0371899
0.0371931
0.0371993
0.0372056
0.037211
0.037221
0.0372262
0.0372391
0.0372445
0.0372604
0.0372661
0.0372853
0.0372912
0.0373133
0.0373203
0.0373444
0.0373544
0.0373776
0.037398
0.0375659
0.0375677
0.0375682
0.0375724
0.0375734
0.0375788
0.0375813
0.0375868
0.0375923
0.0375967
0.0376056
0.0376096
0.0376213
0.0376252
0.0376397
0.0376436
0.0376613
0.0376651
0.0376858
0.0376902
0.0377128
0.0377196
0.0377418
0.0377576
0.037969
0.0379707
0.0379711
0.037975
0.0379756
0.0379805
0.0379824
0.0379872
0.0379917
0.0379953
0.038003
0.0380058
0.0380163
0.0380186
0.0380318
0.0380339
0.0380502
0.0380517
0.038071
0.0380729
0.038094
0.0380978
0.0381188
0.0381298
0.038385
0.0383866
0.0383868
0.0383905
0.0383906
0.0383951
0.0383963
0.0384004
0.0384041
0.0384067
0.0384134
0.038415
0.0384242
0.0384251
0.0384368
0.0384371
0.0384519
0.0384512
0.0384691
0.0384684
0.0384882
0.0384887
0.0385088
0.0385149
0.0388139
0.0388155
0.0388155
0.038819
0.0388186
0.0388227
0.0388233
0.0388267
0.0388295
0.0388312
0.0388369
0.0388372
0.0388452
0.0388446
0.0388549
0.0388534
0.0388667
0.0388638
0.0388801
0.0388768
0.0388951
0.0388927
0.0389118
0.0389131
0.0392559
0.0392575
0.0392573
0.0392605
0.0392598
0.0392634
0.0392633
0.0392661
0.039268
0.0392688
0.0392734
0.0392726
0.0392794
0.0392773
0.0392863
0.0392829
0.0392947
0.0392896
0.0393044
0.0392983
0.0393153
0.0393095
0.0393276
0.0393248
0.0397112
0.0397128
0.0397123
0.0397153
0.0397141
0.0397173
0.0397166
0.0397187
0.0397198
0.0397197
0.0397232
0.0397213
0.0397268
0.0397233
0.0397309
0.0397257
0.039736
0.0397287
0.039742
0.0397331
0.0397486
0.0397396
0.0397564
0.0397499
0.0401798
0.0401814
0.0401808
0.0401835
0.0401819
0.0401846
0.0401832
0.0401846
0.0401849
0.0401839
0.0401864
0.0401832
0.0401876
0.0401826
0.0401889
0.0401818
0.0401908
0.0401812
0.0401931
0.0401813
0.0401957
0.0401831
0.0401987
0.0401879
0.040662
0.0406635
0.0406626
0.0406651
0.0406631
0.0406653
0.0406633
0.040664
0.0406634
0.0406615
0.0406629
0.0406586
0.0406618
0.0406553
0.0406603
0.0406514
0.0406591
0.0406471
0.0406579
0.0406431
0.0406563
0.0406402
0.0406548
0.0406393
0.0411577
0.0411592
0.0411581
0.0411604
0.0411578
0.0411597
0.0411569
0.041157
0.0411555
0.0411527
0.0411531
0.0411476
0.0411495
0.0411416
0.0411452
0.0411344
0.0411408
0.0411265
0.0411361
0.0411184
0.0411307
0.0411108
0.0411247
0.0411046
0.041667
0.0416685
0.0416672
0.0416693
0.0416663
0.0416677
0.0416642
0.0416636
0.0416613
0.0416575
0.0416568
0.0416502
0.0416509
0.0416414
0.0416437
0.0416311
0.0416362
0.0416196
0.041628
0.0416075
0.0416186
0.0415952
0.0416085
0.0415838
0.0421902
0.0421916
0.0421901
0.0421919
0.0421885
0.0421894
0.0421853
0.042184
0.0421808
0.042176
0.0421743
0.0421664
0.0421659
0.042155
0.042156
0.0421415
0.0421452
0.0421262
0.0421334
0.0421101
0.0421203
0.042093
0.0421061
0.0420765
0.0427271
0.0427285
0.0427269
0.0427284
0.0427245
0.042725
0.0427201
0.0427182
0.042714
0.0427084
0.0427056
0.0426965
0.0426948
0.0426823
0.042682
0.0426656
0.042668
0.0426467
0.0426527
0.0426264
0.0426357
0.0426046
0.0426179
0.0425828
0.0432779
0.0432793
0.0432774
0.0432787
0.0432743
0.0432743
0.0432688
0.0432662
0.0432612
0.0432546
0.0432507
0.0432404
0.0432375
0.0432235
0.0432218
0.0432036
0.0432048
0.043181
0.0431858
0.0431564
0.0431651
0.0431296
0.0431434
0.0431032
0.0438426
0.0438439
0.0438418
0.0438429
0.043838
0.0438376
0.0438314
0.0438281
0.0438221
0.0438146
0.0438097
0.0437981
0.043794
0.0437785
0.0437756
0.0437554
0.0437554
0.0437292
0.0437329
0.0437001
0.0437085
0.0436686
0.0436829
0.0436377
0.044421
0.0444223
0.04442
0.0444208
0.0444155
0.0444147
0.0444078
0.0444038
0.044397
0.0443885
0.0443825
0.0443698
0.0443645
0.0443474
0.0443433
0.0443211
0.04432
0.0442912
0.0442942
0.0442578
0.0442665
0.0442216
0.0442359
0.044186
0.0450132
0.0450145
0.045012
0.0450126
0.0450068
0.0450055
0.0449979
0.0449933
0.0449856
0.0449762
0.0449693
0.0449552
0.0449489
0.0449302
0.0449249
0.0449007
0.0448987
0.044867
0.0448696
0.0448293
0.0448386
0.0447886
0.0448032
0.0447486
0.0456191
0.0456203
0.0456176
0.045618
0.0456117
0.0456101
0.0456019
0.0455966
0.0455881
0.0455777
0.0455698
0.0455545
0.0455471
0.0455268
0.0455205
0.0454941
0.0454914
0.0454566
0.0454593
0.0454147
0.0454243
0.0453705
0.0453844
0.0453254
0.0462385
0.0462397
0.0462368
0.046237
0.0462303
0.0462283
0.0462194
0.0462135
0.0462042
0.0461929
0.0461841
0.0461675
0.0461593
0.0461371
0.0461302
0.0461013
0.0460983
0.04606
0.0460634
0.0460145
0.0460236
0.0459664
0.0459797
0.0459165
0.0468714
0.0468726
0.0468695
0.0468695
0.0468623
0.04686
0.0468504
0.0468439
0.0468339
0.0468216
0.0468121
0.0467941
0.0467852
0.046761
0.0467539
0.0467221
0.0467193
0.0466772
0.0466809
0.0466286
0.0466372
0.0465766
0.0465892
0.0465219
0.0475175
0.0475186
0.0475154
0.0475152
0.0475076
0.047505
0.0474948
0.0474877
0.047477
0.0474638
0.0474537
0.0474341
0.0474251
0.0473984
0.0473917
0.0473564
0.0473544
0.0473091
0.0473116
0.0472573
0.0472644
0.0472011
0.0472128
0.0471416
0.0481766
0.0481777
0.0481743
0.048174
0.048166
0.0481631
0.0481523
0.0481447
0.0481335
0.0481191
0.0481089
0.0480873
0.0480787
0.0480491
0.0480433
0.0480047
0.0480022
0.0479549
0.0479566
0.0478999
0.0479058
0.0478396
0.0478506
0.0477757
0.0488484
0.0488497
0.048846
0.0488458
0.0488373
0.0488342
0.0488228
0.0488146
0.0488032
0.0487873
0.0487776
0.0487535
0.0487456
0.0487136
0.0487073
0.0486674
0.0486637
0.0486149
0.0486148
0.0485564
0.0485612
0.0484923
0.0485025
0.048424
0.0495329
0.0495344
0.0495302
0.0495302
0.0495212
0.0495181
0.0495061
0.0494972
0.049486
0.0494686
0.0494588
0.0494336
0.0494247
0.0493922
0.0493845
0.0493436
0.0493384
0.0492883
0.049287
0.0492268
0.0492304
0.049159
0.0491685
0.0490864
0.0502299
0.0502313
0.050227
0.0502271
0.0502173
0.0502146
0.0502019
0.0501929
0.0501808
0.0501631
0.0501526
0.0501267
0.0501169
0.0500835
0.0500749
0.0500329
0.0500268
0.0499752
0.0499728
0.0499108
0.0499133
0.0498396
0.0498483
0.049763
0.050939
0.0509405
0.0509361
0.050936
0.0509262
0.0509231
0.0509097
0.0509014
0.0508879
0.0508703
0.0508589
0.0508325
0.0508219
0.050788
0.0507782
0.0507354
0.0507282
0.0506754
0.0506718
0.0506083
0.0506098
0.0505338
0.0505419
0.0504535
0.0516601
0.0516616
0.0516572
0.051657
0.0516471
0.0516439
0.05163
0.0516219
0.0516069
0.0515903
0.0515774
0.0515509
0.0515396
0.0515049
0.0514943
0.0514508
0.0514425
0.0513887
0.0513841
0.0513191
0.0513196
0.0512416
0.0512489
0.0511577
0.0523931
0.0523946
0.0523902
0.05239
0.0523799
0.0523766
0.0523625
0.0523543
0.0523384
0.0523223
0.0523078
0.0522821
0.0522695
0.0522343
0.0522229
0.0521788
0.0521695
0.0521148
0.0521092
0.0520429
0.0520424
0.0519626
0.0519692
0.0518753
0.0531378
0.0531394
0.0531349
0.0531347
0.0531245
0.0531211
0.0531067
0.0530986
0.053082
0.0530663
0.0530504
0.0530254
0.0530111
0.0529762
0.0529639
0.0529192
0.052909
0.0528535
0.0528469
0.0527793
0.0527781
0.0526966
0.0527024
0.0526061
0.0538941
0.0538958
0.0538913
0.0538911
0.0538808
0.0538774
0.0538627
0.0538546
0.0538375
0.0538219
0.0538052
0.0537804
0.0537649
0.0537303
0.0537169
0.0536715
0.0536605
0.0536043
0.0535969
0.0535282
0.0535259
0.053443
0.0534482
0.0533497
0.0546622
0.0546639
0.0546594
0.0546592
0.0546487
0.0546454
0.0546304
0.0546222
0.0546046
0.0545893
0.0545716
0.0545471
0.0545305
0.0544959
0.0544817
0.0544355
0.0544239
0.0543668
0.0543588
0.0542889
0.054286
0.0542017
0.0542061
0.0541057
0.0554419
0.0554437
0.0554391
0.055439
0.0554283
0.055425
0.0554097
0.0554014
0.0553834
0.0553681
0.0553495
0.0553251
0.0553077
0.0552727
0.0552578
0.055211
0.0551988
0.055141
0.0551319
0.0550614
0.0550574
0.0549721
0.0549759
0.0548737
0.0562334
0.0562352
0.0562305
0.0562305
0.0562195
0.0562161
0.0562004
0.0561921
0.0561735
0.0561582
0.0561387
0.0561144
0.0560959
0.0560608
0.0560449
0.0559978
0.0559847
0.0559259
0.0559165
0.0558449
0.0558403
0.0557538
0.0557569
0.0556532
0.0570364
0.0570384
0.0570335
0.0570335
0.0570222
0.0570187
0.0570025
0.056994
0.0569748
0.0569593
0.0569387
0.0569145
0.0568949
0.0568595
0.0568429
0.056795
0.0567816
0.0567219
0.0567114
0.0566394
0.0566336
0.0565465
0.0565489
0.056444
0.0578509
0.057853
0.0578478
0.0578477
0.057836
0.0578323
0.0578156
0.0578067
0.0577869
0.0577711
0.0577493
0.0577252
0.0577042
0.0576689
0.0576508
0.0576028
0.0575887
0.057528
0.057517
0.0574441
0.0574377
0.0573498
0.0573515
0.0572456
0.0586763
0.0586784
0.058673
0.0586727
0.0586606
0.0586564
0.0586392
0.0586298
0.0586092
0.058593
0.0585701
0.0585461
0.0585233
0.0584884
0.0584687
0.0584206
0.0584056
0.0583444
0.0583325
0.0582591
0.0582518
0.0581636
0.0581645
0.0580579
0.0595114
0.0595135
0.059508
0.0595074
0.059495
0.0594903
0.0594726
0.0594626
0.0594412
0.0594244
0.0594006
0.0593765
0.0593519
0.0593178
0.0592959
0.0592486
0.0592318
0.0591705
0.0591582
0.059084
0.0590762
0.0589876
0.0589878
0.0588807
0.0603547
0.0603568
0.0603512
0.0603504
0.0603377
0.0603327
0.0603145
0.060304
0.0602821
0.0602647
0.0602401
0.060216
0.0601898
0.0601564
0.0601323
0.0600861
0.0600672
0.0600067
0.0599935
0.0599191
0.0599106
0.0598217
0.0598214
0.059714
0.0612042
0.0612063
0.0612008
0.0611999
0.0611872
0.061182
0.0611637
0.061153
0.0611308
0.0611132
0.0610881
0.0610639
0.0610365
0.061004
0.0609776
0.0609333
0.060912
0.0608529
0.0608383
0.0607642
0.0607551
0.0606664
0.0606655
0.0605581
0.0620576
0.0620598
0.0620544
0.0620537
0.0620412
0.0620364
0.0620183
0.0620079
0.061986
0.0619686
0.0619436
0.0619198
0.0618919
0.0618602
0.0618326
0.0617897
0.0617667
0.0617088
0.0616926
0.0616197
0.0616099
0.0615214
0.0615205
0.0614132
0.062913
0.0629153
0.0629104
0.0629101
0.0628983
0.0628942
0.0628769
0.0628674
0.0628463
0.0628299
0.0628057
0.0627829
0.0627555
0.062725
0.0626967
0.0626557
0.0626307
0.0625754
0.0625572
0.0624858
0.0624756
0.0623876
0.0623864
0.0622796
0.0637695
0.063772
0.0637676
0.0637682
0.0637573
0.0637544
0.0637384
0.0637304
0.0637109
0.0636962
0.0636735
0.0636524
0.0636262
0.0635977
0.06357
0.0635311
0.0635055
0.0634526
0.063433
0.063363
0.0633526
0.0632647
0.0632637
0.0631573
0.0646281
0.0646309
0.0646271
0.0646286
0.0646188
0.0646175
0.0646031
0.064597
0.0645795
0.064567
0.0645465
0.0645278
0.0645037
0.0644776
0.0644516
0.0644154
0.0643906
0.0643403
0.0643208
0.0642521
0.0642416
0.0641537
0.0641528
0.0640464
0.0654919
0.065495
0.0654918
0.0654943
0.0654855
0.0654857
0.0654728
0.0654687
0.0654532
0.065443
0.0654249
0.065409
0.0653873
0.0653641
0.0653408
0.0653074
0.0652848
0.0652377
0.065219
0.0651533
0.0651435
0.0650555
0.0650549
0.0649475
0.0663666
0.0663703
0.0663671
0.0663706
0.0663621
0.0663638
0.0663516
0.0663493
0.066335
0.066327
0.0663106
0.0662972
0.0662777
0.0662572
0.0662371
0.0662056
0.0661875
0.0661413
0.066128
0.0660628
0.0660574
0.0659704
0.0659708
0.065863
0.06726
0.0672645
0.0672604
0.0672653
0.0672555
0.067259
0.0672452
0.0672453
0.0672296
0.067224
0.0672072
0.0671958
0.0671772
0.0671582
0.0671423
0.0671082
0.0670997
0.067048
0.0670451
0.0669773
0.066979
0.0668943
0.0668985
0.0667962
0.0681814
0.0681854
0.0681821
0.0681851
0.0681764
0.0681772
0.0681647
0.0681616
0.068147
0.0681387
0.0681223
0.0681098
0.0680904
0.0680733
0.0680546
0.0680235
0.0680146
0.0679649
0.0679635
0.0678979
0.0679029
0.0678202
0.067829
0.0677346
0.0691391
0.0691428
0.0691389
0.069141
0.0691307
0.0691298
0.0691151
0.0691097
0.0690925
0.0690815
0.0690624
0.0690471
0.069025
0.0690061
0.0689826
0.0689549
0.0689382
0.0688924
0.0688887
0.0688228
0.0688297
0.0687453
0.0687575
0.0686634
0.0701396
0.070143
0.0701382
0.070139
0.0701267
0.0701234
0.0701056
0.0700969
0.0700757
0.0700605
0.0700367
0.0700165
0.0699894
0.0699656
0.0699362
0.0699052
0.0698818
0.0698351
0.069826
0.0697566
0.069764
0.0696744
0.0696889
0.0695907
0.0711861
0.0711898
0.0711835
0.0711834
0.0711685
0.071163
0.0711415
0.0711293
0.0711031
0.0710832
0.0710531
0.0710271
0.0709927
0.0709621
0.0709245
0.0708865
0.0708547
0.0708012
0.0707847
0.0707072
0.0707119
0.0706136
0.0706289
0.0705223
0.0722789
0.0722831
0.072275
0.0722745
0.072257
0.0722498
0.0722243
0.0722097
0.0721774
0.0721548
0.0721163
0.0720866
0.0720423
0.072005
0.071958
0.0719102
0.0718702
0.0718009
0.0717785
0.0716865
0.071684
0.0715724
0.071585
0.0714647
0.0734146
0.0734181
0.0734107
0.0734078
0.0733902
0.0733799
0.0733536
0.0733342
0.0733011
0.0732714
0.0732317
0.073193
0.0731453
0.0730992
0.0730435
0.0729896
0.0729317
0.0728582
0.0728178
0.072713
0.0726959
0.0725657
0.0725702
0.0724278
0.0745865
0.0745897
0.0745823
0.0745788
0.0745604
0.0745491
0.0745214
0.0745005
0.0744652
0.0744332
0.0743905
0.0743484
0.0742966
0.0742455
0.0741841
0.0741234
0.0740543
0.0739799
0.0739119
0.0738093
0.0737658
0.0736179
0.0736058
0.0734303
0.0757865
0.0757897
0.0757824
0.0757788
0.0757602
0.0757487
0.0757205
0.0756991
0.0756632
0.0756303
0.0755865
0.0755431
0.0754897
0.0754365
0.0753726
0.0753088
0.0752357
0.0751574
0.0750788
0.074978
0.0749047
0.07476
0.074721
0.0745077
0.0770062
0.0770094
0.0770023
0.076999
0.0769806
0.0769696
0.0769417
0.0769208
0.0768852
0.0768527
0.0768095
0.0767664
0.0767136
0.0766607
0.0765972
0.0765339
0.0764609
0.0763827
0.0763038
0.0762045
0.0761253
0.0759887
0.0759321
0.075707
0.0782366
0.0782402
0.0782333
0.0782307
0.0782128
0.0782027
0.0781755
0.0781558
0.0781213
0.0780903
0.0780484
0.0780072
0.077956
0.0779054
0.0778441
0.0777832
0.077713
0.077638
0.0775637
0.0774658
0.0773983
0.0772603
0.0772204
0.0770225
0.0794701
0.079474
0.0794675
0.0794656
0.0794484
0.0794395
0.0794135
0.0793953
0.0793624
0.0793335
0.0792936
0.0792549
0.0792063
0.0791586
0.0791005
0.0790434
0.0789768
0.0789064
0.0788368
0.0787447
0.0786829
0.0785525
0.0785155
0.0783321
0.0806994
0.0807036
0.0806975
0.0806965
0.0806801
0.0806726
0.0806479
0.0806316
0.0806004
0.0805739
0.0805364
0.0805007
0.0804549
0.0804109
0.0803564
0.0803033
0.080241
0.080176
0.0801111
0.0800254
0.0799682
0.0798477
0.079813
0.0796433
0.0819184
0.0819232
0.0819173
0.0819173
0.0819017
0.0818958
0.0818722
0.0818582
0.0818288
0.0818051
0.0817698
0.0817376
0.0816946
0.0816547
0.0816036
0.0815553
0.0814973
0.081438
0.0813773
0.0812981
0.0812465
0.0811352
0.0811028
0.080947
0.0831224
0.0831275
0.0831214
0.0831232
0.0831076
0.083104
0.0830811
0.0830701
0.0830415
0.0830218
0.0829875
0.0829603
0.0829186
0.0828846
0.0828355
0.0827931
0.0827387
0.0826852
0.0826298
0.0825568
0.0825092
0.0824082
0.0823778
0.0822357
0.0843068
0.0843122
0.0843063
0.0843093
0.0842941
0.0842926
0.0842703
0.0842624
0.0842346
0.084219
0.0841855
0.0841636
0.0841227
0.0840952
0.0840471
0.0840124
0.0839596
0.0839128
0.0838614
0.0837962
0.083752
0.0836609
0.0836327
0.083504
0.0854681
0.0854736
0.0854686
0.0854715
0.0854586
0.0854569
0.0854378
0.0854298
0.0854063
0.0853908
0.0853623
0.0853412
0.0853056
0.0852801
0.0852372
0.0852058
0.0851578
0.0851171
0.085069
0.0850106
0.0849704
0.0848893
0.084863
0.0847474
0.0866036
0.0866093
0.0866049
0.0866082
0.0865965
0.0865957
0.0865786
0.0865718
0.0865511
0.0865369
0.0865124
0.0864925
0.086462
0.0864378
0.0864009
0.0863718
0.0863294
0.0862932
0.0862482
0.0861994
0.0861616
0.0860896
0.0860653
0.0859624
0.0877112
0.0877166
0.0877128
0.0877166
0.087706
0.0877062
0.0876907
0.0876854
0.0876669
0.0876546
0.0876331
0.0876155
0.0875888
0.0875672
0.0875346
0.0875089
0.0874709
0.0874394
0.0873988
0.0873575
0.0873221
0.0872589
0.0872368
0.0871461
0.0887884
0.088794
0.0887905
0.0887949
0.0887852
0.0887865
0.0887724
0.0887686
0.0887522
0.0887419
0.088723
0.0887077
0.0886844
0.0886656
0.088637
0.0886146
0.0885812
0.0885541
0.0885173
0.088483
0.0884489
0.0883959
0.0883753
0.0882965
0.0898342
0.0898397
0.0898368
0.0898415
0.0898328
0.0898349
0.0898223
0.08982
0.0898054
0.089797
0.0897806
0.0897676
0.0897473
0.0897313
0.0897064
0.0896874
0.0896579
0.0896351
0.089603
0.0895737
0.0895422
0.0894983
0.0894795
0.0894118
0.0908474
0.0908529
0.0908501
0.0908556
0.0908473
0.0908508
0.090839
0.0908384
0.0908254
0.0908189
0.0908047
0.0907941
0.0907766
0.0907633
0.0907418
0.0907259
0.0907004
0.0906813
0.0906531
0.0906291
0.0906009
0.090565
0.0905478
0.0904906
0.0918272
0.0918325
0.0918304
0.0918356
0.091829
0.0918323
0.0918227
0.0918225
0.0918118
0.0918066
0.0917948
0.0917861
0.0917714
0.0917605
0.0917422
0.0917293
0.0917073
0.091692
0.0916676
0.0916481
0.0916236
0.0915953
0.0915793
0.0915316
0.092773
0.0927784
0.092776
0.0927828
0.092775
0.0927813
0.0927707
0.0927734
0.092763
0.0927601
0.0927499
0.0927435
0.092731
0.0927227
0.0927073
0.0926973
0.0926787
0.0926667
0.0926459
0.0926307
0.0926098
0.0925878
0.0925736
0.0925344
0.0936845
0.0936896
0.0936884
0.0936938
0.0936891
0.0936931
0.0936865
0.0936878
0.0936807
0.0936781
0.0936704
0.0936655
0.0936555
0.0936493
0.0936367
0.0936293
0.0936138
0.0936052
0.0935879
0.0935767
0.093559
0.0935424
0.0935295
0.093499
0.0945618
0.0945671
0.0945648
0.0945729
0.0945655
0.0945741
0.0945644
0.0945703
0.0945618
0.0945624
0.0945553
0.0945527
0.0945445
0.0945406
0.0945303
0.0945256
0.0945128
0.0945073
0.0944929
0.0944853
0.0944712
0.0944591
0.094448
0.0944253
0.0954049
0.0954095
0.0954095
0.095414
0.0954125
0.0954153
0.0954129
0.0954141
0.0954111
0.0954101
0.0954063
0.0954044
0.0953985
0.0953964
0.0953886
0.095386
0.095376
0.095373
0.0953617
0.0953575
0.0953458
0.0953381
0.0953297
0.0953138
0.0962141
0.0962194
0.0962169
0.0962265
0.0962185
0.0962302
0.0962201
0.0962296
0.0962218
0.096226
0.0962212
0.0962221
0.0962175
0.0962173
0.0962115
0.0962111
0.0962034
0.0962033
0.0961943
0.0961932
0.0961845
0.0961806
0.096174
0.0961647
0.0969899
0.0969938
0.0969957
0.0969976
0.097001
0.0970003
0.0970039
0.0970027
0.0970049
0.097004
0.0970042
0.0970045
0.0970023
0.0970035
0.0969998
0.0970013
0.0969959
0.0969978
0.0969916
0.0969935
0.0969869
0.096987
0.0969828
0.0969786
0.0977326
0.097738
0.0977348
0.0977465
0.0977368
0.0977523
0.0977405
0.0977543
0.0977461
0.097754
0.0977506
0.0977547
0.0977528
0.0977559
0.0977538
0.0977572
0.0977538
0.0977581
0.0977538
0.0977582
0.0977542
0.0977576
0.0977552
0.097756
0.0984434
0.0984463
0.0984503
0.0984493
0.0984577
0.0984527
0.0984627
0.098458
0.0984658
0.0984641
0.0984681
0.0984699
0.0984709
0.0984748
0.0984745
0.0984794
0.0984778
0.098484
0.0984817
0.0984888
0.0984863
0.0984932
0.0984923
0.0984976
0.0991221
0.0991275
0.0991241
0.0991366
0.0991264
0.0991441
0.0991316
0.0991483
0.0991401
0.0991511
0.0991485
0.0991554
0.0991557
0.0991615
0.0991624
0.0991688
0.0991689
0.0991768
0.0991763
0.0991853
0.0991848
0.0991944
0.0991947
0.0992042
0.0997709
0.099773
0.0997782
0.099776
0.0997864
0.0997803
0.0997933
0.0997874
0.0997986
0.0997967
0.0998036
0.0998066
0.0998102
0.0998162
0.0998186
0.0998264
0.0998276
0.0998373
0.0998382
0.0998494
0.09985
0.0998624
0.0998638
0.0998767
0.100389
0.100394
0.100391
0.100402
0.100395
0.10041
0.100401
0.100417
0.100411
0.100423
0.100422
0.100431
0.100433
0.100441
0.100444
0.100453
0.100456
0.100466
0.100469
0.100481
0.100484
0.100498
0.1005
0.100517
0.100979
0.100981
0.100986
0.100985
0.100994
0.10099
0.101002
0.100999
0.101009
0.10101
0.101017
0.101022
0.101027
0.101035
0.10104
0.10105
0.101053
0.101065
0.101069
0.101083
0.101086
0.101103
0.101106
0.101125
0.10154
0.101545
0.101544
0.101552
0.101549
0.10156
0.101557
0.101568
0.101567
0.101577
0.101579
0.101588
0.101592
0.101601
0.101606
0.101617
0.101622
0.101635
0.101639
0.101655
0.101659
0.101678
0.101681
0.101703
0.102076
0.102078
0.102082
0.102082
0.102089
0.102089
0.102097
0.102099
0.102106
0.102111
0.102117
0.102124
0.10213
0.10214
0.102146
0.102157
0.102163
0.102177
0.102182
0.102199
0.102203
0.102224
0.102228
0.102251
0.102584
0.102588
0.102588
0.102594
0.102594
0.102602
0.102603
0.102611
0.102614
0.102622
0.102627
0.102636
0.102642
0.102652
0.102658
0.102671
0.102677
0.102692
0.102698
0.102716
0.102721
0.102743
0.102748
0.102772
0.103069
0.103071
0.103074
0.103075
0.103081
0.103083
0.10309
0.103094
0.1031
0.103107
0.103112
0.103122
0.103128
0.103139
0.103146
0.103159
0.103165
0.103181
0.103188
0.103206
0.103212
0.103235
0.10324
0.103267
0.103529
0.103532
0.103532
0.103538
0.103538
0.103546
0.103548
0.103555
0.10356
0.103568
0.103574
0.103583
0.10359
0.103601
0.103608
0.103622
0.103629
0.103646
0.103652
0.103672
0.103679
0.103702
0.103708
0.103736
0.103966
0.103968
0.103971
0.103973
0.103978
0.10398
0.103987
0.103992
0.103998
0.104005
0.104012
0.104021
0.104028
0.10404
0.104048
0.104062
0.104069
0.104086
0.104094
0.104114
0.104121
0.104146
0.104152
0.104181
0.104382
0.104384
0.104385
0.10439
0.104391
0.104398
0.104401
0.104408
0.104413
0.104421
0.104428
0.104438
0.104445
0.104457
0.104465
0.104479
0.104487
0.104505
0.104512
0.104533
0.104541
0.104566
0.104572
0.104603
0.104776
0.104778
0.10478
0.104783
0.104786
0.104791
0.104796
0.104802
0.104808
0.104816
0.104823
0.104832
0.10484
0.104852
0.104861
0.104875
0.104883
0.104901
0.104909
0.104931
0.104939
0.104964
0.104971
0.105002
0.10515
0.105152
0.105155
0.105157
0.105162
0.105165
0.105171
0.105176
0.105182
0.10519
0.105197
0.105207
0.105215
0.105227
0.105236
0.105251
0.105259
0.105277
0.105286
0.105308
0.105315
0.105342
0.105348
0.105381
0.105506
0.105508
0.105508
0.105514
0.105514
0.105522
0.105524
0.105533
0.105537
0.105546
0.105552
0.105563
0.105571
0.105583
0.105592
0.105607
0.105615
0.105634
0.105642
0.105665
0.105672
0.105699
0.105706
0.105738
0.105843
0.105844
0.105847
0.105848
0.105854
0.105856
0.105864
0.105867
0.105875
0.105882
0.10589
0.1059
0.105908
0.10592
0.105929
0.105944
0.105953
0.105972