/*--------------------------------*- C++ -*----------------------------------*\
  =========                 |
  \\      /  F ield         | OpenFOAM: The Open Source CFD Toolbox
   \\    /   O peration     | Website:  https://openfoam.org
    \\  /    A nd           | Version:  10
     \\/     M anipulation  |
\*---------------------------------------------------------------------------*/
FoamFile
{
    format      ascii;
    class       volScalarField;
    location    "0.38";
    object      T;
}
// * * * * * * * * * * * * * * * * * * * * * * * * * * * * * * * * * * * * * //

dimensions      [0 0 0 1 0 0 0];

internalField   nonuniform List<scalar> 
4176
(
180.347
180.351
180.373
180.382
180.426
180.445
180.507
180.537
180.614
180.66
180.75
180.809
180.913
180.985
181.101
181.191
181.308
181.43
181.535
181.702
181.778
182.01
182.024
182.326
180.356
180.36
180.382
180.392
180.437
180.456
180.519
180.552
180.628
180.677
180.767
180.829
180.935
181.01
181.128
181.22
181.34
181.465
181.572
181.743
181.819
182.061
182.079
182.411
180.384
180.389
180.41
180.42
180.463
180.482
180.543
180.575
180.649
180.698
180.785
180.846
180.95
181.022
181.139
181.228
181.347
181.468
181.572
181.739
181.811
182.049
182.066
182.409
180.436
180.44
180.461
180.471
180.514
180.534
180.594
180.627
180.701
180.749
180.837
180.897
181.002
181.073
181.19
181.279
181.399
181.523
181.622
181.794
181.863
182.097
182.112
182.44
180.511
180.515
180.536
180.546
180.588
180.607
180.667
180.699
180.772
180.82
180.907
180.966
181.07
181.14
181.257
181.344
181.465
181.586
181.683
181.857
181.925
182.155
182.171
182.488
180.61
180.614
180.635
180.645
180.687
180.706
180.765
180.797
180.869
180.917
181.002
181.062
181.164
181.234
181.35
181.435
181.558
181.674
181.776
181.945
182.015
182.243
182.261
182.579
180.733
180.737
180.758
180.767
180.809
180.828
180.886
180.918
180.989
181.036
181.121
181.18
181.281
181.35
181.465
181.548
181.672
181.782
181.889
182.051
182.124
182.348
182.369
182.685
180.88
180.884
180.904
180.914
180.955
180.974
181.031
181.062
181.133
181.18
181.263
181.321
181.421
181.489
181.603
181.685
181.808
181.915
182.024
182.181
182.256
182.477
182.498
182.81
181.05
181.055
181.075
181.084
181.125
181.143
181.2
181.231
181.3
181.347
181.428
181.486
181.584
181.651
181.765
181.845
181.967
182.07
182.181
182.333
182.409
182.626
182.649
182.956
181.245
181.249
181.269
181.278
181.318
181.336
181.393
181.423
181.491
181.537
181.618
181.674
181.771
181.837
181.949
182.027
182.149
182.248
182.36
182.507
182.585
182.797
182.821
183.123
181.463
181.467
181.487
181.496
181.536
181.553
181.609
181.638
181.706
181.751
181.83
181.886
181.981
182.046
182.156
182.233
182.353
182.449
182.562
182.703
182.783
182.99
183.015
183.312
181.705
181.709
181.729
181.737
181.777
181.793
181.849
181.877
181.944
181.988
182.066
182.121
182.215
182.278
182.387
182.461
182.58
182.673
182.786
182.922
183.004
183.204
183.23
183.521
181.971
181.975
181.994
182.002
182.041
182.057
182.112
182.14
182.205
182.248
182.325
182.379
182.471
182.533
182.64
182.712
182.83
182.92
183.033
183.164
183.245
183.441
183.467
183.752
182.26
182.264
182.283
182.291
182.329
182.345
182.399
182.426
182.49
182.532
182.608
182.66
182.751
182.811
182.916
182.986
183.102
183.189
183.302
183.428
183.51
183.699
183.725
184.005
182.573
182.577
182.596
182.603
182.641
182.656
182.709
182.735
182.799
182.839
182.913
182.964
183.053
183.111
183.215
183.283
183.397
183.481
183.593
183.714
183.796
183.98
184.006
184.279
182.91
182.914
182.932
182.939
182.977
182.991
183.043
183.068
183.13
183.17
183.242
183.292
183.379
183.435
183.537
183.603
183.714
183.796
183.906
184.022
184.105
184.282
184.308
184.575
183.271
183.274
183.292
183.299
183.336
183.35
183.4
183.425
183.485
183.524
183.594
183.642
183.727
183.782
183.882
183.945
184.055
184.133
184.242
184.353
184.435
184.606
184.633
184.892
183.655
183.659
183.676
183.683
183.719
183.732
183.781
183.805
183.864
183.901
183.97
184.016
184.099
184.152
184.25
184.31
184.417
184.492
184.6
184.705
184.788
184.952
184.979
185.231
184.063
184.067
184.084
184.09
184.125
184.137
184.186
184.208
184.266
184.301
184.368
184.413
184.494
184.544
184.64
184.697
184.803
184.874
184.98
185.08
185.162
185.32
185.347
185.592
184.495
184.498
184.515
184.521
184.555
184.566
184.614
184.635
184.691
184.725
184.79
184.833
184.911
184.96
185.053
185.108
185.21
185.278
185.382
185.477
185.559
185.71
185.737
185.975
184.95
184.953
184.97
184.975
185.009
185.019
185.066
185.085
185.14
185.172
185.235
185.276
185.352
185.398
185.488
185.54
185.64
185.705
185.806
185.896
185.977
186.122
186.149
186.379
185.429
185.432
185.449
185.453
185.486
185.495
185.541
185.559
185.612
185.642
185.704
185.742
185.816
185.859
185.947
185.996
186.093
186.154
186.253
186.338
186.417
186.555
186.582
186.805
185.932
185.935
185.951
185.955
185.987
185.995
186.039
186.056
186.107
186.136
186.195
186.231
186.302
186.343
186.428
186.474
186.568
186.626
186.722
186.802
186.88
187.011
187.037
187.252
186.458
186.461
186.477
186.48
186.511
186.518
186.561
186.576
186.625
186.652
186.709
186.743
186.812
186.85
186.932
186.975
187.066
187.119
187.213
187.288
187.364
187.489
187.515
187.72
187.008
187.011
187.026
187.028
187.058
187.064
187.106
187.119
187.167
187.192
187.246
187.278
187.344
187.379
187.459
187.498
187.586
187.636
187.726
187.796
187.87
187.988
188.013
188.21
187.581
187.583
187.598
187.6
187.629
187.634
187.674
187.686
187.732
187.754
187.807
187.836
187.899
187.932
188.008
188.044
188.128
188.175
188.261
188.326
188.399
188.51
188.534
188.721
188.177
188.179
188.193
188.195
188.223
188.227
188.265
188.275
188.319
188.34
188.39
188.416
188.477
188.507
188.58
188.613
188.693
188.736
188.819
188.879
188.95
189.053
189.076
189.256
188.796
188.798
188.812
188.812
188.84
188.842
188.879
188.888
188.93
188.948
188.996
189.02
189.078
189.104
189.174
189.204
189.281
189.319
189.399
189.455
189.521
189.618
189.639
189.812
189.437
189.44
189.453
189.453
189.479
189.481
189.516
189.523
189.563
189.58
189.625
189.646
189.701
189.724
189.791
189.817
189.891
189.925
190.001
190.052
190.116
190.205
190.225
190.39
190.102
190.104
190.117
190.116
190.142
190.142
190.176
190.181
190.219
190.233
190.276
190.295
190.347
190.367
190.43
190.453
190.523
190.554
190.626
190.672
190.732
190.815
190.832
190.989
190.789
190.791
190.803
190.802
190.826
190.825
190.858
190.861
190.898
190.91
190.95
190.966
191.015
191.032
191.092
191.111
191.177
191.204
191.272
191.314
191.37
191.446
191.464
191.609
191.498
191.5
191.512
191.51
191.533
191.531
191.562
191.564
191.598
191.608
191.646
191.659
191.706
191.72
191.776
191.792
191.854
191.877
191.941
191.978
192.03
192.1
192.115
192.253
192.229
192.231
192.243
192.24
192.262
192.259
192.288
192.289
192.321
192.329
192.365
192.375
192.419
192.429
192.483
192.494
192.553
192.572
192.631
192.664
192.713
192.776
192.789
192.918
192.983
192.984
192.995
192.992
193.013
193.009
193.037
193.035
193.066
193.071
193.105
193.113
193.154
193.161
193.211
193.219
193.275
193.289
193.344
193.372
193.417
193.474
193.486
193.604
193.757
193.759
193.769
193.765
193.786
193.78
193.807
193.804
193.833
193.836
193.867
193.872
193.91
193.915
193.962
193.966
194.018
194.028
194.08
194.102
194.144
194.193
194.203
194.313
194.554
194.555
194.565
194.56
194.58
194.573
194.599
194.594
194.621
194.622
194.651
194.653
194.689
194.69
194.734
194.735
194.783
194.789
194.837
194.854
194.892
194.936
194.943
195.043
195.371
195.373
195.382
195.377
195.396
195.388
195.412
195.405
195.431
195.43
195.456
195.456
195.489
195.487
195.528
195.525
195.57
195.572
195.616
195.628
195.663
195.7
195.704
195.795
196.21
196.211
196.22
196.214
196.232
196.223
196.246
196.238
196.261
196.259
196.283
196.28
196.31
196.305
196.343
196.336
196.378
196.376
196.416
196.424
196.455
196.487
196.487
196.569
197.069
197.07
197.079
197.072
197.09
197.079
197.101
197.092
197.113
197.108
197.13
197.125
197.153
197.145
197.18
197.169
197.208
197.201
197.238
197.241
197.269
197.294
197.292
197.365
197.949
197.95
197.958
197.951
197.968
197.957
197.977
197.966
197.986
197.979
197.999
197.992
198.016
198.006
198.037
198.023
198.059
198.047
198.081
198.079
198.103
198.123
198.118
198.182
198.849
198.85
198.858
198.851
198.866
198.854
198.873
198.861
198.879
198.871
198.888
198.879
198.901
198.887
198.916
198.898
198.931
198.915
198.946
198.938
198.959
198.972
198.965
199.022
199.77
199.771
199.779
199.77
199.785
199.772
199.79
199.776
199.793
199.782
199.798
199.786
199.806
199.789
199.815
199.794
199.824
199.803
199.831
199.818
199.835
199.843
199.833
199.881
200.711
200.711
200.719
200.71
200.724
200.71
200.727
200.712
200.727
200.714
200.728
200.713
200.731
200.711
200.735
200.71
200.737
200.712
200.737
200.719
200.733
200.734
200.721
200.762
201.671
201.672
201.679
201.67
201.683
201.668
201.683
201.667
201.68
201.666
201.677
201.661
201.676
201.654
201.675
201.647
201.671
201.642
201.663
201.64
201.652
201.646
201.632
201.663
202.652
202.652
202.659
202.649
202.661
202.645
202.659
202.642
202.653
202.637
202.647
202.628
202.641
202.616
202.634
202.603
202.624
202.591
202.61
202.581
202.592
202.578
202.562
202.586
203.651
203.651
203.658
203.647
203.659
203.642
203.655
203.636
203.646
203.628
203.636
203.615
203.625
203.597
203.613
203.578
203.597
203.56
203.576
203.541
203.551
203.53
203.513
203.528
204.67
204.67
204.676
204.665
204.676
204.658
204.67
204.649
204.658
204.638
204.644
204.621
204.628
204.598
204.611
204.573
204.589
204.547
204.562
204.521
204.53
204.502
204.483
204.49
205.707
205.707
205.713
205.701
205.711
205.693
205.703
205.681
205.688
205.667
205.67
205.645
205.651
205.618
205.628
205.587
205.6
205.554
205.567
205.521
205.528
205.493
205.474
205.471
206.762
206.762
206.768
206.755
206.765
206.745
206.755
206.732
206.737
206.714
206.716
206.688
206.691
206.656
206.664
206.619
206.63
206.579
206.592
206.539
206.544
206.502
206.484
206.472
207.835
207.835
207.841
207.828
207.837
207.816
207.824
207.8
207.804
207.779
207.779
207.749
207.75
207.712
207.719
207.67
207.678
207.623
207.634
207.576
207.58
207.529
207.513
207.492
208.926
208.925
208.931
208.917
208.925
208.904
208.911
208.885
208.888
208.862
208.859
208.828
208.827
208.785
208.791
208.738
208.745
208.685
208.694
208.631
208.634
208.576
208.559
208.53
210.033
210.032
210.037
210.023
210.031
210.009
210.015
209.988
209.989
209.961
209.957
209.923
209.921
209.876
209.88
209.823
209.829
209.765
209.773
209.702
209.707
209.641
209.624
209.586
211.156
211.155
211.16
211.146
211.153
211.13
211.135
211.107
211.106
211.077
211.072
211.035
211.032
210.984
210.986
210.926
210.931
210.862
210.869
210.791
210.797
210.723
210.706
210.661
212.295
212.294
212.298
212.284
212.29
212.266
212.27
212.241
212.24
212.209
212.202
212.164
212.159
212.108
212.109
212.044
212.05
211.973
211.983
211.898
211.902
211.824
211.806
211.754
213.448
213.447
213.452
213.436
213.442
213.418
213.421
213.391
213.388
213.355
213.348
213.307
213.302
213.247
213.248
213.178
213.186
213.102
213.112
213.022
213.026
212.941
212.922
212.863
214.615
214.615
214.619
214.603
214.609
214.583
214.586
214.555
214.551
214.517
214.509
214.465
214.46
214.401
214.402
214.328
214.336
214.249
214.256
214.162
214.164
214.076
214.055
213.989
215.796
215.796
215.799
215.783
215.788
215.763
215.764
215.732
215.728
215.692
215.684
215.637
215.633
215.57
215.572
215.494
215.499
215.409
215.416
215.319
215.318
215.225
215.204
215.132
216.99
216.989
216.992
216.977
216.981
216.955
216.956
216.923
216.919
216.88
216.873
216.823
216.818
216.753
216.754
216.674
216.678
216.586
216.59
216.489
216.488
216.391
216.369
216.291
218.195
218.195
218.197
218.182
218.185
218.159
218.159
218.125
218.121
218.081
218.073
218.022
218.017
217.95
217.948
217.868
217.869
217.776
217.778
217.675
217.672
217.571
217.548
217.465
219.411
219.411
219.414
219.398
219.401
219.375
219.374
219.34
219.335
219.294
219.285
219.234
219.227
219.159
219.157
219.075
219.074
218.979
218.98
218.874
218.87
218.766
218.742
218.653
220.638
220.638
220.641
220.624
220.628
220.601
220.6
220.567
220.559
220.519
220.509
220.457
220.449
220.38
220.376
220.293
220.292
220.195
220.194
220.087
220.081
219.974
219.949
219.856
221.875
221.875
221.878
221.861
221.864
221.837
221.836
221.803
221.793
221.755
221.742
221.691
221.681
221.613
221.607
221.524
221.521
221.423
221.42
221.312
221.304
221.194
221.169
221.071
223.121
223.121
223.124
223.107
223.111
223.083
223.082
223.049
223.038
223.001
222.986
222.936
222.924
222.856
222.849
222.765
222.761
222.662
222.658
222.548
222.539
222.427
222.401
222.299
224.376
224.376
224.379
224.362
224.366
224.338
224.337
224.304
224.292
224.256
224.239
224.19
224.176
224.109
224.1
224.017
224.011
223.911
223.906
223.795
223.785
223.67
223.644
223.539
225.64
225.64
225.643
225.626
225.63
225.602
225.6
225.567
225.556
225.52
225.501
225.453
225.438
225.371
225.36
225.278
225.27
225.17
225.163
225.051
225.04
224.924
224.898
224.789
226.913
226.912
226.916
226.898
226.902
226.874
226.872
226.839
226.827
226.792
226.772
226.725
226.707
226.642
226.629
226.546
226.538
226.437
226.429
226.316
226.305
226.186
226.16
226.048
228.193
228.193
228.196
228.179
228.182
228.154
228.152
228.119
228.107
228.071
228.05
228.004
227.985
227.919
227.906
227.822
227.813
227.713
227.703
227.59
227.577
227.457
227.431
227.316
229.481
229.481
229.484
229.467
229.47
229.442
229.44
229.406
229.393
229.358
229.336
229.29
229.269
229.204
229.19
229.105
229.094
228.994
228.984
228.87
228.857
228.736
228.709
228.592
230.777
230.777
230.78
230.762
230.765
230.737
230.734
230.7
230.686
230.651
230.627
230.582
230.559
230.495
230.48
230.393
230.383
230.282
230.27
230.156
230.142
230.02
229.994
229.875
232.079
232.079
232.082
232.064
232.067
232.038
232.034
232
231.985
231.95
231.924
231.879
231.855
231.791
231.774
231.688
231.676
231.574
231.563
231.449
231.434
231.311
231.285
231.164
233.386
233.386
233.389
233.371
233.373
233.344
233.34
233.305
233.289
233.253
233.226
233.182
233.155
233.092
233.072
232.988
232.975
232.871
232.859
232.746
232.73
232.607
232.581
232.459
234.697
234.697
234.7
234.681
234.683
234.653
234.648
234.613
234.596
234.559
234.531
234.487
234.458
234.397
234.374
234.292
234.277
234.172
234.161
234.048
234.031
233.908
233.882
233.759
236.008
236.008
236.011
235.992
235.994
235.963
235.959
235.922
235.905
235.868
235.839
235.796
235.764
235.705
235.68
235.599
235.581
235.48
235.467
235.354
235.336
235.214
235.189
235.065
237.317
237.316
237.319
237.3
237.303
237.272
237.268
237.231
237.215
237.178
237.149
237.106
237.073
237.016
236.987
236.91
236.888
236.792
236.777
236.663
236.646
236.526
236.5
236.377
238.619
238.619
238.623
238.604
238.607
238.577
238.574
238.538
238.523
238.487
238.458
238.417
238.383
238.328
238.299
238.224
238.201
238.106
238.092
237.977
237.961
237.841
237.817
237.694
239.914
239.914
239.918
239.9
239.905
239.876
239.874
239.841
239.827
239.793
239.766
239.727
239.695
239.643
239.613
239.542
239.517
239.426
239.409
239.298
239.282
239.162
239.139
239.017
241.2
241.201
241.206
241.189
241.195
241.168
241.169
241.138
241.126
241.095
241.071
241.035
241.006
240.957
240.929
240.862
240.837
240.751
240.731
240.625
240.609
240.489
240.468
240.345
242.481
242.482
242.488
242.472
242.481
242.456
242.459
242.43
242.422
242.395
242.374
242.342
242.316
242.271
242.246
242.184
242.16
242.078
242.062
241.957
241.943
241.824
241.803
241.68
243.762
243.764
243.771
243.756
243.766
243.743
243.748
243.722
243.717
243.693
243.675
243.647
243.624
243.584
243.563
243.505
243.487
243.408
243.395
243.294
243.283
243.165
243.147
243.022
245.053
245.055
245.062
245.049
245.058
245.037
245.043
245.02
245.015
244.994
244.978
244.954
244.934
244.897
244.881
244.823
244.814
244.734
244.732
244.63
244.627
244.512
244.497
244.376
246.364
246.367
246.373
246.36
246.37
246.348
246.354
246.331
246.326
246.306
246.29
246.267
246.247
246.213
246.2
246.142
246.141
246.059
246.065
245.963
245.969
245.856
245.849
245.735
247.708
247.71
247.717
247.702
247.711
247.687
247.692
247.666
247.66
247.637
247.62
247.595
247.574
247.541
247.523
247.47
247.465
247.387
247.393
247.293
247.304
247.192
247.191
247.083
249.094
249.096
249.101
249.085
249.092
249.065
249.068
249.037
249.028
249
248.979
248.95
248.923
248.887
248.862
248.81
248.796
248.722
248.722
248.622
248.634
248.519
248.523
248.414
250.529
250.53
250.534
250.516
250.521
250.491
250.489
250.454
250.439
250.406
250.377
250.341
250.307
250.264
250.229
250.172
250.148
250.068
250.065
249.956
249.967
249.844
249.851
249.735
252.014
252.015
252.018
251.998
252
251.967
251.96
251.921
251.899
251.861
251.823
251.781
251.736
251.684
251.638
251.571
251.535
251.444
251.429
251.308
251.314
251.177
251.184
251.053
253.546
253.548
253.549
253.528
253.528
253.492
253.481
253.438
253.411
253.367
253.322
253.272
253.218
253.157
253.098
253.022
252.97
252.865
252.835
252.698
252.69
252.533
252.535
252.381
255.119
255.12
255.122
255.098
255.098
255.059
255.047
255
254.971
254.92
254.872
254.815
254.755
254.685
254.617
254.532
254.461
254.353
254.295
254.15
254.116
253.937
253.924
253.735
256.721
256.722
256.724
256.7
256.699
256.659
256.646
256.598
256.566
256.514
256.463
256.403
256.339
256.265
256.19
256.1
256.017
255.906
255.823
255.681
255.613
255.421
255.383
255.148
258.342
258.342
258.345
258.321
258.32
258.28
258.267
258.218
258.187
258.135
258.084
258.023
257.957
257.883
257.806
257.715
257.628
257.517
257.422
257.283
257.191
257.005
256.94
256.67
259.968
259.969
259.972
259.948
259.948
259.909
259.897
259.85
259.819
259.768
259.718
259.659
259.595
259.523
259.447
259.359
259.273
259.164
259.072
258.936
258.844
258.663
258.594
258.327
261.589
261.591
261.594
261.571
261.572
261.534
261.524
261.478
261.45
261.401
261.354
261.298
261.236
261.168
261.096
261.013
260.93
260.828
260.74
260.61
260.528
260.353
260.295
260.052
263.196
263.197
263.201
263.179
263.181
263.145
263.137
263.093
263.067
263.022
262.977
262.926
262.868
262.805
262.736
262.66
262.581
262.488
262.404
262.285
262.21
262.046
261.994
261.771
264.779
264.781
264.786
264.765
264.768
264.733
264.727
264.686
264.663
264.621
264.579
264.533
264.478
264.421
264.357
264.287
264.214
264.129
264.052
263.942
263.873
263.723
263.674
263.471
266.332
266.335
266.34
266.321
266.325
266.292
266.288
266.25
266.229
266.192
266.152
266.111
266.06
266.009
265.949
265.887
265.819
265.742
265.671
265.57
265.508
265.371
265.326
265.141
267.851
267.854
267.859
267.842
267.846
267.817
267.813
267.779
267.759
267.727
267.689
267.655
267.605
267.563
267.505
267.452
267.387
267.32
267.255
267.162
267.106
266.984
266.942
266.774
269.331
269.334
269.339
269.323
269.329
269.301
269.299
269.268
269.251
269.223
269.188
269.159
269.112
269.076
269.021
268.977
268.915
268.858
268.796
268.716
268.663
268.554
268.515
268.365
270.768
270.771
270.778
270.761
270.77
270.742
270.744
270.714
270.701
270.674
270.644
270.617
270.576
270.544
270.495
270.456
270.4
270.35
270.293
270.224
270.173
270.079
270.042
269.909
272.161
272.164
272.172
272.156
272.166
272.139
272.144
272.115
272.105
272.081
272.055
272.031
271.995
271.966
271.923
271.888
271.839
271.796
271.741
271.686
271.636
271.555
271.521
271.404
273.508
273.511
273.519
273.504
273.515
273.49
273.496
273.47
273.463
273.44
273.419
273.397
273.366
273.341
273.303
273.273
273.228
273.192
273.143
273.095
273.049
272.981
272.949
272.847
274.808
274.811
274.82
274.805
274.817
274.793
274.801
274.776
274.772
274.752
274.734
274.715
274.688
274.667
274.633
274.608
274.568
274.538
274.493
274.455
274.411
274.355
274.324
274.237
276.06
276.063
276.072
276.058
276.071
276.049
276.058
276.035
276.033
276.016
276
275.985
275.961
275.943
275.914
275.893
275.858
275.833
275.793
275.763
275.721
275.677
275.647
275.574
277.264
277.267
277.276
277.263
277.277
277.255
277.267
277.245
277.245
277.23
277.217
277.205
277.184
277.17
277.144
277.128
277.097
277.077
277.041
277.018
276.979
276.946
276.917
276.858
278.42
278.423
278.433
278.421
278.434
278.416
278.426
278.408
278.408
278.396
278.385
278.375
278.358
278.347
278.325
278.312
278.285
278.271
278.239
278.221
278.186
278.163
278.135
278.087
279.529
279.532
279.542
279.528
279.547
279.523
279.541
279.52
279.525
279.513
279.505
279.497
279.483
279.475
279.456
279.447
279.424
279.414
279.385
279.373
279.343
279.326
279.3
279.263
280.591
280.594
280.603
280.594
280.605
280.593
280.601
280.59
280.591
280.584
280.577
280.572
280.56
280.554
280.538
280.533
280.513
280.507
280.482
280.476
280.447
280.438
280.413
280.387
281.607
281.61
281.619
281.608
281.625
281.607
281.623
281.607
281.614
281.606
281.602
281.598
281.589
281.586
281.573
281.571
281.553
281.552
281.529
281.527
281.503
281.5
281.475
281.46
282.578
282.58
282.59
282.58
282.595
282.582
282.594
282.584
282.588
282.584
282.58
282.579
282.572
282.572
282.56
282.561
282.547
282.547
282.529
282.532
282.509
282.511
282.49
282.482
283.504
283.508
283.513
283.511
283.517
283.514
283.52
283.515
283.518
283.517
283.514
283.515
283.51
283.511
283.502
283.506
283.494
283.499
283.482
283.488
283.469
283.476
283.456
283.456
284.389
284.389
284.401
284.389
284.41
284.391
284.412
284.397
284.409
284.404
284.406
284.406
284.403
284.407
284.4
284.405
284.396
284.403
284.39
284.4
284.382
284.394
284.377
284.382
285.23
285.235
285.236
285.243
285.238
285.25
285.242
285.253
285.246
285.256
285.251
285.257
285.254
285.26
285.254
285.262
285.255
285.265
285.253
285.266
285.252
285.267
285.251
285.263
286.033
286.033
286.046
286.032
286.057
286.034
286.062
286.043
286.062
286.054
286.062
286.063
286.065
286.071
286.067
286.077
286.071
286.083
286.074
286.09
286.077
286.096
286.082
286.098
286.795
286.801
286.799
286.81
286.8
286.82
286.805
286.827
286.814
286.831
286.824
286.835
286.833
286.842
286.84
286.851
286.848
286.861
286.854
286.872
286.861
286.883
286.87
286.891
287.522
287.522
287.533
287.523
287.544
287.527
287.552
287.536
287.556
287.549
287.56
287.562
287.566
287.574
287.574
287.587
287.584
287.6
287.594
287.615
287.605
287.629
287.618
287.643
288.21
288.216
288.214
288.224
288.218
288.234
288.224
288.244
288.234
288.251
288.247
288.259
288.259
288.271
288.271
288.285
288.284
288.301
288.297
288.319
288.311
288.337
288.327
288.355
288.867
288.868
288.875
288.872
288.884
288.878
288.893
288.887
288.901
288.9
288.91
288.915
288.92
288.931
288.932
288.947
288.947
288.966
288.963
288.987
288.98
289.007
288.999
289.03
289.488
289.493
289.492
289.5
289.498
289.509
289.507
289.519
289.517
289.53
289.531
289.542
289.545
289.558
289.56
289.575
289.577
289.597
289.594
289.619
289.614
289.643
289.633
289.67
290.08
290.081
290.087
290.085
290.094
290.094
290.103
290.105
290.112
290.119
290.125
290.134
290.139
290.152
290.155
290.171
290.174
290.193
290.194
290.219
290.214
290.245
290.236
290.275
290.639
290.643
290.642
290.651
290.648
290.66
290.659
290.669
290.672
290.681
290.687
290.696
290.702
290.715
290.719
290.736
290.739
290.76
290.76
290.787
290.783
290.816
290.808
290.846
291.171
291.172
291.178
291.176
291.187
291.185
291.195
291.198
291.205
291.213
291.219
291.23
291.235
291.249
291.253
291.271
291.275
291.296
291.298
291.325
291.322
291.356
291.348
291.388
291.674
291.678
291.678
291.686
291.683
291.695
291.694
291.705
291.708
291.718
291.724
291.734
291.741
291.755
291.76
291.778
291.782
291.804
291.806
291.834
291.831
291.867
291.859
291.901
292.152
292.154
292.158
292.159
292.166
292.167
292.176
292.179
292.188
292.195
292.202
292.213
292.22
292.234
292.24
292.258
292.263
292.285
292.288
292.316
292.314
292.35
292.343
292.385
292.605
292.607
292.61
292.612
292.617
292.622
292.627
292.634
292.639
292.649
292.654
292.667
292.673
292.688
292.694
292.712
292.718
292.741
292.744
292.772
292.771
292.807
292.8
292.845
293.034
293.036
293.037
293.043
293.043
293.053
293.054
293.063
293.068
293.077
293.085
293.095
293.103
293.117
293.124
293.143
293.148
293.171
293.175
293.204
293.204
293.24
293.234
293.277
293.44
293.441
293.447
293.444
293.456
293.452
293.466
293.465
293.477
293.483
293.491
293.502
293.51
293.524
293.531
293.55
293.556
293.579
293.583
293.612
293.613
293.648
293.642
293.688
293.825
293.828
293.827
293.836
293.832
293.846
293.841
293.857
293.856
293.871
293.874
293.888
293.894
293.909
293.917
293.935
293.941
293.964
293.969
293.998
294
294.034
294.03
294.074
294.19
294.19
294.196
294.193
294.206
294.2
294.217
294.212
294.228
294.23
294.242
294.251
294.259
294.274
294.282
294.3
294.306
294.329
294.334
294.363
294.365
294.399
294.394
294.44
294.535
294.538
294.536
294.546
294.54
294.557
294.549
294.568
294.564
294.581
294.583
294.598
294.604
294.619
294.627
294.645
294.651
294.674
294.679
294.708
294.71
294.744
294.741
294.783
294.862
294.861
294.869
294.863
294.879
294.869
294.89
294.882
294.9
294.901
294.913
294.922
294.931
294.945
294.953
294.972
294.978
295.001
295.006
295.035
295.036
295.071
295.066
295.112
295.171
295.175
295.17
295.185
295.172
295.196
295.182
295.206
295.199
295.217
295.218
295.233
295.239
295.254
295.262
295.281
295.287
295.31
295.314
295.343
295.345
295.38
295.377
295.418
295.465
295.463
295.474
295.462
295.485
295.467
295.495
295.482
295.503
295.502
295.515
295.524
295.533
295.546
295.555
295.573
295.579
295.602
295.607
295.636
295.637
295.672
295.667
295.711
295.742
295.746
295.739
295.758
295.74
295.769
295.749
295.778
295.767
295.788
295.787
295.803
295.809
295.823
295.831
295.85
295.856
295.879
295.883
295.911
295.914
295.947
295.944
295.986
296.006
296.003
296.014
296.002
296.025
296.007
296.035
296.021
296.044
296.04
296.055
296.062
296.072
296.085
296.093
296.111
296.117
296.14
296.145
296.173
296.176
296.208
296.206
296.246
296.253
296.257
296.251
296.267
296.253
296.277
296.262
296.287
296.278
296.298
296.298
296.313
296.318
296.333
296.341
296.359
296.365
296.388
296.392
296.419
296.422
296.456
296.452
296.493
296.49
296.488
296.496
296.488
296.506
296.494
296.515
296.507
296.525
296.525
296.537
296.545
296.554
296.567
296.575
296.593
296.599
296.621
296.627
296.653
296.653
296.691
296.686
296.726
296.711
296.715
296.71
296.724
296.713
296.733
296.722
296.742
296.738
296.753
296.756
296.769
296.775
296.789
296.797
296.814
296.821
296.843
296.847
296.874
296.876
296.91
296.907
296.946
296.923
296.922
296.929
296.923
296.937
296.93
296.946
296.942
296.955
296.959
296.968
296.978
296.986
296.999
297.007
297.024
297.03
297.051
297.056
297.083
297.086
297.117
297.115
297.154
297.122
297.125
297.122
297.132
297.126
297.14
297.135
297.15
297.149
297.162
297.165
297.178
297.184
297.198
297.206
297.222
297.228
297.25
297.254
297.28
297.282
297.316
297.313
297.35
297.312
297.312
297.315
297.315
297.321
297.322
297.33
297.333
297.341
297.348
297.355
297.366
297.372
297.386
297.393
297.41
297.416
297.437
297.441
297.467
297.469
297.5
297.499
297.536
297.49
297.492
297.491
297.496
297.497
297.504
297.505
297.514
297.517
297.527
297.532
297.544
297.549
297.564
297.57
297.587
297.592
297.615
297.619
297.642
297.645
297.677
297.675
297.711
297.659
297.66
297.662
297.664
297.668
297.671
297.675
297.682
297.686
297.695
297.7
297.712
297.718
297.732
297.738
297.755
297.76
297.782
297.784
297.812
297.813
297.841
297.842
297.876
297.819
297.821
297.82
297.825
297.825
297.832
297.834
297.842
297.845
297.855
297.86
297.871
297.877
297.891
297.897
297.914
297.918
297.94
297.943
297.968
297.968
298.002
297.998
298.034
297.971
297.971
297.973
297.975
297.978
297.981
297.986
297.992
297.997
298.005
298.011
298.022
298.027
298.041
298.047
298.063
298.069
298.089
298.092
298.117
298.12
298.147
298.148
298.18
298.114
298.115
298.115
298.119
298.12
298.126
298.127
298.136
298.138
298.149
298.152
298.164
298.169
298.183
298.188
298.205
298.209
298.231
298.233
298.258
298.259
298.289
298.287
298.321
298.249
298.25
298.251
298.254
298.255
298.26
298.263
298.27
298.274
298.283
298.287
298.299
298.304
298.317
298.321
298.34
298.343
298.365
298.366
298.391
298.392
298.421
298.42
298.452
298.377
298.377
298.379
298.381
298.384
298.387
298.391
298.397
298.401
298.41
298.414
298.426
298.43
298.444
298.448
298.466
298.469
298.49
298.492
298.518
298.517
298.546
298.544
298.577
298.497
298.498
298.498
298.503
298.502
298.511
298.509
298.52
298.52
298.531
298.534
298.546
298.549
298.564
298.568
298.585
298.588
298.61
298.612
298.635
298.637
298.664
298.663
298.694
298.611
298.611
298.615
298.613
298.621
298.619
298.628
298.629
298.637
298.643
298.648
298.659
298.663
298.677
298.68
298.698
298.701
298.721
298.723
298.749
298.747
298.776
298.774
298.805
298.719
298.72
298.719
298.726
298.721
298.734
298.728
298.743
298.739
298.753
298.753
298.767
298.769
298.784
298.787
298.804
298.806
298.828
298.829
298.853
298.854
298.88
298.88
298.909
298.82
298.82
298.824
298.821
298.831
298.826
298.838
298.836
298.846
298.85
298.856
298.866
298.87
298.885
298.887
298.905
298.908
298.926
298.929
298.953
298.952
298.98
298.978
299.008
298.915
298.917
298.915
298.923
298.917
298.931
298.924
298.939
298.935
298.949
298.949
298.962
298.965
298.979
298.981
298.998
299.001
299.022
299.022
299.046
299.047
299.073
299.072
299.1
299.006
299.005
299.01
299.006
299.016
299.011
299.023
299.021
299.031
299.035
299.041
299.05
299.054
299.069
299.07
299.087
299.091
299.109
299.111
299.134
299.135
299.16
299.159
299.188
299.09
299.092
299.09
299.097
299.093
299.104
299.099
299.112
299.11
299.122
299.123
299.136
299.138
299.152
299.154
299.17
299.174
299.193
299.194
299.217
299.217
299.243
299.241
299.27
299.17
299.17
299.173
299.172
299.178
299.177
299.184
299.187
299.193
299.199
299.203
299.213
299.217
299.231
299.233
299.249
299.252
299.271
299.272
299.295
299.295
299.32
299.319
299.346
299.244
299.245
299.245
299.249
299.249
299.255
299.256
299.263
299.265
299.274
299.277
299.288
299.291
299.304
299.306
299.323
299.325
299.344
299.346
299.367
299.367
299.394
299.391
299.419
299.314
299.315
299.315
299.319
299.319
299.325
299.325
299.334
299.334
299.344
299.346
299.357
299.36
299.373
299.376
299.392
299.394
299.412
299.415
299.435
299.437
299.46
299.46
299.485
299.38