/*--------------------------------*- C++ -*----------------------------------*\
  =========                 |
  \\      /  F ield         | OpenFOAM: The Open Source CFD Toolbox
   \\    /   O peration     | Website:  https://openfoam.org
    \\  /    A nd           | Version:  10
     \\/     M anipulation  |
\*---------------------------------------------------------------------------*/
FoamFile
{
    format      ascii;
    class       volVectorField;
    location    "0.38";
    object      U;
}
// * * * * * * * * * * * * * * * * * * * * * * * * * * * * * * * * * * * * * //

dimensions      [0 1 -1 0 0 0 0];

internalField   nonuniform List<vector> 
4176
(
(497.488 -0.0141191 -6.12119e-09)
(497.474 0.0636301 1.85138e-09)
(497.45 0.00144223 -5.88044e-10)
(497.4 0.0903006 2.64443e-11)
(497.346 0.0510406 -1.12187e-10)
(497.271 0.0895449 -5.9449e-10)
(497.181 0.12592 -4.36053e-10)
(497.088 0.0606055 2.17562e-10)
(496.954 0.225282 6.22269e-10)
(496.848 0.00495135 6.51517e-10)
(496.672 0.344323 4.63247e-10)
(496.549 -0.0690022 3.86507e-10)
(496.339 0.469731 1.53432e-10)
(496.192 -0.139326 -2.35512e-10)
(495.956 0.56775 -4.05628e-10)
(495.773 -0.135466 -2.78499e-10)
(495.537 0.528382 -2.18346e-10)
(495.286 0.0237781 -1.6712e-11)
(495.073 0.334764 3.08156e-10)
(494.73 0.323225 1.73958e-10)
(494.576 -0.0169499 -1.40519e-10)
(494.097 0.771757 -1.64968e-10)
(494.068 -0.516499 1.11594e-10)
(493.443 1.4426 2.34951e-10)
(497.47 0.00495637 -6.12001e-09)
(497.455 0.114459 1.85154e-09)
(497.431 0.0764981 -5.88115e-10)
(497.379 0.203216 2.56927e-11)
(497.325 0.186296 -1.12356e-10)
(497.247 0.264272 -5.94171e-10)
(497.156 0.321824 -4.36686e-10)
(497.059 0.295703 2.17671e-10)
(496.924 0.482238 6.22958e-10)
(496.814 0.298077 6.51708e-10)
(496.636 0.662831 4.62824e-10)
(496.508 0.278809 3.86377e-10)
(496.293 0.850294 1.51787e-10)
(496.142 0.258544 -2.35413e-10)
(495.9 1.01244 -4.0542e-10)
(495.713 0.302217 -2.77983e-10)
(495.47 1.04216 -2.19513e-10)
(495.215 0.510827 -1.68299e-11)
(494.996 0.914304 3.07127e-10)
(494.646 0.855355 1.73557e-10)
(494.491 0.628349 -1.4047e-10)
(493.992 1.33105 -1.67308e-10)
(493.957 0.125184 1.12361e-10)
(493.269 1.99268 2.34571e-10)
(497.413 0.0233065 -6.12199e-09)
(497.399 0.16112 1.85076e-09)
(497.375 0.14768 -5.90078e-10)
(497.324 0.307563 2.66782e-11)
(497.273 0.313902 -1.12622e-10)
(497.195 0.426464 -5.94988e-10)
(497.108 0.505946 -4.33967e-10)
(497.011 0.51494 2.19522e-10)
(496.882 0.722957 6.25018e-10)
(496.772 0.572737 6.51989e-10)
(496.599 0.960603 4.61847e-10)
(496.473 0.6062 3.85492e-10)
(496.263 1.20607 1.53364e-10)
(496.116 0.63412 -2.35326e-10)
(495.877 1.42864 -4.05638e-10)
(495.697 0.71397 -2.76738e-10)
(495.455 1.52269 -2.22237e-10)
(495.209 0.966087 -1.8437e-11)
(494.993 1.45712 3.07773e-10)
(494.653 1.34402 1.73117e-10)
(494.506 1.2476 -1.41438e-10)
(494.016 1.88223 -1.64648e-10)
(493.982 0.838773 1.12683e-10)
(493.271 2.60877 2.35525e-10)
(497.309 0.0420429 -6.12e-09)
(497.294 0.208632 1.85454e-09)
(497.271 0.220183 -5.9101e-10)
(497.22 0.413889 2.9705e-11)
(497.169 0.443875 -1.13461e-10)
(497.091 0.591825 -5.99358e-10)
(497.004 0.693505 -4.33872e-10)
(496.907 0.738574 2.17058e-10)
(496.777 0.96817 6.18296e-10)
(496.668 0.853049 6.55492e-10)
(496.494 1.26393 4.6281e-10)
(496.37 0.940548 3.83748e-10)
(496.158 1.56874 1.5485e-10)
(496.013 1.0183 -2.36882e-10)
(495.77 1.85351 -4.12762e-10)
(495.593 1.13547 -2.77951e-10)
(495.346 2.01714 -2.19821e-10)
(495.097 1.42663 -1.87979e-11)
(494.891 2.00925 3.10039e-10)
(494.54 1.84091 1.72488e-10)
(494.399 1.85822 -1.44265e-10)
(493.915 2.42008 -1.65461e-10)
(493.887 1.52573 1.10945e-10)
(493.205 3.20544 2.26078e-10)
(497.157 0.0603764 -6.12185e-09)
(497.143 0.255162 1.86104e-09)
(497.12 0.29111 -5.8721e-10)
(497.069 0.518084 2.96597e-11)
(497.019 0.571016 -1.10274e-10)
(496.941 0.753997 -5.93983e-10)
(496.856 0.876976 -4.35814e-10)
(496.76 0.958122 2.19266e-10)
(496.631 1.20804 6.23929e-10)
(496.524 1.12853 6.53507e-10)
(496.351 1.56072 4.63058e-10)
(496.229 1.26934 3.86608e-10)
(496.018 1.92399 1.51374e-10)
(495.876 1.39604 -2.37897e-10)
(495.633 2.27122 -4.10843e-10)
(495.461 1.55017 -2.8051e-10)
(495.211 2.51247 -2.2093e-10)
(494.967 1.86981 -1.80157e-11)
(494.764 2.55429 3.04555e-10)
(494.411 2.33879 1.78249e-10)
(494.271 2.45274 -1.36564e-10)
(493.793 2.94593 -1.62507e-10)
(493.764 2.16831 1.14563e-10)
(493.102 3.76329 2.36904e-10)
(496.957 0.0787025 -6.13428e-09)
(496.942 0.301398 1.85852e-09)
(496.919 0.361886 -5.85764e-10)
(496.869 0.621696 2.49567e-11)
(496.819 0.697853 -1.21556e-10)
(496.742 0.915314 -5.99073e-10)
(496.658 1.06002 -4.33351e-10)
(496.562 1.17662 2.15495e-10)
(496.435 1.44734 6.24715e-10)
(496.327 1.40293 6.59016e-10)
(496.157 1.85662 4.63336e-10)
(496.035 1.5973 3.80841e-10)
(495.825 2.27764 1.48602e-10)
(495.685 1.77368 -2.35559e-10)
(495.442 2.68563 -4.13906e-10)
(495.274 1.96913 -2.77943e-10)
(495.018 3.00309 -2.10419e-10)
(494.787 2.3127 -1.51475e-11)
(494.57 3.10383 3.14364e-10)
(494.229 2.83557 1.80365e-10)
(494.084 3.049 -1.40836e-10)
(493.61 3.47395 -1.7324e-10)
(493.576 2.81519 1.1135e-10)
(492.913 4.32018 2.37196e-10)
(496.708 0.0968514 -6.13412e-09)
(496.694 0.346971 1.85588e-09)
(496.671 0.431871 -6.01887e-10)
(496.621 0.72387 2.50153e-11)
(496.572 0.823237 -1.07001e-10)
(496.495 1.07441 -5.98355e-10)
(496.412 1.24095 -4.44726e-10)
(496.316 1.39218 2.20262e-10)
(496.192 1.68388 6.3155e-10)
(496.084 1.67383 6.54395e-10)
(495.916 2.14908 4.60626e-10)
(495.795 1.92148 3.91801e-10)
(495.588 2.6269 1.64262e-10)
(495.448 2.14768 -2.33708e-10)
(495.208 3.09397 -4.09535e-10)
(495.043 2.38644 -2.74661e-10)
(494.785 3.48269 -2.19897e-10)
(494.565 2.75738 -2.07782e-11)
(494.337 3.65124 3.08844e-10)
(494.01 3.32046 1.7786e-10)
(493.859 3.64413 -1.42305e-10)
(493.392 4.00151 -1.73312e-10)
(493.353 3.4718 1.13735e-10)
(492.692 4.88242 2.42309e-10)
(496.411 0.114863 -6.15015e-09)
(496.396 0.392078 1.86622e-09)
(496.374 0.501235 -5.81646e-10)
(496.324 0.825026 2.8462e-11)
(496.276 0.947452 -1.20013e-10)
(496.199 1.23192 -5.9563e-10)
(496.117 1.42013 -4.2819e-10)
(496.022 1.60559 2.19285e-10)
(495.899 1.9181 6.13718e-10)
(495.793 1.94212 6.5216e-10)
(495.626 2.43861 4.7156e-10)
(495.506 2.24275 3.86138e-10)
(495.301 2.97256 1.38525e-10)
(495.164 2.51872 -2.42493e-10)
(494.924 3.4978 -4.02571e-10)
(494.763 2.80125 -2.82754e-10)
(494.504 3.95491 -2.16289e-10)
(494.292 3.19966 -4.2034e-12)
(494.059 4.19397 3.12683e-10)
(493.742 3.80095 1.63122e-10)
(493.586 4.23738 -1.42563e-10)
(493.126 4.5242 -1.57206e-10)
(493.084 4.12315 1.11279e-10)
(492.431 5.43742 2.19189e-10)
(496.065 0.132693 -6.16256e-09)
(496.051 0.43663 1.85279e-09)
(496.029 0.569816 -6.03785e-10)
(495.979 0.924956 1.62354e-11)
(495.931 1.07021 -1.20312e-10)
(495.856 1.38749 -6.04197e-10)
(495.775 1.59714 -4.43481e-10)
(495.681 1.81634 2.16459e-10)
(495.559 2.14939 6.20743e-10)
(495.454 2.20711 6.49337e-10)
(495.289 2.72446 4.59833e-10)
(495.17 2.56026 3.84569e-10)
(494.967 3.31375 1.4674e-10)
(494.832 2.88575 -2.41384e-10)
(494.593 3.8962 -4.09387e-10)
(494.436 3.21222 -2.79688e-10)
(494.177 4.41865 -2.20606e-10)
(493.973 3.63898 -1.52417e-11)
(493.734 4.72988 3.09235e-10)
(493.43 4.27484 1.69952e-10)
(493.268 4.82802 -1.44612e-10)
(492.817 5.04209 -1.68296e-10)
(492.771 4.77013 1.13114e-10)
(492.127 5.9858 2.35641e-10)
(495.671 0.15034 -6.14747e-09)
(495.657 0.480637 1.882e-09)
(495.635 0.637609 -5.85216e-10)
(495.585 1.02368 3.93563e-11)
(495.539 1.19151 -1.0197e-10)
(495.463 1.54116 -5.87451e-10)
(495.384 1.77197 -4.26473e-10)
(495.29 2.02447 2.34206e-10)
(495.17 2.37772 6.39583e-10)
(495.066 2.46878 6.66347e-10)
(494.903 3.00655 4.78247e-10)
(494.787 2.87387 4.00327e-10)
(494.585 3.65035 1.65084e-10)
(494.453 3.24854 -2.28915e-10)
(494.215 4.28907 -3.95855e-10)
(494.062 3.61905 -2.68994e-10)
(493.803 4.87426 -2.06815e-10)
(493.607 4.07455 -4.21723e-12)
(493.364 5.25828 3.23121e-10)
(493.071 4.74252 1.81481e-10)
(492.903 5.41399 -1.32573e-10)
(492.463 5.55331 -1.56152e-10)
(492.413 5.41091 1.22665e-10)
(491.778 6.52583 2.4491e-10)
(495.228 0.167775 -6.16947e-09)
(495.214 0.524042 1.87124e-09)
(495.193 0.704518 -5.95147e-10)
(495.144 1.12108 3.18448e-11)
(495.098 1.31119 -1.0902e-10)
(495.023 1.69276 -5.95819e-10)
(494.944 1.94442 -4.315e-10)
(494.852 2.22977 2.32914e-10)
(494.734 2.60283 6.38423e-10)
(494.631 2.72684 6.64994e-10)
(494.47 3.28452 4.78689e-10)
(494.355 3.18316 4.02779e-10)
(494.155 3.9819 1.6749e-10)
(494.026 3.60651 -2.27431e-10)
(493.79 4.67591 -3.91358e-10)
(493.641 4.02103 -2.62988e-10)
(493.382 5.32162 -1.99291e-10)
(493.194 4.50583 2.05185e-12)
(492.947 5.77832 3.33583e-10)
(492.666 5.20355 1.92174e-10)
(492.492 5.99357 -1.44363e-10)
(492.064 6.05675 -1.90064e-10)
(492.01 6.04511 9.357e-11)
(491.386 7.05706 2.13911e-10)
(494.737 0.184977 -6.17925e-09)
(494.723 0.566803 1.87471e-09)
(494.702 0.770464 -5.98718e-10)
(494.653 1.21706 2.63895e-11)
(494.608 1.42914 -1.14417e-10)
(494.534 1.84218 -6.02181e-10)
(494.457 2.11435 -4.3954e-10)
(494.365 2.4321 2.23542e-10)
(494.249 2.82458 6.29093e-10)
(494.147 2.98112 6.5595e-10)
(493.988 3.55817 4.6835e-10)
(493.875 3.48787 3.93497e-10)
(493.678 4.30812 1.56262e-10)
(493.551 3.95925 -2.37424e-10)
(493.318 5.05634 -4.06169e-10)
(493.172 4.41755 -2.76686e-10)
(492.914 5.76078 -2.16343e-10)
(492.733 4.93245 -1.12333e-11)
(492.483 6.28941 3.15148e-10)
(492.214 5.65801 1.73641e-10)
(492.035 6.56475 -1.39548e-10)
(491.62 6.55064 -1.60765e-10)
(491.562 6.67227 1.1968e-10)
(490.949 7.57894 2.40543e-10)
(494.197 0.201917 -6.18991e-09)
(494.183 0.60886 1.87515e-09)
(494.162 0.835346 -6.05287e-10)
(494.114 1.3115 2.04563e-11)
(494.07 1.54519 -1.23072e-10)
(493.997 1.98923 -6.14962e-10)
(493.921 2.28154 -4.54e-10)
(493.83 2.63125 2.07587e-10)
(493.715 3.04273 6.13078e-10)
(493.616 3.23138 6.3771e-10)
(493.459 3.82726 4.42314e-10)
(493.348 3.78771 3.67347e-10)
(493.152 4.62867 1.23077e-10)
(493.029 4.30632 -2.43333e-10)
(492.798 5.42993 -3.82536e-10)
(492.657 4.80791 -2.5939e-10)
(492.4 6.1916 -1.98165e-10)
(492.225 5.35401 1.29301e-12)
(491.973 6.79085 3.27734e-10)
(491.716 6.10459 1.83889e-10)
(491.532 7.12729 -1.31531e-10)
(491.13 7.0347 -1.55592e-10)
(491.068 7.29065 1.25182e-10)
(490.468 8.09092 2.43867e-10)
(493.608 0.218571 -6.1928e-09)
(493.594 0.65016 1.90047e-09)
(493.574 0.899074 -6.0687e-10)
(493.526 1.40428 1.152e-12)
(493.483 1.65918 -1.26447e-10)
(493.411 2.13372 -6.06629e-10)
(493.336 2.44578 -4.32917e-10)
(493.247 2.82699 2.45605e-10)
(493.134 3.25702 6.33404e-10)
(493.036 3.47738 6.388e-10)
(492.881 4.09153 4.55618e-10)
(492.772 4.08241 3.90774e-10)
(492.579 4.94329 1.65034e-10)
(492.459 4.64739 -2.24544e-10)
(492.23 5.79631 -4.15981e-10)
(492.093 5.19162 -3.00326e-10)
(491.838 6.61366 -2.3448e-10)
(491.67 5.76995 -1.72186e-11)
(491.416 7.28219 3.2206e-10)
(491.17 6.54294 1.89493e-10)
(490.983 7.68044 -1.44033e-10)
(490.593 7.50784 -1.84399e-10)
(490.529 7.89896 1.0854e-10)
(489.941 8.59246 2.4131e-10)
(492.97 0.234917 -6.21896e-09)
(492.956 0.690654 1.86296e-09)
(492.937 0.961557 -5.98776e-10)
(492.889 1.49526 5.7769e-11)
(492.847 1.77093 -1.01175e-10)
(492.776 2.27546 -6.04438e-10)
(492.703 2.60681 -4.52991e-10)
(492.615 3.01904 2.00507e-10)
(492.504 3.46716 6.31731e-10)
(492.407 3.7188 6.81571e-10)
(492.255 4.35066 4.76735e-10)
(492.149 4.37165 3.84991e-10)
(491.958 5.25167 1.30285e-10)
(491.841 4.9821 -2.46593e-10)
(491.615 6.15514 -3.92202e-10)
(491.482 5.5682 -2.71209e-10)
(491.229 7.02653 -2.24168e-10)
(491.068 6.17953 -2.84957e-11)
(490.813 7.76283 2.81492e-10)
(490.579 6.97275 1.6029e-10)
(490.387 8.22382 -1.31227e-10)
(490.011 7.96921 -1.60132e-10)
(489.944 8.49596 1.0892e-10)
(489.37 9.08304 2.16224e-10)
(492.283 0.250931 -6.21583e-09)
(492.269 0.730295 1.91534e-09)
(492.25 1.02272 -6.07002e-10)
(492.203 1.58434 -1.98086e-12)
(492.162 1.8803 -1.29045e-10)
(492.092 2.41424 -6.05724e-10)
(492.02 2.7644 -4.25204e-10)
(491.934 3.20711 2.54728e-10)
(491.825 3.67282 6.37019e-10)
(491.731 3.95527 6.41578e-10)
(491.58 4.60429 4.62868e-10)
(491.477 4.65504 3.98772e-10)
(491.289 5.55346 1.74363e-10)
(491.175 5.31009 -2.506e-10)
(490.952 6.50612 -4.48962e-10)
(490.824 5.93721 -2.96604e-10)
(490.573 7.42984 -2.24428e-10)
(490.419 6.58192 -3.48761e-12)
(490.164 8.23198 3.376e-10)
(489.941 7.39373 1.66704e-10)
(489.745 8.75677 -1.70363e-10)
(489.383 8.41851 -1.73341e-10)
(489.313 9.08103 1.22533e-10)
(488.753 9.56193 2.54027e-10)
(491.546 0.266594 -6.24333e-09)
(491.533 0.769038 1.88101e-09)
(491.514 1.08247 -6.26323e-10)
(491.468 1.67141 -5.83676e-12)
(491.428 1.98711 -1.18683e-10)
(491.358 2.54987 -5.80053e-10)
(491.288 2.91829 -4.21714e-10)
(491.204 3.3909 2.37238e-10)
(491.097 3.87363 6.35128e-10)
(491.005 4.18642 6.53842e-10)
(490.858 4.85199 4.52092e-10)
(490.757 4.93215 3.67258e-10)
(490.572 5.84825 1.54661e-10)
(490.462 5.63094 -2.20444e-10)
(490.241 6.84889 -3.98744e-10)
(490.118 6.29827 -2.73276e-10)
(489.87 7.82333 -2.20735e-10)
(489.722 6.97629 -1.97448e-11)
(489.467 8.68884 2.95556e-10)
(489.256 7.80556 1.43448e-10)
(489.057 9.27776 -1.82153e-10)
(488.71 8.85642 -1.70114e-10)
(488.635 9.65465 1.40714e-10)
(488.09 10.0278 2.51056e-10)
(490.76 0.281879 -6.24914e-09)
(490.746 0.806829 1.909e-09)
(490.728 1.14073 -5.9373e-10)
(490.683 1.75635 4.87343e-11)
(490.644 2.09123 -9.5786e-11)
(490.576 2.68215 -5.85476e-10)
(490.508 3.06822 -4.14222e-10)
(490.425 3.57013 2.62439e-10)
(490.32 4.06927 6.77119e-10)
(490.231 4.41183 6.66838e-10)
(490.086 5.09332 4.36532e-10)
(489.988 5.20249 3.63963e-10)
(489.806 6.13555 1.21528e-10)
(489.7 5.94414 -2.72757e-10)
(489.483 7.18301 -4.41325e-10)
(489.364 6.65095 -2.98594e-10)
(489.119 8.20676 -2.37718e-10)
(488.978 7.36189 -2.30231e-11)
(488.724 9.13275 3.08892e-10)
(488.524 8.20794 1.71749e-10)
(488.322 9.78637 -1.38844e-10)
(487.99 9.28248 -1.55807e-10)
(487.911 10.216 1.29887e-10)
(487.382 10.4803 2.55404e-10)
(489.924 0.296759 -6.27016e-09)
(489.91 0.843603 1.90001e-09)
(489.893 1.1974 -6.1561e-10)
(489.848 1.839 2.24337e-11)
(489.81 2.19246 -1.28981e-10)
(489.743 2.81086 -6.29942e-10)
(489.677 3.21396 -4.60458e-10)
(489.596 3.7445 2.13476e-10)
(489.494 4.25939 6.20141e-10)
(489.407 4.63114 6.43773e-10)
(489.265 5.32786 4.50052e-10)
(489.171 5.46558 3.68493e-10)
(488.992 6.41485 1.1703e-10)
(488.89 6.24914 -2.81568e-10)
(488.676 7.50796 -4.59915e-10)
(488.563 6.9947 -3.21624e-10)
(488.32 8.57968 -2.25079e-10)
(488.186 7.73822 1.80525e-11)
(487.934 9.56325 3.49069e-10)
(487.745 8.60047 1.9796e-10)
(487.54 10.2821 -1.18258e-10)
(487.223 9.69639 -1.44599e-10)
(487.14 10.7644 1.38405e-10)
(486.628 10.9188 2.59959e-10)
(489.037 0.311198 -6.30114e-09)
(489.024 0.879283 1.91553e-09)
(489.007 1.25235 -5.87869e-10)
(488.963 1.91922 2.73082e-11)
(488.926 2.2906 -1.03645e-10)
(488.861 2.93579 -5.81904e-10)
(488.797 3.35524 -4.3917e-10)
(488.718 3.91373 2.10453e-10)
(488.618 4.44366 6.39735e-10)
(488.534 4.84397 6.8401e-10)
(488.395 5.55518 4.64325e-10)
(488.305 5.72094 3.98516e-10)
(488.13 6.68562 1.66784e-10)
(488.031 6.54534 -2.62216e-10)
(487.821 7.82316 -4.15407e-10)
(487.713 7.32889 -2.62136e-10)
(487.474 8.94155 -2.30042e-10)
(487.347 8.1047 -4.41724e-11)
(487.097 9.97995 2.99795e-10)
(486.919 8.98273 1.7092e-10)
(486.712 10.7644 -1.71863e-10)
(486.41 10.0978 -1.72706e-10)
(486.323 11.2993 1.26284e-10)
(485.828 11.3429 2.23682e-10)
(488.1 0.325158 -6.29669e-09)
(488.087 0.91378 1.93176e-09)
(488.071 1.30543 -5.89789e-10)
(488.028 1.99681 6.17767e-11)
(487.992 2.38543 -8.58953e-11)
(487.929 3.05667 -6.21253e-10)
(487.866 3.49177 -4.8558e-10)
(487.79 4.07752 2.02618e-10)
(487.693 4.62175 6.23233e-10)
(487.611 5.04997 6.54136e-10)
(487.476 5.77489 4.65176e-10)
(487.389 5.96813 3.947e-10)
(487.218 6.94738 1.57298e-10)
(487.124 6.83219 -2.37608e-10)
(486.918 8.12802 -3.97566e-10)
(486.816 7.65284 -2.58263e-10)
(486.581 9.29178 -1.91994e-10)
(486.46 8.46067 -1.94245e-11)
(486.212 10.3825 2.72039e-10)
(486.046 9.35434 1.38479e-10)
(485.837 11.2326 -1.72454e-10)
(485.551 10.4864 -1.85463e-10)
(485.459 11.8202 1.00154e-10)
(484.981 11.7522 2.32865e-10)
(487.113 0.338597 -6.3322e-09)
(487.1 0.947002 1.88928e-09)
(487.084 1.35651 -6.14977e-10)
(487.042 2.07158 6.21415e-11)
(487.008 2.47671 -1.09832e-10)
(486.946 3.17323 -6.22987e-10)
(486.886 3.62326 -4.62487e-10)
(486.812 4.23555 2.47429e-10)
(486.718 4.79334 6.88257e-10)
(486.639 5.2488 6.9359e-10)
(486.507 5.98662 4.80733e-10)
(486.424 6.20676 3.81599e-10)
(486.257 7.19969 1.12866e-10)
(486.168 7.10918 -2.61184e-10)
(485.966 8.42198 -4.03667e-10)
(485.869 7.96589 -2.80449e-10)
(485.638 9.62973 -2.3717e-10)
(485.525 8.8053 -4.0743e-11)
(485.28 10.7705 3.17652e-10)
(485.125 9.71497 1.93965e-10)
(484.914 11.6859 -1.39022e-10)
(484.644 10.8617 -1.77131e-10)
(484.548 12.3265 8.66695e-11)
(484.089 12.1464 2.37977e-10)
(486.075 0.351479 -6.35284e-09)
(486.062 0.978863 1.89556e-09)
(486.047 1.40543 -6.17132e-10)
(486.006 2.14334 6.78074e-11)
(485.973 2.5642 -1.00364e-10)
(485.913 3.2852 -6.1939e-10)
(485.855 3.74939 -4.63183e-10)
(485.784 4.38748 1.98799e-10)
(485.692 4.95807 6.40534e-10)
(485.617 5.4401 7.00366e-10)
(485.489 6.19001 4.91865e-10)
(485.409 6.43645 3.91895e-10)
(485.246 7.44214 1.22966e-10)
(485.162 7.37586 -2.5307e-10)
(484.965 8.70457 -3.9444e-10)
(484.874 8.26745 -2.7619e-10)
(484.648 9.95475 -2.32337e-10)
(484.542 9.13773 -3.15872e-11)
(484.301 11.1437 3.28833e-10)
(484.156 10.0642 2.0312e-10)
(483.944 12.1231 -1.29385e-10)
(483.69 11.2232 -1.68497e-10)
(483.59 12.8178 1.0176e-10)
(483.15 12.525 2.11181e-10)
(484.985 0.363772 -6.37929e-09)
(484.973 1.00929 1.94222e-09)
(484.958 1.45209 -5.93978e-10)
(484.919 2.21193 2.43583e-11)
(484.888 2.64769 -1.56716e-10)
(484.829 3.39231 -6.37291e-10)
(484.774 3.86986 -4.38216e-10)
(484.705 4.53299 2.15978e-10)
(484.617 5.11556 6.47954e-10)
(484.545 5.62349 6.92184e-10)
(484.421 6.38466 4.66748e-10)
(484.345 6.65681 4.07577e-10)
(484.186 7.67435 1.81168e-10)
(484.107 7.63183 -2.59135e-10)
(483.915 8.97534 -4.64982e-10)
(483.83 8.55702 -3.0037e-10)
(483.608 10.2663 -2.16562e-10)
(483.51 9.45727 -2.67042e-11)
(483.273 11.5015 3.24365e-10)
(483.139 10.4014 1.8959e-10)
(482.927 12.5436 -1.56206e-10)
(482.689 11.57 -1.54823e-10)
(482.586 13.2929 1.53126e-10)
(482.164 12.8874 2.45091e-10)
(483.845 0.375454 -6.36782e-09)
(483.833 1.03824 1.97253e-09)
(483.819 1.4964 -5.80623e-10)
(483.78 2.27721 3.57642e-11)
(483.751 2.72699 -1.52145e-10)
(483.695 3.49434 -6.39477e-10)
(483.642 3.98439 -4.44231e-10)
(483.575 4.67174 2.60757e-10)
(483.491 5.26546 6.8802e-10)
(483.422 5.79859 6.73312e-10)
(483.302 6.57017 4.40571e-10)
(483.231 6.86745 3.77383e-10)
(483.077 7.89591 1.42834e-10)
(483.002 7.8767 -2.50354e-10)
(482.815 9.23392 -4.05593e-10)
(482.737 8.83417 -2.51423e-10)
(482.52 10.564 -2.2778e-10)
(482.43 9.76338 -4.57694e-11)
(482.196 11.8434 2.97662e-10)
(482.073 10.7259 1.61268e-10)
(481.861 12.9465 -1.40467e-10)
(481.64 11.9013 -1.45408e-10)
(481.534 13.7507 1.5911e-10)
(481.132 13.2332 2.45765e-10)
(482.653 0.386511 -6.3828e-09)
(482.641 1.06566 1.94868e-09)
(482.629 1.5383 -6.42126e-10)
(482.591 2.33909 4.7747e-11)
(482.564 2.80198 -1.25696e-10)
(482.509 3.59111 -6.47268e-10)
(482.459 4.09274 -4.28551e-10)
(482.395 4.80345 2.40277e-10)
(482.314 5.40743 6.29619e-10)
(482.249 5.96501 6.91797e-10)
(482.133 6.74612 4.80779e-10)
(482.066 7.06793 3.7819e-10)
(481.917 8.1064 1.65298e-10)
(481.848 8.11005 -2.61996e-10)
(481.666 9.4799 -4.58343e-10)
(481.594 9.09852 -2.82343e-10)
(481.382 10.8474 -2.39317e-10)
(481.3 10.0556 -3.55903e-11)
(481.071 12.1689 3.27462e-10)
(480.958 11.037 1.56527e-10)
(480.747 13.3313 -1.80819e-10)
(480.543 12.2164 -1.65459e-10)
(480.434 14.1897 9.97203e-11)
(480.052 13.5617 2.11211e-10)
(481.411 0.396932 -6.4623e-09)
(481.399 1.09154 1.9304e-09)
(481.387 1.57773 -6.44561e-10)
(481.351 2.3975 1.82791e-11)
(481.325 2.87256 -1.26076e-10)
(481.272 3.68249 -6.26225e-10)
(481.225 4.19474 -4.40574e-10)
(481.164 4.9279 2.59357e-10)
(481.086 5.54117 6.77837e-10)
(481.025 6.12241 7.05157e-10)
(480.914 6.91211 5.16635e-10)
(480.851 7.25784 3.84589e-10)
(480.707 8.30536 1.36142e-10)
(480.644 8.33146 -2.68852e-10)
(480.467 9.71286 -4.36547e-10)
(480.401 9.34965 -2.87981e-10)
(480.194 11.1162 -2.22088e-10)
(480.12 10.3334 7.71928e-13)
(479.897 12.4777 3.4045e-10)
(479.794 11.334 1.87104e-10)
(479.585 13.6973 -1.81619e-10)
(479.397 12.5149 -1.91167e-10)
(479.286 14.6096 1.00536e-10)
(478.924 13.8727 2.27559e-10)
(480.117 0.406707 -6.44273e-09)
(480.105 1.11586 1.9901e-09)
(480.094 1.61467 -5.89931e-10)
(480.059 2.4524 3.08866e-11)
(480.035 2.93866 -1.60944e-10)
(479.984 3.76837 -6.58426e-10)
(479.939 4.29026 -4.58684e-10)
(479.882 5.0449 2.55111e-10)
(479.808 5.66646 6.80427e-10)
(479.75 6.27052 7.18977e-10)
(479.643 7.0678 4.82545e-10)
(479.586 7.43677 3.62625e-10)
(479.446 8.49237 1.24058e-10)
(479.389 8.54046 -2.75781e-10)
(479.217 9.93237 -4.32169e-10)
(479.159 9.58713 -2.72193e-10)
(478.957 11.37 -1.92399e-10)
(478.891 10.5965 3.82898e-11)
(478.673 12.7696 3.29902e-10)
(478.581 11.6159 1.35112e-10)
(478.374 14.0433 -1.70259e-10)
(478.203 12.7973 -1.705e-10)
(478.089 15.0111 1.36287e-10)
(477.748 14.1663 2.76218e-10)
(478.771 0.415823 -6.45191e-09)
(478.76 1.13857 1.9648e-09)
(478.75 1.64907 -6.68082e-10)
(478.716 2.50371 2.46692e-11)
(478.693 3.0002 -9.09859e-11)
(478.645 3.84867 -6.23588e-10)
(478.603 4.37918 -4.71515e-10)
(478.548 5.15434 2.5694e-10)
(478.478 5.78315 6.47207e-10)
(478.425 6.40913 6.43928e-10)
(478.322 7.21293 4.83787e-10)
(478.269 7.60441 4.33426e-10)
(478.135 8.66702 1.48595e-10)
(478.083 8.73659 -2.88625e-10)
(477.917 10.1379 -4.27595e-10)
(477.866 9.81048 -2.50256e-10)
(477.67 11.6084 -2.17399e-10)
(477.613 10.8444 -2.68053e-11)
(477.399 13.0442 3.43964e-10)
(477.318 11.8822 1.6207e-10)
(477.114 14.3683 -1.89668e-10)
(476.96 13.0635 -1.76185e-10)
(476.843 15.3929 1.4894e-10)
(476.523 14.4411 2.4989e-10)
(477.375 0.424265 -6.53501e-09)
(477.363 1.15966 1.9451e-09)
(477.354 1.68088 -6.58492e-10)
(477.321 2.55138 1.20018e-11)
(477.301 3.0571 -1.39575e-10)
(477.255 3.92332 -6.51025e-10)
(477.215 4.46143 -4.60443e-10)
(477.163 5.25613 2.46338e-10)
(477.097 5.89111 6.62358e-10)
(477.047 6.53811 6.8261e-10)
(476.949 7.34732 4.91335e-10)
(476.902 7.76052 4.16563e-10)
(476.773 8.82898 1.61283e-10)
(476.727 8.91949 -2.55037e-10)
(476.567 10.3291 -4.22724e-10)
(476.523 10.0192 -2.73477e-10)
(476.333 11.8308 -2.11152e-10)
(476.284 11.0766 7.22473e-12)
(476.076 13.3013 3.51959e-10)
(476.005 12.1323 1.95413e-10)
(475.805 14.6715 -1.20664e-10)
(475.668 13.312 -1.98546e-10)
(475.549 15.7553 8.75337e-11)
(475.249 14.6982 2.228e-10)
(475.926 0.432016 -6.48342e-09)
(475.915 1.17908 2.01609e-09)
(475.907 1.71005 -6.18786e-10)
(475.875 2.59532 5.20074e-11)
(475.856 3.10929 -1.09451e-10)
(475.813 3.99221 -6.2751e-10)
(475.776 4.53691 -4.4274e-10)
(475.727 5.35017 2.60928e-10)
(475.664 5.99027 6.71601e-10)
(475.619 6.65739 6.84931e-10)
(475.525 7.47085 4.8632e-10)
(475.483 7.90498 3.99213e-10)
(475.359 8.97806 1.35733e-10)
(475.32 9.08887 -2.80493e-10)
(475.165 10.5055 -4.63047e-10)
(475.128 10.2128 -3.20865e-10)
(474.945 12.0369 -2.63711e-10)
(474.904 11.2927 1.91568e-11)
(474.702 13.5403 3.53909e-10)
(474.642 12.3658 1.84687e-10)
(474.446 14.9529 -1.33926e-10)
(474.325 13.5429 -1.59778e-10)
(474.204 16.0963 1.26281e-10)
(473.927 14.9358 2.52033e-10)
(474.426 0.439062 -6.52501e-09)
(474.416 1.19679 1.99576e-09)
(474.408 1.73652 -6.5875e-10)
(474.378 2.63547 5.20271e-11)
(474.361 3.15667 -1.22465e-10)
(474.319 4.05525 -6.56396e-10)
(474.285 4.60554 -4.31035e-10)
(474.24 5.43639 2.5647e-10)
(474.18 6.08055 6.55217e-10)
(474.139 6.7669 7.12911e-10)
(474.05 7.58348 4.94172e-10)
(474.012 8.03775 3.93953e-10)
(473.894 9.11416 1.7475e-10)
(473.861 9.24462 -2.63532e-10)
(473.712 10.6668 -4.58351e-10)
(473.683 10.391 -2.73527e-10)
(473.506 12.226 -2.31178e-10)
(473.474 11.4919 -2.72766e-11)
(473.278 13.7608 3.55602e-10)
(473.229 12.5822 1.73459e-10)
(473.037 15.2125 -1.74417e-10)
(472.932 13.757 -1.48527e-10)
(472.809 16.4147 1.27386e-10)
(472.555 15.1525 2.2999e-10)
(472.874 0.445395 -6.60128e-09)
(472.864 1.21279 2.00351e-09)
(472.857 1.76027 -6.23487e-10)
(472.828 2.67179 1.14552e-11)
(472.813 3.19921 -1.16703e-10)
(472.774 4.11239 -6.11646e-10)
(472.743 4.66722 -4.70747e-10)
(472.7 5.5147 2.6498e-10)
(472.645 6.16186 7.0382e-10)
(472.607 6.86658 6.76469e-10)
(472.523 7.68514 5.0208e-10)
(472.491 8.15879 4.45965e-10)
(472.377 9.23725 1.41709e-10)
(472.35 9.38672 -2.58779e-10)
(472.208 10.813 -4.06391e-10)
(472.186 10.5535 -3.04579e-10)
(472.015 12.3978 -2.25021e-10)
(471.993 11.6739 2.09519e-11)
(471.803 13.9621 3.23325e-10)
(471.764 12.7804 1.79652e-10)
(471.578 15.4506 -1.21082e-10)
(471.488 13.9542 -1.78027e-10)
(471.363 16.7099 1.34833e-10)
(471.132 15.3488 2.77954e-10)
(471.271 0.451015 -6.58957e-09)
(471.261 1.22708 2.0489e-09)
(471.255 1.78129 -5.93953e-10)
(471.227 2.70427 4.67505e-11)
(471.214 3.23687 -1.56018e-10)
(471.177 4.16357 -6.55202e-10)
(471.148 4.7219 -4.39013e-10)
(471.109 5.58502 2.93809e-10)
(471.057 6.23412 7.33507e-10)
(471.024 6.95635 7.12127e-10)
(470.944 7.77575 4.63227e-10)
(470.917 8.26806 4.01869e-10)
(470.809 9.3473 1.68746e-10)
(470.788 9.51518 -2.34768e-10)
(470.652 10.9441 -3.87534e-10)
(470.637 10.7005 -2.86619e-10)
(470.472 12.5523 -2.7398e-10)
(470.459 11.8382 -2.13496e-11)
(470.276 14.1438 3.38782e-10)
(470.248 12.9598 1.92192e-10)
(470.068 15.6667 -1.01021e-10)
(469.992 14.1347 -1.6689e-10)
(469.867 16.9815 8.09022e-11)
(469.659 15.5238 2.31093e-10)
(469.616 0.455929 -6.6755e-09)
(469.606 1.23966 1.98245e-09)
(469.6 1.79961 -6.81326e-10)
(469.574 2.73292 -2.26688e-12)
(469.563 3.26968 -1.56781e-10)
(469.528 4.20882 -6.78666e-10)
(469.502 4.76959 -4.86694e-10)
(469.466 5.64732 2.27437e-10)
(469.418 6.29728 6.49231e-10)
(469.389 7.03612 6.67559e-10)
(469.314 7.85523 4.64623e-10)
(469.292 8.36548 3.83176e-10)
(469.189 9.44423 1.20937e-10)
(469.174 9.63 -3.01e-10)
(469.044 11.06 -4.79074e-10)
(469.036 10.8319 -3.25334e-10)
(468.878 12.6894 -2.67692e-10)
(468.874 11.985 -3.9612e-11)
(468.697 14.3057 2.98505e-10)
(468.681 13.1197 1.3783e-10)
(468.506 15.8601 -1.92756e-10)
(468.445 14.2978 -2.03676e-10)
(468.32 17.2288 8.85167e-11)
(468.135 15.6774 2.19979e-10)
(467.909 0.460146 -6.63713e-09)
(467.899 1.25056 2.02961e-09)
(467.894 1.81527 -6.71332e-10)
(467.869 2.75781 6.24148e-11)
(467.86 3.2977 -1.17354e-10)
(467.827 4.24818 -6.60273e-10)
(467.804 4.81032 -4.20292e-10)
(467.771 5.70164 2.77921e-10)
(467.727 6.35132 6.7953e-10)
(467.702 7.10586 7.45109e-10)
(467.631 7.92349 5.21347e-10)
(467.614 8.45094 4.111e-10)
(467.517 9.52793 1.97413e-10)
(467.509 9.73109 -2.50098e-10)
(467.384 11.1607 -4.45783e-10)
(467.384 10.9479 -3.13142e-10)
(467.232 12.8094 -2.75475e-10)
(467.237 12.1143 -1.4584e-12)
(467.066 14.448 3.21804e-10)
(467.061 13.2602 1.38269e-10)
(466.892 16.0306 -1.43736e-10)
(466.846 14.4425 -1.79788e-10)
(466.722 17.4508 8.92216e-11)
(466.56 15.8095 2.64141e-10)
(466.149 0.463681 -6.65782e-09)
(466.14 1.25981 2.04621e-09)
(466.136 1.82832 -6.67893e-10)
(466.112 2.77898 7.01405e-11)
(466.104 3.32099 -1.11204e-10)
(466.074 4.28173 -6.55992e-10)
(466.054 4.84417 -4.14449e-10)
(466.024 5.74804 2.87027e-10)
(465.983 6.39629 6.8938e-10)
(465.962 7.16558 6.85763e-10)
(465.896 7.98049 4.60256e-10)
(465.885 8.52438 4.25897e-10)
(465.793 9.59827 1.4139e-10)
(465.79 9.81832 -3.04803e-10)
(465.672 11.2461 -4.33548e-10)
(465.68 11.0483 -3.00902e-10)
(465.533 12.912 -2.62226e-10)
(465.547 12.2264 1.18285e-11)
(465.383 14.5708 3.38328e-10)
(465.389 13.3814 1.51235e-10)
(465.225 16.1787 -1.30377e-10)
(465.193 14.5674 -1.6824e-10)
(465.072 17.6458 1.11077e-10)
(464.933 15.92 2.8408e-10)
(464.338 0.466542 -6.70479e-09)
(464.329 1.26744 2.10194e-09)
(464.326 1.8388 -6.43726e-10)
(464.303 2.7965 1.1728e-11)
(464.297 3.33963 -1.11996e-10)
(464.268 4.30956 -6.00956e-10)
(464.251 4.87123 -4.43038e-10)
(464.224 5.78661 2.39399e-10)
(464.188 6.43229 6.99455e-10)
(464.171 7.21536 7.51349e-10)
(464.109 8.02628 5.11153e-10)
(464.102 8.58579 3.92785e-10)
(464.016 9.65517 1.62773e-10)
(464.02 9.89155 -2.32271e-10)
(463.907 11.316 -4.49468e-10)
(463.923 11.133 -3.28087e-10)
(463.783 12.9972 -2.34154e-10)
(463.806 12.3212 2.53169e-11)
(463.647 14.6744 3.40568e-10)
(463.664 13.4837 1.38997e-10)
(463.507 16.305 -1.60579e-10)
(463.488 14.6715 -1.49991e-10)
(463.371 17.8125 1.19192e-10)
(463.254 16.0088 2.16233e-10)
(462.475 0.468736 -6.76126e-09)
(462.465 1.27347 2.04046e-09)
(462.463 1.84674 -6.80507e-10)
(462.442 2.8104 -3.09845e-12)
(462.437 3.35367 -1.74722e-10)
(462.411 4.33172 -7.12762e-10)
(462.396 4.89159 -4.51276e-10)
(462.372 5.81745 3.34676e-10)
(462.339 6.45941 7.52066e-10)
(462.326 7.2553 7.61323e-10)
(462.269 8.06094 5.41334e-10)
(462.267 8.63522 4.42568e-10)
(462.186 9.69863 1.70169e-10)
(462.197 9.95072 -2.67686e-10)
(462.09 11.3702 -4.58442e-10)
(462.113 11.2017 -3.15556e-10)
(461.98 13.0647 -2.64144e-10)
(462.012 12.3984 -3.97414e-11)
(461.86 14.7584 2.90951e-10)
(461.888 13.5671 1.20038e-10)
(461.736 16.4098 -1.54499e-10)
(461.731 14.7557 -1.18544e-10)
(461.616 17.9507 1.7924e-10)
(461.523 16.0752 2.93295e-10)
(460.558 0.470264 -6.81865e-09)
(460.549 1.27788 2.05745e-09)
(460.548 1.85213 -6.49355e-10)
(460.528 2.82068 -1.03256e-11)
(460.525 3.36314 -1.55029e-10)
(460.5 4.34826 -6.64016e-10)
(460.488 4.90529 -4.45531e-10)
(460.468 5.84062 3.00839e-10)
(460.438 6.47773 6.70389e-10)
(460.429 7.2855 7.0718e-10)
(460.376 8.08457 5.21686e-10)
(460.38 8.6728 3.80902e-10)
(460.304 9.72872 1.34027e-10)
(460.32 9.99589 -2.76062e-10)
(460.22 11.4085 -4.38484e-10)
(460.251 11.2542 -2.6916e-10)
(460.124 13.114 -2.57443e-10)
(460.166 12.4577 -6.38315e-12)
(460.02 14.8224 3.59671e-10)
(460.059 13.6313 1.33189e-10)
(459.913 16.493 -1.85836e-10)
(459.922 14.8203 -1.76668e-10)
(459.81 18.0615 1.42688e-10)
(459.738 16.1198 2.8152e-10)
(458.589 0.471123 -6.77843e-09)
(458.581 1.28069 2.09064e-09)
(458.58 1.855 -6.73068e-10)
(458.561 2.82735 4.80432e-12)
(458.56 3.36803 -1.69773e-10)
(458.537 4.35916 -6.44519e-10)
(458.528 4.91235 -4.67988e-10)