/*--------------------------------*- C++ -*----------------------------------*\
  =========                 |
  \\      /  F ield         | OpenFOAM: The Open Source CFD Toolbox
   \\    /   O peration     | Website:  https://openfoam.org
    \\  /    A nd           | Version:  10
     \\/     M anipulation  |
\*---------------------------------------------------------------------------*/
FoamFile
{
    format      ascii;
    class       surfaceScalarField;
    location    "0.34";
    object      phi;
}
// * * * * * * * * * * * * * * * * * * * * * * * * * * * * * * * * * * * * * //

dimensions      [1 0 -1 0 0 0 0];

internalField   nonuniform List<scalar> 
8154
(
-5.82049e-09
-2.21494e-08
-5.69197e-08
-9.21769e-08
-1.71888e-07
-2.26334e-07
-3.69955e-07
-4.53541e-07
-6.73785e-07
-8.13332e-07
-1.1045e-06
-1.33824e-06
-1.66863e-06
-2.0274e-06
-2.36094e-06
-2.86624e-06
-3.25576e-06
-3.98582e-06
-4.56492e-06
-5.50473e-06
-6.8157e-06
-7.27461e-06
-6.84518e-06
-0.000277438
-0.000832369
2.40274e-08
-0.00138746
9.61984e-08
-0.00194288
2.13219e-07
-0.00249867
3.77805e-07
-0.00305503
5.76875e-07
-0.00361202
8.23235e-07
-0.00416973
1.0886e-06
-0.00472845
1.39838e-06
-0.00528791
1.71203e-06
-0.00584877
2.05681e-06
-0.00641057
2.40272e-06
-0.00697376
2.74735e-06
-0.00753866
3.11955e-06
-0.00810416
3.4361e-06
-0.00867308
3.85001e-06
-0.00924023
4.12629e-06
-0.0098149
4.57382e-06
-0.0103833
4.92489e-06
-0.0109646
5.13963e-06
-0.0115338
5.28073e-06
-0.0121235
5.11848e-06
-0.0126947
4.02808e-06
-0.013293
2.44955e-06
-0.000277462
-0.000832441
2.63376e-08
-0.00138758
1.0473e-07
-0.00194305
2.34604e-07
-0.00249887
4.09894e-07
-0.00305528
6.34812e-07
-0.00361229
8.89337e-07
-0.00417004
1.19488e-06
-0.00472877
1.50186e-06
-0.00528825
1.86799e-06
-0.00584912
2.1915e-06
-0.00641092
2.59332e-06
-0.00697413
2.89204e-06
-0.00753898
3.29822e-06
-0.00810457
3.53919e-06
-0.00867336
3.90417e-06
-0.00924068
4.10491e-06
-0.00981525
4.39004e-06
-0.0103835
5.00219e-06
-0.0109647
4.66675e-06
-0.0115336
5.23266e-06
-0.0121224
5.33395e-06
-0.0126931
5.04198e-06
-0.0132905
4.22924e-06
-0.000277488
-0.000832519
2.12731e-08
-0.00138771
8.48389e-08
-0.00194322
1.87933e-07
-0.00249909
3.30236e-07
-0.00305553
5.01497e-07
-0.00361259
7.07131e-07
-0.00417034
9.22957e-07
-0.00472913
1.16722e-06
-0.00528858
1.39518e-06
-0.00584952
1.6427e-06
-0.00641121
1.84642e-06
-0.00697454
2.04912e-06
-0.00753922
2.19662e-06
-0.00810494
2.28386e-06
-0.00867356
2.3538e-06
-0.00924096
2.20664e-06
-0.00981586
2.34334e-06
-0.0103832
1.89934e-06
-0.0109653
1.7833e-06
-0.0115337
1.39393e-06
-0.0121221
1.15694e-06
-0.0126923
7.20349e-07
-0.0132863
5.1673e-07
-0.00027751
-0.000832583
2.55071e-08
-0.00138781
1.01796e-07
-0.00194337
2.25905e-07
-0.00249926
3.97526e-07
-0.00305574
6.05261e-07
-0.00361281
8.55491e-07
-0.00417059
1.11983e-06
-0.00472936
1.42142e-06
-0.00528882
1.70359e-06
-0.00584972
2.01778e-06
-0.00641142
2.27228e-06
-0.00697469
2.54772e-06
-0.0075393
2.733e-06
-0.00810501
2.89518e-06
-0.00867341
2.98547e-06
-0.0092411
2.89773e-06
-0.00981541
2.97392e-06
-0.0103831
2.28289e-06
-0.0109649
2.51986e-06
-0.0115335
1.72703e-06
-0.0121217
1.20698e-06
-0.0126921
3.80695e-07
-0.0132858
-1.68002e-07
-0.000277535
-0.000832659
3.3622e-08
-0.00138794
1.34162e-07
-0.00194354
2.99067e-07
-0.00249947
5.26199e-07
-0.00305599
8.07645e-07
-0.00361307
1.14158e-06
-0.00417089
1.51238e-06
-0.00472964
1.92003e-06
-0.00528914
2.34014e-06
-0.00584998
2.77425e-06
-0.0064117
3.19438e-06
-0.00697487
3.59536e-06
-0.00753947
3.9636e-06
-0.0081051
4.2589e-06
-0.00867332
4.52226e-06
-0.00924117
4.61488e-06
-0.00981472
4.7297e-06
-0.0103833
4.4003e-06
-0.0109641
4.36909e-06
-0.011533
3.67508e-06
-0.0121209
3.21119e-06
-0.0126915
2.27212e-06
-0.013286
1.35528e-06
-0.000277569
-0.00083276
3.75479e-08
-0.0013881
1.49841e-07
-0.00194377
3.34298e-07
-0.00249975
5.88274e-07
-0.00305632
9.04154e-07
-0.00361344
1.27835e-06
-0.0041713
1.69668e-06
-0.00473006
2.15486e-06
-0.00528957
2.63209e-06
-0.0058504
3.12191e-06
-0.0064121
3.60267e-06
-0.00697524
4.0576e-06
-0.00753976
4.48119e-06
-0.00810537
4.82178e-06
-0.00867342
5.12422e-06
-0.00924129
5.24932e-06
-0.00981439
5.36808e-06
-0.0103833
5.08137e-06
-0.0109634
4.97044e-06
-0.0115325
4.21883e-06
-0.0121199
3.6751e-06
-0.0126906
2.64212e-06
-0.0132846
1.62192e-06
-0.000277606
-0.000832872
4.13872e-08
-0.00138828
1.65177e-07
-0.00194402
3.68627e-07
-0.00250007
6.48823e-07
-0.0030567
9.97728e-07
-0.00361386
1.41132e-06
-0.00417176
1.87462e-06
-0.00473054
2.38286e-06
-0.00529006
2.91354e-06
-0.00585088
3.45999e-06
-0.00641255
3.99683e-06
-0.00697566
4.50849e-06
-0.0075401
4.98204e-06
-0.00810567
5.37115e-06
-0.00867354
5.70758e-06
-0.00924141
5.8622e-06
-0.0098141
5.99576e-06
-0.0103831
5.71688e-06
-0.0109626
5.60117e-06
-0.011532
4.81188e-06
-0.0121189
4.19979e-06
-0.0126896
2.99202e-06
-0.013283
1.80602e-06
-0.000277648
-0.000832996
4.50905e-08
-0.00138849
1.7995e-07
-0.0019443
4.0165e-07
-0.00250042
7.06856e-07
-0.00305711
1.08724e-06
-0.00361432
1.53791e-06
-0.00417226
2.04379e-06
-0.00473107
2.59853e-06
-0.00529061
3.17997e-06
-0.00585141
3.7787e-06
-0.00641307
4.36967e-06
-0.00697614
4.93347e-06
-0.00754049
5.45625e-06
-0.00810601
5.88912e-06
-0.0086737
6.25864e-06
-0.00924154
6.44144e-06
-0.00981382
6.58033e-06
-0.010383
6.32662e-06
-0.0109618
6.18058e-06
-0.0115314
5.37239e-06
-0.0121177
4.8251e-06
-0.0126884
3.36077e-06
-0.0132812
2.02652e-06
-0.000277693
-0.000833131
4.87461e-08
-0.00138871
1.9452e-07
-0.00194461
4.34162e-07
-0.0025008
7.63887e-07
-0.00305756
1.17492e-06
-0.00361482
1.66155e-06
-0.00417282
2.2083e-06
-0.00473165
2.80765e-06
-0.00529121
3.43717e-06
-0.005852
4.08583e-06
-0.00641363
4.72798e-06
-0.00697666
5.3421e-06
-0.00754092
5.91199e-06
-0.00810638
6.38756e-06
-0.00867388
6.78879e-06
-0.00924168
6.99727e-06
-0.00981357
7.13709e-06
-0.0103829
6.90237e-06
-0.010961
6.73058e-06
-0.0115306
5.91727e-06
-0.0121164
4.8509e-06
-0.0126871
3.71662e-06
-0.0132792
2.21747e-06
-0.000277741
-0.000833277
5.2352e-08
-0.00138895
2.08889e-07
-0.00194494
4.662e-07
-0.00250121
8.2003e-07
-0.00305805
1.26108e-06
-0.00361537
1.78276e-06
-0.00417342
2.36904e-06
-0.00473228
3.01121e-06
-0.00529186
3.68642e-06
-0.00585265
4.38226e-06
-0.00641425
5.07243e-06
-0.00697723
5.73389e-06
-0.00754139
6.34838e-06
-0.00810678
6.86491e-06
-0.00867409
7.29717e-06
-0.00924182
7.52912e-06
-0.00981333
7.66827e-06
-0.0103827
7.44816e-06
-0.0109602
7.24494e-06
-0.01153
6.39159e-06
-0.0121149
5.60204e-06
-0.0126856
4.02915e-06
-0.0132769
2.39853e-06
-0.000277794
-0.000833433
5.59227e-08
-0.00138921
2.23121e-07
-0.00194529
4.97941e-07
-0.00250165
8.75672e-07
-0.00305857
1.34644e-06
-0.00361596
1.9028e-06
-0.00417406
2.52793e-06
-0.00473295
3.21194e-06
-0.00529256
3.93122e-06
-0.00585334
4.67213e-06
-0.00641491
5.40746e-06
-0.00697784
6.11323e-06
-0.00754191
6.76915e-06
-0.00810721
7.3243e-06
-0.00867432
7.78673e-06
-0.00924196
8.0432e-06
-0.00981311
8.18805e-06
-0.0103825
7.96953e-06
-0.0109594
7.74085e-06
-0.0115293
6.86178e-06
-0.0121132
6.00815e-06
-0.012684
4.35433e-06
-0.0132745
2.58687e-06
-0.00027785
-0.0008336
5.94503e-08
-0.00138948
2.37189e-07
-0.00194567
5.29345e-07
-0.00250212
9.3079e-07
-0.00305913
1.43109e-06
-0.00361658
2.02192e-06
-0.00417475
2.6856e-06
-0.00473367
3.41098e-06
-0.0052933
4.1734e-06
-0.00585407
4.95791e-06
-0.00641561
5.7361e-06
-0.0069785
6.48322e-06
-0.00754246
7.17698e-06
-0.00810767
7.76718e-06
-0.00867458
8.25686e-06
-0.00924211
8.53627e-06
-0.0098129
8.68778e-06
-0.0103823
8.46712e-06
-0.0109585
8.20347e-06
-0.0115284
7.28591e-06
-0.0121116
6.37453e-06
-0.0126822
4.64927e-06
-0.013272
2.75702e-06
-0.000277909
-0.000833778
6.29341e-08
-0.00138977
2.51088e-07
-0.00194607
5.60399e-07
-0.00250262
9.85368e-07
-0.00305972
1.51502e-06
-0.00361724
2.14022e-06
-0.00417547
2.84238e-06
-0.00473443
3.60902e-06
-0.00529408
4.41429e-06
-0.00585485
5.24172e-06
-0.00641636
6.06137e-06
-0.00697919
6.84762e-06
-0.00754305
7.57605e-06
-0.00810816
8.19753e-06
-0.00867486
8.71072e-06
-0.00924226
9.00983e-06
-0.00981268
9.16532e-06
-0.010382
8.94504e-06
-0.0109576
8.64155e-06
-0.0115275
7.67944e-06
-0.0121099
6.70715e-06
-0.0126803
4.89315e-06
-0.0132692
2.90398e-06
-0.000277972
-0.000833966
6.63756e-08
-0.00139008
2.64818e-07
-0.00194649
5.91083e-07
-0.00250315
1.03933e-06
-0.00306034
1.59808e-06
-0.00361795
2.25743e-06
-0.00417624
2.9979e-06
-0.00473524
3.80577e-06
-0.00529491
4.65383e-06
-0.00585567
5.52404e-06
-0.00641715
6.38465e-06
-0.00697992
7.20883e-06
-0.00754367
7.96969e-06
-0.00810867
8.61912e-06
-0.00867516
9.15167e-06
-0.00924242
9.46641e-06
-0.00981246
9.62429e-06
-0.0103817
9.40654e-06
-0.0109566
9.06118e-06
-0.0115265
8.05414e-06
-0.0121081
7.01256e-06
-0.0126783
5.05222e-06
-0.0132663
3.02935e-06
-0.000278038
-0.000834164
6.97817e-08
-0.00139041
2.784e-07
-0.00194694
6.21413e-07
-0.00250371
1.09264e-06
-0.003061
1.68009e-06
-0.00361869
2.37316e-06
-0.00417705
3.15152e-06
-0.00473608
4.00031e-06
-0.00529578
4.89101e-06
-0.00585653
5.80401e-06
-0.00641797
6.70562e-06
-0.00698068
7.56754e-06
-0.00754432
8.36005e-06
-0.00810921
9.03543e-06
-0.00867547
9.58386e-06
-0.00924257
9.90932e-06
-0.00981224
1.00656e-05
-0.0103813
9.84791e-06
-0.0109556
9.46186e-06
-0.0115254
8.41626e-06
-0.0121061
7.31212e-06
-0.0126763
5.27187e-06
-0.0132633
3.1609e-06
-0.000278108
-0.000834373
7.31546e-08
-0.00139075
2.91842e-07
-0.00194741
6.51387e-07
-0.0025043
1.14523e-06
-0.00306169
1.76084e-06
-0.00361946
2.48695e-06
-0.0041779
3.3024e-06
-0.00473698
4.19134e-06
-0.00529669
5.12405e-06
-0.00585743
6.07953e-06
-0.00641884
7.0222e-06
-0.00698147
7.92217e-06
-0.00754499
8.74674e-06
-0.00810975
9.44792e-06
-0.0086758
1.00111e-05
-0.00924273
1.03439e-05
-0.00981203
1.04921e-05
-0.010381
1.02618e-05
-0.0109545
9.84207e-06
-0.0115243
8.75851e-06
-0.0121041
7.5931e-06
-0.0126742
5.49038e-06
-0.0132601
3.28352e-06
-0.000278181
-0.000834591
7.64849e-08
-0.00139111
3.051e-07
-0.00194791
6.80898e-07
-0.00250491
1.19689e-06
-0.00306242
1.83995e-06
-0.00362028
2.59814e-06
-0.00417878
3.44948e-06
-0.00473791
4.37727e-06
-0.00529765
5.35071e-06
-0.00585837
6.34764e-06
-0.00641974
7.33084e-06
-0.0069823
8.26894e-06
-0.00754569
9.12635e-06
-0.00811032
9.8544e-06
-0.00867613
1.04335e-05
-0.00924288
1.0774e-05
-0.0098118
1.09131e-05
-0.0103805
1.06666e-05
-0.0109535
1.02123e-05
-0.0115232
9.09114e-06
-0.012102
7.86336e-06
-0.0126719
5.69102e-06
-0.0132568
3.39884e-06
-0.000278257
-0.00083482
7.97459e-08
-0.00139149
3.1807e-07
-0.00194842
7.09724e-07
-0.00250555
1.24725e-06
-0.00306318
1.91689e-06
-0.00362113
2.70597e-06
-0.00417971
3.59171e-06
-0.00473888
4.55659e-06
-0.00529865
5.56887e-06
-0.00585936
6.60546e-06
-0.00642068
7.62779e-06
-0.00698316
8.60329e-06
-0.00754642
9.49383e-06
-0.0081109
1.02499e-05
-0.00867648
1.08471e-05
-0.00924302
1.11976e-05
-0.00981155
1.13299e-05
-0.0103801
1.10693e-05
-0.0109523
1.05761e-05
-0.011522
9.42021e-06
-0.0120998
8.12965e-06
-0.0126697
5.88581e-06
-0.0132534
3.50996e-06
-0.000278337
-0.000835058
8.28798e-08
-0.00139188
3.3053e-07
-0.00194896
7.37403e-07
-0.00250622
1.29557e-06
-0.00306397
1.99062e-06
-0.00362202
2.80913e-06
-0.00418068
3.72749e-06
-0.00473989
4.72736e-06
-0.00529968
5.77608e-06
-0.00586038
6.84984e-06
-0.00642165
7.9089e-06
-0.00698405
8.91994e-06
-0.00754718
9.8427e-06
-0.00811149
1.06272e-05
-0.00867683
1.12445e-05
-0.00924315
1.16081e-05
-0.00981129
1.17377e-05
-0.0103796
1.14657e-05
-0.0109512
1.09333e-05
-0.0115207
9.7494e-06
-0.0120976
8.39775e-06
-0.0126673
6.08022e-06
-0.0132499
3.62008e-06
-0.00027842
-0.000835305
8.58094e-08
-0.00139228
3.42183e-07
-0.00194952
7.63312e-07
-0.00250692
1.34085e-06
-0.00306479
2.05976e-06
-0.00362293
2.90593e-06
-0.00418168
3.85483e-06
-0.00474094
4.88734e-06
-0.00530076
5.9698e-06
-0.00586144
7.07774e-06
-0.00642266
8.17042e-06
-0.00698497
9.21402e-06
-0.00754796
1.01667e-05
-0.00811211
1.09782e-05
-0.00867719
1.16165e-05
-0.00924328
1.19957e-05
-0.00981101
1.21278e-05
-0.0103791
1.18492e-05
-0.01095
1.12816e-05
-0.0115193
1.00778e-05
-0.0120953
8.67065e-06
-0.0126648
6.28032e-06
-0.0132463
3.73272e-06
-0.000278506
-0.000835562
8.8446e-08
-0.00139271
3.52684e-07
-0.0019501
7.86713e-07
-0.00250764
1.38187e-06
-0.00306563
2.1226e-06
-0.00362388
2.99415e-06
-0.00418271
3.97116e-06
-0.00474202
5.03366e-06
-0.00530186
6.14695e-06
-0.00586253
7.28583e-06
-0.00642371
8.4086e-06
-0.00698592
9.48103e-06
-0.00754877
1.046e-05
-0.00811275
1.12956e-05
-0.00867757
1.19532e-05
-0.00924342
1.23485e-05
-0.00981073
1.24871e-05
-0.0103785
1.22093e-05
-0.0109488
1.16207e-05
-0.0115179
1.03982e-05
-0.0120929
8.94092e-06
-0.0126623
6.48714e-06
-0.0132426
3.84957e-06
-0.000278594
-0.000835826
9.07038e-08
-0.00139314
3.61695e-07
-0.00195069
8.0686e-07
-0.00250838
1.41735e-06
-0.0030665
2.17725e-06
-0.00362486
3.0713e-06
-0.00418377
4.07341e-06
-0.00474314
5.1628e-06
-0.005303
6.30371e-06
-0.00586365
7.47013e-06
-0.00642478
8.61925e-06
-0.0069869
9.71647e-06
-0.00754961
1.07175e-05
-0.00811341
1.1573e-05
-0.00867797
1.22462e-05
-0.00924355
1.26551e-05
-0.00981045
1.28001e-05
-0.0103779
1.25266e-05
-0.0109476
1.19282e-05
-0.0115165
1.0689e-05
-0.0120904
9.19052e-06
-0.0126596
6.69081e-06
-0.0132387
3.96557e-06
-0.000278685
-0.000836097
9.25128e-08
-0.00139358
3.68931e-07
-0.0019513
8.23106e-07
-0.00250914
1.44613e-06
-0.0030674
2.22188e-06
-0.00362586
3.1348e-06
-0.00418486
4.15821e-06
-0.00474428
5.27068e-06
-0.00530417
6.43544e-06
-0.0058648
7.62564e-06
-0.00642588
8.79725e-06
-0.0069879
9.91517e-06
-0.00755046
1.09339e-05
-0.00811408
1.18045e-05
-0.00867838
1.24888e-05
-0.0092437
1.29065e-05
-0.00981018
1.30547e-05
-0.0103773
1.27832e-05
-0.0109463
1.21745e-05
-0.011515
1.09267e-05
-0.0120879
9.39482e-06
-0.0126569
6.86554e-06
-0.0132348
4.06274e-06
-0.000278777
-0.000836373
9.38255e-08
-0.00139404
3.74194e-07
-0.00195192
8.3497e-07
-0.00250991
1.46727e-06
-0.00306831
2.25493e-06
-0.00362688
3.18225e-06
-0.00418597
4.22223e-06
-0.00474544
5.35298e-06
-0.00530536
6.5369e-06
-0.00586597
7.74644e-06
-0.006427
8.93629e-06
-0.00698892
1.00707e-05
-0.00755133
1.11028e-05
-0.00811477
1.19837e-05
-0.0086788
1.26742e-05
-0.00924385
1.30957e-05
-0.00980991
1.32423e-05
-0.0103767
1.29689e-05
-0.0109451
1.23482e-05
-0.0115134
1.10959e-05
-0.0120854
9.5271e-06
-0.0126541
6.96793e-06
-0.0132307
4.10732e-06
-0.000278871
-0.000836653
9.46308e-08
-0.0013945
3.7743e-07
-0.00195256
8.42289e-07
-0.0025107
1.48041e-06
-0.00306924
2.27563e-06
-0.00362792
3.21233e-06
-0.0041871
4.26332e-06
-0.00474663
5.40667e-06
-0.00530657
6.60408e-06
-0.00586716
7.82782e-06
-0.00642813
9.03105e-06
-0.00698996
1.01779e-05
-0.00755221
1.12192e-05
-0.00811546
1.21071e-05
-0.00867923
1.27989e-05
-0.00924399
1.32202e-05
-0.00980964
1.33595e-05
-0.0103761
1.30802e-05
-0.0109438
1.24454e-05
-0.0115118
1.1191e-05
-0.0120828
9.57677e-06
-0.0126512
6.96121e-06
-0.0132266
4.07502e-06
-0.000278966
-0.000836936
9.53095e-08
-0.00139496
3.80152e-07
-0.00195319
8.48436e-07
-0.0025115
1.49144e-06
-0.00307017
2.29304e-06
-0.00362897
3.23779e-06
-0.00418825
4.29848e-06
-0.00474782
5.45336e-06
-0.00530779
6.66393e-06
-0.00586837
7.90244e-06
-0.00642928
9.12127e-06
-0.006991
1.02842e-05
-0.0075531
1.13403e-05
-0.00811615
1.22414e-05
-0.00867965
1.29428e-05
-0.00924413
1.33714e-05
-0.00980936
1.3512e-05
-0.0103754
1.3234e-05
-0.0109426
1.25931e-05
-0.0115102
1.1341e-05
-0.0120802
9.70518e-06
-0.0126484
7.05192e-06
-0.0132225
4.17656e-06
-0.000279061
-0.000837221
9.55948e-08
-0.00139543
3.81294e-07
-0.00195384
8.51008e-07
-0.0025123
1.49607e-06
-0.00307112
2.30042e-06
-0.00363004
3.24874e-06
-0.0041894
4.314e-06
-0.00474903
5.47475e-06
-0.00530903
6.69266e-06
-0.00586959
7.94032e-06
-0.00643044
9.16999e-06
-0.00699205
1.03452e-05
-0.007554
1.14144e-05
-0.00811685
1.23282e-05
-0.00868008
1.30405e-05
-0.00924427
1.34774e-05
-0.00980908
1.36218e-05
-0.0103748
1.3346e-05
-0.0109413
1.26992e-05
-0.0115086
1.14455e-05
-0.0120776
9.80771e-06
-0.0126455
7.13659e-06
-0.0132183
4.34309e-06
-0.000279157
-0.000837506
9.53769e-08
-0.0013959
3.80421e-07
-0.00195448
8.49041e-07
-0.0025131
1.49262e-06
-0.00307207
2.29515e-06
-0.0036311
3.24148e-06
-0.00419056
4.30471e-06
-0.00475025
5.46383e-06
-0.00531028
6.68085e-06
-0.00587082
7.92909e-06
-0.00643162
9.16111e-06
-0.00699312
1.03409e-05
-0.00755492
1.14169e-05
-0.00811757
1.2339e-05
-0.00868051
1.30598e-05
-0.00924441
1.35042e-05
-0.00980881
1.36522e-05
-0.0103741
1.33784e-05
-0.0109401
1.2726e-05
-0.0115069
1.14715e-05
-0.0120749
9.82612e-06
-0.0126425
7.19879e-06
-0.0132142
3.92314e-06
-0.000279252
-0.000837791
9.46934e-08
-0.00139637
3.77691e-07
-0.00195513
8.42928e-07
-0.00251391
1.48187e-06
-0.00307301
2.27856e-06
-0.00363216
3.21806e-06
-0.00419172
4.2736e-06
-0.00475147
5.42461e-06
-0.00531153
6.63344e-06
-0.00587205
7.87434e-06
-0.0064328
9.10046e-06
-0.0069942
1.02769e-05
-0.00755584
1.13526e-05
-0.00811829
1.2278e-05
-0.00868096
1.3005e-05
-0.00924456
1.34572e-05
-0.00980854
1.36115e-05
-0.0103735
1.33428e-05
-0.0109388
1.26875e-05
-0.0115053
1.14314e-05
-0.0120723
9.75764e-06
-0.0126395
7.16953e-06
-0.01321
3.89345e-06
-0.000279347
-0.000838075
9.35713e-08
-0.00139684
3.73222e-07
-0.00195577
8.3296e-07
-0.0025147
1.4644e-06
-0.00307395
2.25173e-06
-0.00363322
3.18027e-06
-0.00419287
4.22341e-06
-0.00475268
5.361e-06
-0.00531277
6.55568e-06
-0.00587328
7.78257e-06
-0.00643398
8.99549e-06
-0.00699528
1.0161e-05
-0.00755677
1.1229e-05
-0.00811901
1.21514e-05
-0.00868141
1.28805e-05
-0.00924471
1.33399e-05
-0.00980827
1.35044e-05
-0.0103728
1.32477e-05
-0.0109375
1.25982e-05
-0.0115036
1.13455e-05
-0.0120697
9.64676e-06
-0.0126367
7.08371e-06
-0.0132056
4.21039e-06
-0.000279441
-0.000838354
9.20382e-08
-0.0013973
3.67126e-07
-0.0019564
8.19407e-07
-0.00251549
1.44073e-06
-0.00307488
2.21555e-06
-0.00363426
3.12956e-06
-0.00419401
4.15642e-06
-0.00475387
5.2764e-06
-0.00531399
6.45239e-06
-0.00587449
7.66028e-06
-0.00643514
8.85433e-06
-0.00699635
1.00026e-05
-0.00755769
1.10559e-05
-0.00811974
1.19684e-05
-0.00868187
1.26934e-05
-0.00924488
1.31566e-05
-0.00980801
1.33322e-05
-0.0103722
1.3094e-05
-0.0109363
1.24645e-05
-0.0115019
1.1234e-05
-0.0120671
9.5452e-06
-0.0126338
7.01766e-06
-0.0132014
4.16587e-06
-0.000279533
-0.000838629
9.01344e-08
-0.00139775
3.59563e-07
-0.00195702
8.02614e-07
-0.00251626
1.41146e-06
-0.00307579
2.17094e-06
-0.00363529
3.06727e-06
-0.00419513
4.07457e-06
-0.00475505
5.17362e-06
-0.0053152
6.32759e-06
-0.00587568
7.51304e-06
-0.00643629
8.68453e-06
-0.0069974
9.81124e-06
-0.0075586
1.08447e-05
-0.00812047
1.17412e-05
-0.00868233
1.24554e-05
-0.00924505
1.2916e-05
-0.00980777
1.30988e-05
-0.0103715
1.28797e-05
-0.0109351
1.22792e-05
-0.0115002
1.10878e-05
-0.0120646
9.43529e-06
-0.012631
6.93768e-06
-0.0131973
4.12011e-06
-0.000279623
-0.000838899
8.79185e-08
-0.00139819
3.50758e-07
-0.00195763
7.8306e-07
-0.00251702
1.37737e-06
-0.00307669
2.11903e-06
-0.00363629
2.9949e-06
-0.00419622
3.97972e-06
-0.0047562
5.05502e-06
-0.00531639
6.18437e-06
-0.00587686
7.3451e-06
-0.00643742
8.49196e-06
-0.00699844
9.59505e-06
-0.0075595
1.06061e-05
-0.00812118
1.14829e-05
-0.00868279
1.21808e-05
-0.00924523
1.26322e-05
-0.00980754
1.2815e-05
-0.0103709
1.26096e-05
-0.0109339
1.20386e-05
-0.0114985
1.08937e-05
-0.0120621
9.29214e-06
-0.0126282
6.85794e-06
-0.0131931
4.06549e-06
-0.000279711
-0.000839162
8.54654e-08
-0.00139862
3.41003e-07
-0.00195822
7.61362e-07
-0.00251777
1.33948e-06
-0.00307756
2.06124e-06
-0.00363728
2.91423e-06
-0.0041973
3.87398e-06
-0.00475733
4.92291e-06
-0.00531755
6.02533e-06
-0.005878
7.15945e-06
-0.00643852
8.28048e-06
-0.00699945
9.35936e-06
-0.00756037
1.03477e-05
-0.00812188
1.12043e-05
-0.00868325
1.18839e-05
-0.00924542
1.23219e-05
-0.00980733
1.24977e-05
-0.0103704
1.22974e-05
-0.0109327
1.17483e-05
-0.0114969
1.06478e-05
-0.0120597
9.11003e-06
-0.0126254
6.77583e-06
-0.0131891
4.00615e-06
-0.000279796
-0.000839417
8.28573e-08
-0.00139905
3.30618e-07
-0.0019588
7.38214e-07
-0.00251849
1.29894e-06
-0.00307842
1.99921e-06
-0.00363824
2.82739e-06
-0.00419835
3.75982e-06
-0.00475843
4.77997e-06
-0.00531868
5.85309e-06
-0.00587913
6.95861e-06
-0.0064396
8.05252e-06
-0.00700044
9.10686e-06
-0.00756123
1.00733e-05
-0.00812256
1.09111e-05
-0.00868369
1.1574e-05
-0.00924559
1.1999e-05
-0.00980713
1.21654e-05
-0.0103698
1.19637e-05
-0.0109316
1.14245e-05
-0.0114954
1.03543e-05
-0.0120574
8.87596e-06
-0.0126226
6.64987e-06
-0.0131851
3.9294e-06
-0.000279879
-0.000839665
8.01705e-08
-0.00139945
3.19903e-07
-0.00195936
7.14273e-07
-0.00251919
1.25688e-06
-0.00307924
1.93463e-06
-0.00363917
2.73659e-06
-0.00419937
3.63993e-06
-0.00475951
4.62919e-06
-0.00531978
5.67064e-06
-0.00588022
6.74522e-06
-0.00644066
7.81009e-06
-0.0070014
8.83875e-06
-0.00756206
9.78336e-06
-0.00812323
1.06041e-05
-0.00868412
1.12537e-05
-0.00924576
1.16698e-05
-0.00980693
1.18309e-05
-0.0103693
1.16287e-05
-0.0109305
1.10939e-05
-0.0114939
1.004e-05
-0.0120551
8.59317e-06
-0.0126199
6.42226e-06
-0.0131811
3.81896e-06
-0.000279959
-0.000839905
7.74614e-08
-0.00139985
3.09085e-07
-0.0019599
6.90049e-07
-0.00251987
1.21421e-06
-0.00308005
1.86887e-06
-0.00364007
2.64377e-06
-0.00420035
3.51682e-06
-0.00476055
4.47354e-06
-0.00532086
5.4812e-06
-0.00588129
6.52233e-06
-0.00644169
7.55559e-06
-0.00700235
8.5561e-06
-0.00756288
9.47731e-06
-0.00812387
1.02806e-05
-0.00868454
1.09191e-05
-0.00924592
1.1331e-05
-0.00980673
1.14945e-05
-0.0103688
1.12998e-05
-0.0109295
1.07757e-05
-0.0114925
9.73859e-06
-0.0120529
8.31441e-06
-0.0126173
6.18937e-06
-0.0131773
3.67614e-06
-0.000280037
-0.000840136
7.47603e-08
-0.00140023
2.98286e-07
-0.00196043
6.65826e-07
-0.00252052
1.17145e-06
-0.00308082
1.80281e-06
-0.00364095
2.55024e-06
-0.00420131
3.39228e-06
-0.00476156
4.31533e-06
-0.0053219
5.28755e-06
-0.00588232
6.29297e-06
-0.00644269
7.29176e-06
-0.00700327
8.26077e-06
-0.00756369
9.15497e-06
-0.00812451
9.93792e-06
-0.00868495
1.05642e-05
-0.00924608
1.0973e-05
-0.00980654
1.11453e-05
-0.0103682
1.09673e-05
-0.0109285
1.04675e-05
-0.0114911
9.45723e-06
-0.0120508
8.05984e-06
-0.0126148
5.97201e-06
-0.0131736
3.49008e-06
-0.000280111
-0.000840359
7.20643e-08
-0.0014006
2.875e-07
-0.00196093
6.41605e-07
-0.00252115
1.12863e-06
-0.00308157
1.73657e-06
-0.00364179
2.45629e-06
-0.00420223
3.26687e-06
-0.00476253
4.15546e-06
-0.00532291
5.09107e-06
-0.00588332
6.05891e-06
-0.00644365
7.02058e-06
-0.00700416
7.95445e-06
-0.00756447
8.81701e-06
-0.00812514
9.57441e-06
-0.00868537
1.01837e-05
-0.00924625
1.05859e-05
-0.00980636
1.07669e-05
-0.0103677
1.061e-05
-0.0109274
1.01479e-05
-0.0114897
9.18102e-06
-0.0120487
7.83783e-06
-0.0126123
5.79126e-06
-0.0131701
3.31633e-06
-0.000280183
-0.000840574
6.93493e-08
-0.00140095
2.76633e-07
-0.00196142
6.17191e-07
-0.00252176
1.08544e-06
-0.00308229
1.6697e-06
-0.0036426
2.36135e-06
-0.00420312
3.13999e-06
-0.00476347
3.9934e-06
-0.00532387
4.89142e-06
-0.00588428
5.8202e-06
-0.00644459
6.74257e-06
-0.00700502
7.63798e-06
-0.00756523
8.46439e-06
-0.00812575
9.19027e-06
-0.00868577
9.77569e-06
-0.00924643
1.01634e-05
-0.0098062
1.03464e-05
-0.0103673
1.0205e-05
-0.0109265
9.78334e-06
-0.0114883
8.86756e-06
-0.0120467
7.61079e-06
-0.0126099
5.6455e-06
-0.0131668
3.2912e-06
-0.000280252
-0.000840781
6.6564e-08
-0.00140129
2.65486e-07
-0.00196189
5.92144e-07
-0.00252234
1.04112e-06
-0.00308298
1.60105e-06
-0.00364338
2.26383e-06
-0.00420397
3.00958e-06
-0.00476436
3.82668e-06
-0.0053248
4.68583e-06
-0.0058852
5.57388e-06
-0.00644548
6.45491e-06
-0.00700585
7.30892e-06
-0.00756595
8.09532e-06
-0.00812634
8.78423e-06
-0.00868616
9.33898e-06
-0.00924661
9.70326e-06
-0.00980606
9.87666e-06
-0.0103668
9.73803e-06
-0.0109255
9.34626e-06
-0.0114871
8.47125e-06
-0.0120447
7.30669e-06
-0.0126075
5.43506e-06
-0.0131635
3.22495e-06
-0.000280319
-0.00084098
6.36396e-08
-0.00140162
2.53775e-07
-0.00196234
5.6583e-07
-0.0025229
9.94543e-07
-0.00308364
1.52889e-06
-0.00364412
2.16129e-06
-0.00420479
2.87235e-06
-0.00476522
3.65119e-06
-0.00532569
4.46921e-06
-0.00588608
5.31428e-06
-0.00644634
6.15103e-06
-0.00700663
6.96094e-06
-0.00756664
7.70298e-06
-0.00812689
8.35138e-06
-0.00868653
8.86818e-06
-0.00924678
9.20319e-06
-0.00980591
9.35231e-06
-0.0103665
9.20561e-06
-0.0109247
8.82075e-06
-0.0114859
7.97409e-06
-0.0120428
6.87851e-06
-0.0126053
5.10324e-06
-0.0131603
3.0414e-06
-0.000280382
-0.000841169
6.08308e-08
-0.00140193
2.42512e-07
-0.00196277
5.40532e-07
-0.00252344
9.49788e-07
-0.00308427
1.45959e-06
-0.00364483
2.06292e-06
-0.00420557
2.74085e-06
-0.00476604
3.4834e-06
-0.00532653
4.2625e-06
-0.00588692
5.06745e-06
-0.00644714
5.8628e-06
-0.00700738
6.63263e-06
-0.00756729
7.33389e-06
-0.00812741
7.94728e-06
-0.00868686
8.42963e-06
-0.00924693
8.74147e-06
-0.00980576
8.86538e-06
-0.0103661
8.7133e-06
-0.0109238
8.3249e-06
-0.0114848
7.50534e-06
-0.0120411
6.45368e-06
-0.0126032
4.76529e-06
-0.0131572
2.81343e-06
-0.000280443
-0.00084135
5.83478e-08
-0.00140223
2.32562e-07
-0.00196317
5.18212e-07
-0.00252395
9.10352e-07
-0.00308488
1.39865e-06
-0.00364551
1.97662e-06
-0.00420631
2.62595e-06
-0.00476682
3.33739e-06
-0.00532734
4.08393e-06
-0.00588771
4.85543e-06
-0.00644791
5.61792e-06
-0.00700808
6.35579e-06
-0.0075679
7.02814e-06
-0.0081279
7.61616e-06
-0.00868717
8.0804e-06
-0.00924705
8.37914e-06
-0.0098056
8.49862e-06
-0.0103657
8.34728e-06
-0.010923
7.97766e-06
-0.0114837
7.18316e-06
-0.0120394
6.19241e-06
-0.0126013
4.56601e-06
-0.0131544
2.73534e-06
-0.000280501
-0.000841524
5.56594e-08
-0.00140251
2.21796e-07
-0.00196357
4.94086e-07
-0.00252444
8.67752e-07
-0.00308546
1.33283e-06
-0.00364616
1.88342e-06
-0.00420702
2.50185e-06
-0.00476757
3.17965e-06
-0.00532811
3.89099e-06
-0.00588847
4.62622e-06
-0.00644865
5.35297e-06
-0.00700875
6.05593e-06
-0.00756849
6.69709e-06
-0.00812837
7.25726e-06
-0.00868747
7.70216e-06
-0.00924717
7.98628e-06
-0.00980545
8.10321e-06
-0.0103653
7.95305e-06
-0.0109222
7.60522e-06
-0.0114827
6.83482e-06
-0.0120378
5.89096e-06
-0.0125995
4.3187e-06
-0.0131517
2.65216e-06
-0.000280556
-0.000841689
5.27367e-08
-0.00140278
2.10097e-07
-0.00196394
4.67914e-07
-0.00252491
8.21586e-07
-0.00308601
1.26157e-06
-0.00364678
1.78256e-06
-0.0042077
2.36762e-06
-0.00476828
3.00911e-06
-0.00532884
3.68245e-06
-0.0058892
4.37843e-06
-0.00644935
5.0664e-06
-0.0070094
5.73146e-06
-0.00756904
6.33894e-06
-0.00812882
6.86855e-06
-0.00868776
7.2916e-06
-0.00924729
7.55856e-06
-0.0098053
7.67422e-06
-0.010365
7.52836e-06
-0.0109215
7.21134e-06
-0.0114818
6.4738e-06
-0.0120362
5.5629e-06
-0.0125978
4.03205e-06
-0.013149
2.44715e-06
-0.000280609
-0.000841846
4.95544e-08
-0.00140304
1.97372e-07
-0.00196429
4.39492e-07
-0.00252535
7.71518e-07
-0.00308653
1.18437e-06
-0.00364737
1.67341e-06
-0.00420834
2.22254e-06
-0.00476895
2.82495e-06
-0.00532954
3.45744e-06
-0.00588989
4.1111e-06
-0.00645002
4.75734e-06
-0.00701001
5.38149e-06
-0.00756957
5.95331e-06
-0.00812924
6.44955e-06
-0.00868803
6.84826e-06
-0.00924741
7.09385e-06
-0.00980516
7.2086e-06
-0.0103647
7.06716e-06
-0.0109207
6.7886e-06
-0.0114809
6.09775e-06
-0.0120347
5.24506e-06
-0.0125962
4.08511e-06
-0.0131466
2.27872e-06
-0.000280658
-0.000841993
4.60906e-08
-0.00140328
1.83535e-07
-0.00196463
4.08635e-07
-0.00252576
7.17229e-07
-0.00308702
1.10076e-06
-0.00364792
1.55535e-06
-0.00420894
2.06584e-06
-0.00476959
2.62627e-06
-0.00533019
3.21495e-06
-0.00589053
3.82303e-06
-0.00645064
4.42454e-06
-0.00701058
5.00473e-06
-0.00757006
5.53931e-06
-0.00812964
5.99977e-06
-0.00868828
6.37221e-06
-0.00924753
6.59247e-06
-0.00980501
6.70832e-06
-0.0103644
6.56863e-06
-0.01092
6.32151e-06
-0.01148
5.67779e-06
-0.0120332
4.96453e-06
-0.0125947
3.60337e-06
-0.0131443
2.16003e-06
-0.000280704
-0.000842129
4.23351e-08
-0.00140351
1.68543e-07
-0.00196494
3.75227e-07
-0.00252615
6.58495e-07
-0.00308747
1.01039e-06
-0.00364843
1.42786e-06
-0.0042095
1.89684e-06
-0.00477017
2.41227e-06
-0.0053308
2.95403e-06
-0.00589113
3.51299e-06
-0.00645122
4.06669e-06
-0.00701111
4.59957e-06
-0.00757052
5.09555e-06
-0.00813001
5.51792e-06
-0.00868851
5.8628e-06
-0.00924765
6.05433e-06
-0.00980488
6.17823e-06
-0.0103641
6.04036e-06
-0.0109194
5.80918e-06
-0.0114793
5.18486e-06
-0.0120318
4.5916e-06
-0.0125934
3.30734e-06
-0.0131421
1.98372e-06
-0.000280745
-0.000842255
3.82976e-08
-0.00140371
1.52418e-07
-0.00196522
3.39273e-07
-0.0025265
5.95264e-07
-0.00308789
9.13131e-07
-0.0036489
1.29074e-06
-0.00421002
1.71523e-06
-0.00477072
2.18248e-06
-0.00533135
2.67406e-06
-0.00589169
3.1801e-06
-0.00645175
3.68282e-06
-0.00701161
4.16469e-06
-0.00757094
4.62083e-06
-0.00813035
5.0024e-06
-0.00868872
5.31934e-06
-0.00924777
5.47809e-06
-0.00980474
5.61784e-06
-0.0103639
5.48471e-06
-0.0109188
5.28789e-06
-0.0114787
5.09426e-06
-0.0120305
4.05772e-06
-0.012592
3.00702e-06
-0.0131401
1.79444e-06
-0.000280783
-0.000842368
3.40032e-08
-0.0014039
1.35238e-07
-0.00196548
3.009e-07
-0.00252682
5.27717e-07
-0.00308827
8.09142e-07
-0.00364932
1.14417e-06
-0.00421048
1.52119e-06
-0.00477121
1.93705e-06
-0.00533186
2.37509e-06
-0.00589219
2.82406e-06
-0.00645223
3.27279e-06
-0.00701206
3.69956e-06
-0.00757132
4.11496e-06
-0.00813067
4.45178e-06
-0.0086889
4.74372e-06
-0.00924789
4.86608e-06
-0.00980463
5.02295e-06
-0.0103637
4.89389e-06
-0.0109181
4.80847e-06
-0.0114781
4.32192e-06
-0.0120294
3.66583e-06
-0.0125908
2.73227e-06
-0.0131383
1.61459e-06
-0.000280817
-0.000842469
2.9465e-08
-0.00140407
1.17076e-07
-0.0019657
2.60276e-07
-0.0025271
4.5615e-07
-0.00308861
6.98845e-07
-0.0036497
9.88768e-07
-0.0042109
1.31556e-06
-0.00477164
1.6769e-06
-0.00533231
2.05806e-06
-0.00589264
2.44555e-06
-0.00645266
2.83812e-06
-0.00701247
3.20491e-06
-0.00757165
3.58036e-06
-0.00813097
3.86478e-06
-0.00868904
4.14137e-06
-0.00924803
4.22498e-06
-0.00980452
4.39947e-06
-0.0103636
4.62934e-06
-0.0109175
4.10949e-06
-0.0114776
3.73764e-06
-0.0120285
3.20326e-06
-0.0125897
2.39721e-06
-0.0131367
1.41642e-06
-0.000280846
-0.000842555
2.46409e-08
-0.00140421
9.79417e-08
-0.0019659
2.17564e-07
-0.00252735
3.81005e-07
-0.0030889
5.83031e-07
-0.00365003
8.25659e-07
-0.00421126
1.09969e-06