/*--------------------------------*- C++ -*----------------------------------*\
  =========                 |
  \\      /  F ield         | OpenFOAM: The Open Source CFD Toolbox
   \\    /   O peration     | Website:  https://openfoam.org
    \\  /    A nd           | Version:  10
     \\/     M anipulation  |
\*---------------------------------------------------------------------------*/
FoamFile
{
    format      ascii;
    class       volScalarField;
    location    "0.34";
    object      rho;
}
// * * * * * * * * * * * * * * * * * * * * * * * * * * * * * * * * * * * * * //

dimensions      [1 -3 0 0 0 0 0];

internalField   nonuniform List<scalar> 
4176
(
0.0308487
0.0308517
0.0308579
0.0308683
0.0308814
0.0308977
0.0309187
0.0309401
0.0309693
0.0309955
0.0310323
0.0310647
0.0311068
0.0311476
0.0311925
0.0312439
0.0312871
0.0313549
0.0313934
0.031479
0.0315107
0.031616
0.0316361
0.0317505
0.0308567
0.0308596
0.0308648
0.0308748
0.0308858
0.0309015
0.0309192
0.0309399
0.030965
0.0309899
0.031022
0.0310523
0.0310899
0.0311271
0.0311681
0.0312141
0.0312541
0.0313144
0.03135
0.0314266
0.0314539
0.0315541
0.0315746
0.0317038
0.030876
0.0308789
0.0308844
0.0308946
0.0309062
0.0309224
0.030941
0.0309621
0.0309885
0.031014
0.0310477
0.0310787
0.0311182
0.0311563
0.0311996
0.0312467
0.0312891
0.031352
0.0313878
0.031468
0.0314956
0.0315945
0.0316131
0.0317345
0.0309047
0.0309076
0.0309129
0.0309229
0.0309341
0.0309498
0.0309679
0.0309884
0.0310142
0.0310387
0.031072
0.0311016
0.0311407
0.031177
0.0312201
0.0312654
0.0313074
0.0313703
0.0314015
0.0314841
0.0315093
0.0316069
0.0316243
0.0317368
0.0309441
0.030947
0.0309523
0.0309623
0.0309735
0.0309893
0.0310073
0.0310279
0.0310535
0.0310784
0.0311112
0.0311412
0.0311801
0.0312166
0.0312597
0.0313044
0.0313484
0.0314082
0.031443
0.0315235
0.0315504
0.0316475
0.0316664
0.0317805
0.0309936
0.0309965
0.0310017
0.0310116
0.0310225
0.0310382
0.0310558
0.0310764
0.0311014
0.0311261
0.0311583
0.0311881
0.0312263
0.0312624
0.031305
0.0313487
0.0313931
0.03145
0.0314882
0.0315647
0.0315925
0.0316884
0.0317082
0.0318237
0.0310535
0.0310564
0.0310615
0.0310714
0.0310822
0.0310978
0.0311152
0.0311356
0.0311603
0.0311849
0.0312168
0.0312463
0.0312842
0.0313198
0.0313624
0.0314053
0.0314499
0.0315051
0.0315442
0.0316188
0.0316478
0.0317422
0.0317623
0.0318758
0.0311236
0.0311265
0.0311316
0.0311414
0.031152
0.0311675
0.0311846
0.0312048
0.0312292
0.0312534
0.0312849
0.031314
0.0313515
0.0313866
0.0314288
0.0314709
0.0315155
0.0315689
0.0316092
0.0316811
0.0317112
0.031804
0.0318246
0.0319368
0.0312041
0.031207
0.031212
0.0312217
0.0312322
0.0312475
0.0312644
0.0312844
0.0313084
0.0313324
0.0313635
0.0313922
0.0314293
0.0314638
0.0315058
0.0315469
0.0315916
0.0316433
0.0316844
0.0317539
0.031785
0.0318758
0.0318968
0.0320072
0.031295
0.0312978
0.0313027
0.0313124
0.0313227
0.0313379
0.0313544
0.0313742
0.0313979
0.0314216
0.0314522
0.0314805
0.0315171
0.031551
0.0315926
0.0316328
0.0316774
0.0317274
0.0317692
0.0318364
0.0318681
0.0319571
0.0319784
0.032087
0.0313962
0.0313991
0.0314039
0.0314135
0.0314235
0.0314386
0.0314549
0.0314744
0.0314978
0.0315211
0.0315513
0.0315791
0.0316153
0.0316484
0.0316896
0.0317289
0.0317732
0.0318218
0.031864
0.0319288
0.0319618
0.0320475
0.0320696
0.0321762
0.031508
0.0315108
0.0315155
0.031525
0.0315349
0.0315497
0.0315657
0.031585
0.031608
0.0316309
0.0316607
0.031688
0.0317236
0.0317561
0.0317967
0.0318351
0.0318791
0.0319262
0.0319688
0.0320312
0.0320648
0.0321481
0.0321704
0.0322749
0.0316303
0.0316331
0.0316377
0.031647
0.0316567
0.0316714
0.031687
0.031706
0.0317286
0.0317511
0.0317804
0.0318072
0.0318423
0.031874
0.0319142
0.0319515
0.0319951
0.0320407
0.0320836
0.0321436
0.0321776
0.0322587
0.032281
0.0323833
0.0317632
0.0317659
0.0317704
0.0317797
0.0317892
0.0318036
0.0318189
0.0318376
0.0318597
0.0318818
0.0319106
0.0319367
0.0319713
0.0320022
0.0320418
0.0320781
0.0321212
0.0321654
0.0322084
0.032266
0.0323007
0.0323789
0.0324013
0.0325013
0.0319068
0.0319095
0.0319139
0.0319231
0.0319323
0.0319465
0.0319614
0.0319798
0.0320014
0.032023
0.0320512
0.0320768
0.0321107
0.0321409
0.0321799
0.0322151
0.0322577
0.0323003
0.0323433
0.0323985
0.0324336
0.0325093
0.0325317
0.0326291
0.0320612
0.0320639
0.0320682
0.0320772
0.0320861
0.0321001
0.0321146
0.0321326
0.0321537
0.0321748
0.0322024
0.0322274
0.0322606
0.03229
0.0323283
0.0323624
0.0324044
0.0324455
0.0324883
0.0325411
0.0325767
0.0326493
0.0326722
0.0327669
0.0322265
0.0322292
0.0322333
0.0322422
0.0322508
0.0322645
0.0322787
0.0322962
0.0323168
0.0323374
0.0323643
0.0323886
0.0324211
0.0324496
0.0324871
0.0325202
0.0325615
0.0326011
0.0326435
0.032694
0.0327298
0.0327996
0.0328228
0.0329145
0.0324027
0.0324054
0.0324094
0.0324181
0.0324265
0.0324399
0.0324536
0.0324707
0.0324908
0.0325107
0.032537
0.0325605
0.0325922
0.0326198
0.0326566
0.0326884
0.032729
0.0327671
0.0328091
0.0328571
0.0328934
0.03296
0.0329836
0.0330723
0.0325901
0.0325927
0.0325966
0.0326051
0.0326132
0.0326263
0.0326396
0.0326562
0.0326756
0.032695
0.0327205
0.0327432
0.0327741
0.0328007
0.0328366
0.0328672
0.0329071
0.0329436
0.032985
0.0330307
0.033067
0.0331307
0.0331546
0.0332402
0.0327887
0.0327913
0.032795
0.0328033
0.0328111
0.0328238
0.0328366
0.0328528
0.0328715
0.0328902
0.032915
0.0329368
0.0329669
0.0329924
0.0330274
0.0330567
0.0330957
0.0331306
0.0331714
0.0332147
0.0332512
0.0333117
0.033336
0.0334183
0.0329986
0.0330011
0.0330047
0.0330128
0.0330202
0.0330326
0.0330448
0.0330605
0.0330786
0.0330966
0.0331206
0.0331415
0.0331707
0.0331951
0.0332291
0.0332571
0.0332951
0.0333283
0.0333684
0.0334093
0.0334458
0.0335032
0.0335277
0.0336067
0.0332199
0.0332224
0.0332258
0.0332336
0.0332407
0.0332526
0.0332644
0.0332794
0.0332969
0.0333141
0.0333373
0.0333573
0.0333855
0.0334088
0.0334418
0.0334684
0.0335053
0.0335368
0.0335761
0.0336147
0.033651
0.0337052
0.0337299
0.0338055
0.0334527
0.0334551
0.0334583
0.033466
0.0334726
0.0334842
0.0334953
0.0335098
0.0335265
0.033543
0.0335652
0.0335843
0.0336115
0.0336336
0.0336655
0.0336907
0.0337266
0.0337563
0.0337946
0.0338309
0.033867
0.0339178
0.0339427
0.0340147
0.0336971
0.0336995
0.0337025
0.0337099
0.0337161
0.0337272
0.0337378
0.0337517
0.0337676
0.0337832
0.0338046
0.0338227
0.0338488
0.0338697
0.0339005
0.0339243
0.0339589
0.0339869
0.0340241
0.034058
0.0340938
0.0341413
0.0341662
0.0342345
0.0339531
0.0339555
0.0339583
0.0339655
0.0339713
0.033982
0.0339919
0.0340051
0.0340202
0.034035
0.0340554
0.0340725
0.0340975
0.0341172
0.0341468
0.0341691
0.0342025
0.0342286
0.0342648
0.0342963
0.0343316
0.0343757
0.0344005
0.034465
0.034221
0.0342233
0.0342259
0.0342328
0.0342382
0.0342484
0.0342577
0.0342703
0.0342845
0.0342985
0.0343179
0.0343338
0.0343578
0.0343761
0.0344045
0.0344252
0.0344575
0.0344817
0.0345167
0.0345459
0.0345805
0.0346212
0.0346459
0.0347065
0.0345007
0.0345029
0.0345054
0.034512
0.034517
0.0345267
0.0345354
0.0345472
0.0345607
0.0345737
0.0345921
0.0346069
0.0346297
0.0346466
0.0346738
0.0346929
0.0347239
0.0347463
0.03478
0.0348068
0.0348407
0.0348779
0.0349026
0.0349594
0.0347923
0.0347945
0.0347967
0.0348031
0.0348077
0.0348169
0.0348249
0.0348361
0.0348487
0.0348608
0.0348781
0.0348918
0.0349133
0.0349289
0.0349548
0.0349723
0.0350019
0.0350224
0.0350548
0.0350793
0.0351122
0.0351459
0.0351705
0.0352233
0.035096
0.0350981
0.0351001
0.0351063
0.0351104
0.0351192
0.0351265
0.035137
0.0351487
0.0351598
0.0351761
0.0351886
0.0352089
0.0352231
0.0352476
0.0352634
0.0352916
0.0353101
0.0353412
0.0353633
0.0353952
0.0354253
0.0354494
0.035499
0.0354117
0.0354138
0.0354156
0.0354215
0.0354252
0.0354335
0.0354401
0.0354499
0.0354607
0.035471
0.0354862
0.0354975
0.0355166
0.0355293
0.0355524
0.0355665
0.0355932
0.0356097
0.0356394
0.0356591
0.0356899
0.0357165
0.0357407
0.0357856
0.0357397
0.0357418
0.0357434
0.0357489
0.0357522
0.03576
0.0357659
0.035775
0.035785
0.0357942
0.0358084
0.0358185
0.0358364
0.0358476
0.0358693
0.0358817
0.0359069
0.0359214
0.0359496
0.0359668
0.0359965
0.0360196
0.036044
0.0360836
0.03608
0.036082
0.0360834
0.0360887
0.0360914
0.0360988
0.036104
0.0361124
0.0361215
0.0361298
0.0361429
0.0361518
0.0361684
0.0361782
0.0361985
0.0362091
0.0362329
0.0362452
0.0362719
0.0362865
0.0363149
0.036335
0.0363588
0.0363942
0.0364327
0.0364346
0.0364358
0.0364408
0.0364431
0.0364499
0.0364545
0.0364622
0.0364703
0.0364777
0.0364897
0.0364974
0.0365128
0.0365211
0.0365401
0.0365489
0.0365712
0.0365813
0.0366065
0.0366186
0.0366457
0.0366623
0.0366859
0.0367166
0.0367978
0.0367997
0.0368007
0.0368055
0.0368073
0.0368136
0.0368175
0.0368244
0.0368317
0.0368381
0.036849
0.0368555
0.0368697
0.0368765
0.0368941
0.0369012
0.036922
0.03693
0.0369537
0.0369631
0.0369886
0.0370021
0.0370254
0.0370512
0.0371755
0.0371774
0.0371781
0.0371826
0.037184
0.0371899
0.0371931
0.0371993
0.0372056
0.0372111
0.0372209
0.0372262
0.0372391
0.0372445
0.0372607
0.037266
0.0372854
0.0372912
0.0373134
0.0373202
0.0373444
0.0373544
0.0373771
0.0373983
0.0375659
0.0375677
0.0375682
0.0375725
0.0375734
0.0375788
0.0375813
0.0375868
0.0375923
0.0375968
0.0376055
0.0376096
0.0376212
0.0376251
0.03764
0.0376435
0.0376614
0.0376651
0.0376859
0.0376901
0.0377128
0.0377197
0.0377414
0.0377578
0.037969
0.0379707
0.0379711
0.0379751
0.0379756
0.0379805
0.0379824
0.0379872
0.0379918
0.0379953
0.038003
0.0380058
0.0380162
0.0380186
0.0380321
0.0380338
0.0380502
0.0380517
0.0380711
0.0380728
0.0380941
0.0380978
0.0381183
0.03813
0.0383849
0.0383866
0.0383868
0.0383905
0.0383906
0.0383951
0.0383963
0.0384004
0.0384042
0.0384068
0.0384134
0.038415
0.0384241
0.038425
0.0384371
0.038437
0.0384519
0.0384513
0.0384692
0.0384682
0.0384882
0.0384888
0.0385084
0.0385151
0.0388139
0.0388155
0.0388155
0.038819
0.0388186
0.0388227
0.0388232
0.0388267
0.0388296
0.0388312
0.0388368
0.0388373
0.0388452
0.0388446
0.0388552
0.0388533
0.0388667
0.0388638
0.0388802
0.0388766
0.0388953
0.0388927
0.0389114
0.0389133
0.0392559
0.0392575
0.0392573
0.0392606
0.0392598
0.0392634
0.0392633
0.0392661
0.0392681
0.0392689
0.0392734
0.0392727
0.0392793
0.0392773
0.0392866
0.0392828
0.0392947
0.0392896
0.0393045
0.0392981
0.0393153
0.0393096
0.0393273
0.039325
0.0397112
0.0397128
0.0397124
0.0397154
0.0397141
0.0397173
0.0397165
0.0397187
0.0397198
0.0397197
0.0397232
0.0397213
0.0397268
0.0397232
0.0397312
0.0397256
0.0397361
0.0397287
0.0397421
0.0397329
0.0397488
0.0397396
0.039756
0.0397501
0.0401798
0.0401814
0.0401808
0.0401836
0.0401819
0.0401846
0.0401832
0.0401846
0.0401849
0.0401839
0.0401863
0.0401833
0.0401875
0.0401825
0.0401892
0.0401817
0.0401908
0.0401812
0.0401933
0.0401811
0.0401957
0.0401831
0.0401984
0.0401881
0.0406619
0.0406635
0.0406627
0.0406652
0.0406631
0.0406653
0.0406633
0.040664
0.0406635
0.0406615
0.0406629
0.0406587
0.0406617
0.0406552
0.0406606
0.0406513
0.0406591
0.0406471
0.040658
0.0406429
0.0406565
0.04064
0.0406545
0.0406395
0.0411577
0.0411591
0.0411581
0.0411604
0.0411578
0.0411597
0.0411569
0.041157
0.0411556
0.0411527
0.041153
0.0411476
0.0411494
0.0411415
0.0411455
0.0411344
0.0411408
0.0411265
0.0411362
0.0411182
0.0411308
0.0411108
0.0411245
0.0411047
0.041667
0.0416685
0.0416673
0.0416693
0.0416663
0.0416677
0.0416642
0.0416637
0.0416613
0.0416575
0.0416568
0.0416502
0.0416508
0.0416413
0.0416441
0.0416311
0.0416361
0.0416196
0.0416281
0.0416072
0.0416189
0.0415951
0.0416082
0.041584
0.0421902
0.0421916
0.0421902
0.042192
0.0421885
0.0421894
0.0421853
0.042184
0.0421808
0.0421761
0.0421743
0.0421665
0.0421658
0.0421549
0.0421563
0.0421414
0.0421452
0.0421263
0.0421335
0.0421097
0.0421205
0.0420931
0.0421058
0.0420767
0.0427271
0.0427285
0.0427269
0.0427284
0.0427245
0.042725
0.0427201
0.0427182
0.0427141
0.0427084
0.0427055
0.0426965
0.0426947
0.0426822
0.0426823
0.0426656
0.042668
0.0426467
0.0426528
0.0426259
0.0426361
0.0426046
0.0426174
0.042583
0.0432779
0.0432793
0.0432774
0.0432787
0.0432743
0.0432743
0.0432688
0.0432662
0.0432612
0.0432546
0.0432506
0.0432404
0.0432374
0.0432234
0.0432222
0.0432035
0.0432047
0.0431809
0.043186
0.0431559
0.0431653
0.04313
0.0431428
0.0431034
0.0438426
0.0438439
0.0438418
0.0438429
0.043838
0.0438376
0.0438314
0.0438281
0.0438222
0.0438146
0.0438096
0.0437982
0.043794
0.0437784
0.043776
0.0437554
0.0437553
0.043729
0.0437333
0.0436998
0.0437088
0.0436685
0.0436826
0.0436378
0.044421
0.0444223
0.04442
0.0444209
0.0444155
0.0444147
0.0444077
0.0444038
0.044397
0.0443885
0.0443825
0.0443698
0.0443644
0.0443473
0.0443437
0.0443211
0.04432
0.044291
0.0442945
0.0442577
0.0442664
0.0442215
0.0442359
0.0441862
0.0450132
0.0450145
0.045012
0.0450126
0.0450068
0.0450055
0.0449979
0.0449933
0.0449857
0.0449762
0.0449692
0.0449553
0.0449488
0.04493
0.0449253
0.0449006
0.0448986
0.0448669
0.0448697
0.0448295
0.0448383
0.0447888
0.0448028
0.0447488
0.0456191
0.0456203
0.0456177
0.0456181
0.0456118
0.0456101
0.0456018
0.0455966
0.0455881
0.0455777
0.0455698
0.0455545
0.0455471
0.0455266
0.0455209
0.0454941
0.0454914
0.0454568
0.0454593
0.0454144
0.0454244
0.0453705
0.0453842
0.0453256
0.0462385
0.0462397
0.0462369
0.0462371
0.0462303
0.0462283
0.0462194
0.0462135
0.0462042
0.0461929
0.0461841
0.0461675
0.0461593
0.0461369
0.0461305
0.0461012
0.0460983
0.0460605
0.0460631
0.046014
0.0460239
0.0459665
0.0459794
0.0459167
0.0468714
0.0468725
0.0468695
0.0468695
0.0468623
0.04686
0.0468504
0.0468439
0.0468339
0.0468216
0.0468121
0.0467941
0.0467853
0.0467609
0.0467542
0.046722
0.0467195
0.0466771
0.0466812
0.0466285
0.0466369
0.0465766
0.046589
0.0465221
0.0475175
0.0475186
0.0475154
0.0475152
0.0475076
0.0475049
0.0474948
0.0474877
0.0474771
0.0474637
0.0474537
0.0474341
0.0474251
0.0473983
0.0473919
0.0473562
0.0473547
0.0473089
0.047312
0.0472569
0.0472646
0.0472011
0.0472125
0.0471418
0.0481765
0.0481777
0.0481744
0.048174
0.048166
0.0481631
0.0481523
0.0481447
0.0481335
0.048119
0.0481089
0.0480873
0.0480788
0.0480491
0.0480432
0.0480048
0.0480022
0.0479552
0.0479565
0.0478996
0.0479057
0.0478397
0.0478504
0.0477758
0.0488484
0.0488497
0.0488461
0.0488458
0.0488373
0.0488342
0.0488228
0.0488146
0.0488032
0.0487873
0.0487776
0.0487535
0.0487457
0.0487135
0.0487074
0.0486675
0.0486636
0.0486147
0.0486152
0.048556
0.0485613
0.0484923
0.0485023
0.0484241
0.0495329
0.0495343
0.0495303
0.0495302
0.0495212
0.0495181
0.0495061
0.0494972
0.049486
0.0494685
0.0494589
0.0494337
0.0494248
0.0493919
0.0493846
0.0493435
0.0493386
0.0492885
0.0492871
0.0492265
0.0492303
0.0491591
0.0491683
0.0490865
0.0502298
0.0502313
0.050227
0.0502271
0.0502174
0.0502145
0.0502019
0.0501928
0.0501809
0.0501631
0.0501526
0.0501268
0.0501171
0.0500834
0.0500748
0.0500331
0.0500267
0.0499752
0.049973
0.0499105
0.0499134
0.0498396
0.0498481
0.0497631
0.0509389
0.0509404
0.0509361
0.050936
0.0509262
0.050923
0.0509097
0.0509014
0.050888
0.0508702
0.0508589
0.0508326
0.0508221
0.0507877
0.0507782
0.0507355
0.0507282
0.0506756
0.0506719
0.0506081
0.0506097
0.050534
0.0505417
0.0504535
0.05166
0.0516615
0.0516573
0.051657
0.0516471
0.0516438
0.05163
0.0516219
0.051607
0.0515902
0.0515774
0.051551
0.0515397
0.0515048
0.0514942
0.051451
0.0514424
0.0513888
0.0513842
0.0513189
0.0513196
0.0512417
0.0512487
0.0511577
0.052393
0.0523945
0.0523903
0.0523899
0.05238
0.0523765
0.0523625
0.0523543
0.0523385
0.0523223
0.0523078
0.0522821
0.0522694
0.0522343
0.0522228
0.052179
0.0521695
0.052115
0.0521092
0.0520427
0.0520424
0.0519628
0.0519691
0.0518753
0.0531377
0.0531393
0.053135
0.0531346
0.0531245
0.0531211
0.0531067
0.0530985
0.0530821
0.0530662
0.0530504
0.0530254
0.0530109
0.0529764
0.0529636
0.0529195
0.0529089
0.0528536
0.0528469
0.0527792
0.052778
0.0526966
0.0527023
0.0526061
0.0538941
0.0538957
0.0538914
0.053891
0.0538808
0.0538773
0.0538627
0.0538545
0.0538375
0.0538219
0.0538051
0.0537805
0.053765
0.0537301
0.0537166
0.0536719
0.0536604
0.0536045
0.0535968
0.0535281
0.0535259
0.0534432
0.0534481
0.0533497
0.0546622
0.0546638
0.0546595
0.0546592
0.0546488
0.0546453
0.0546304
0.0546222
0.0546047
0.0545892
0.0545716
0.0545471
0.0545306
0.0544958
0.0544812
0.054436
0.0544237
0.0543671
0.0543586
0.0542889
0.0542859
0.0542017
0.0542061
0.0541057
0.0554419
0.0554436
0.0554392
0.055439
0.0554284
0.0554249
0.0554097
0.0554014
0.0553835
0.0553681
0.0553495
0.0553251
0.0553076
0.0552728
0.0552576
0.0552113
0.0551985
0.0551413
0.0551318
0.0550614
0.0550574
0.0549722
0.0549758
0.0548737
0.0562333
0.0562352
0.0562306
0.0562304
0.0562196
0.056216
0.0562005
0.056192
0.0561736
0.0561582
0.0561387
0.0561144
0.0560959
0.0560607
0.0560449
0.0559978
0.0559844
0.0559264
0.0559162
0.0558451
0.0558401
0.0557538
0.0557568
0.0556532
0.0570364
0.0570383
0.0570336
0.0570334
0.0570222
0.0570186
0.0570026
0.0569939
0.0569749
0.0569593
0.0569387
0.0569145
0.0568948
0.0568597
0.056843
0.0567949
0.0567811
0.0567223
0.0567112
0.0566395
0.0566336
0.0565466
0.0565488
0.0564439
0.0578509
0.0578529
0.057848
0.0578477
0.0578361
0.0578322
0.0578157
0.0578067
0.0577869
0.057771
0.0577493
0.0577252
0.0577042
0.0576689
0.0576514
0.0576024
0.0575883
0.0575285
0.0575166
0.0574445
0.0574376
0.0573498
0.0573515
0.0572455
0.0586763
0.0586783
0.0586731
0.0586726
0.0586607
0.0586564
0.0586393
0.0586297
0.0586093
0.0585929
0.0585701
0.0585461
0.0585232
0.0584885
0.058469
0.0584205
0.0584054
0.0583445
0.0583321
0.0582595
0.0582519
0.0581637
0.0581645
0.0580578
0.0595114
0.0595135
0.0595081
0.0595073
0.059495
0.0594902
0.0594726
0.0594625
0.0594413
0.0594243
0.0594006
0.0593766
0.0593519
0.0593177
0.0592958
0.0592487
0.0592321
0.0591705
0.0591574
0.0590847
0.0590762
0.0589876
0.0589879
0.0588806
0.0603547
0.0603568
0.0603514
0.0603503
0.0603378
0.0603326
0.0603146
0.060304
0.0602822
0.0602647
0.0602401
0.060216
0.0601897
0.0601564
0.0601322
0.0600862
0.0600678
0.060006
0.0599931
0.0599196
0.0599105
0.059822
0.0598215
0.0597139
0.0612042
0.0612063
0.0612009
0.0611998
0.0611872
0.0611819
0.0611637
0.0611529
0.0611309
0.0611131
0.0610881
0.061064
0.0610365
0.061004
0.0609779
0.0609331
0.0609118
0.0608532
0.060838
0.0607644
0.0607549
0.0606665
0.0606657
0.060558
0.0620576
0.0620597
0.0620545
0.0620536
0.0620413
0.0620363
0.0620184
0.0620078
0.0619861
0.0619685
0.0619436
0.0619198
0.0618919
0.0618603
0.0618326
0.0617897
0.0617661
0.0617091
0.0616932
0.0616192
0.0616097
0.0615218
0.0615207
0.0614131
0.062913
0.0629152
0.0629104
0.06291
0.0628983
0.0628941
0.0628769
0.0628673
0.0628464
0.0628299
0.0628057
0.0627829
0.0627554
0.062725
0.0626969
0.0626556
0.0626308
0.0625753
0.0625582
0.0624849
0.0624754
0.0623876
0.0623867
0.0622794
0.0637695
0.063772
0.0637677
0.0637681
0.0637573
0.0637543
0.0637385
0.0637304
0.063711
0.0636961
0.0636736
0.0636525
0.0636262
0.0635977
0.06357
0.0635312
0.0635053
0.0634525
0.0634332
0.0633631
0.0633524
0.0632648
0.0632639
0.0631571
0.064628
0.0646308
0.0646272
0.0646286
0.0646189
0.0646174
0.0646031
0.0645969
0.0645796
0.0645669
0.0645465
0.0645278
0.0645037
0.0644777
0.0644517
0.0644154
0.0643905
0.0643402
0.0643206
0.0642524
0.0642415
0.0641537
0.0641531
0.0640462
0.0654919
0.065495
0.0654919
0.0654942
0.0654855
0.0654856
0.0654728
0.0654686
0.0654533
0.0654429
0.0654249
0.065409
0.0653873
0.0653642
0.0653408
0.0653075
0.0652845
0.0652376
0.0652196
0.0651529
0.0651433
0.0650557
0.0650551
0.0649473
0.0663666
0.0663703
0.0663671
0.0663706
0.0663622
0.0663637
0.0663516
0.0663492
0.0663351
0.0663269
0.0663106
0.0662972
0.0662776
0.0662573
0.0662372
0.0662056
0.0661875
0.0661412
0.066128
0.0660628
0.0660572
0.0659704
0.0659712
0.0658627
0.06726
0.0672644
0.0672604
0.0672652
0.0672556
0.0672589
0.0672453
0.0672452
0.0672297
0.0672239
0.0672073
0.0671958
0.0671772
0.0671583
0.0671422
0.0671081
0.0670996
0.0670479
0.0670456
0.066977
0.0669788
0.0668946
0.0668988
0.066796
0.0681814
0.0681854
0.0681821
0.0681851
0.0681765
0.0681771
0.0681647
0.0681615
0.0681471
0.0681386
0.0681224
0.0681098
0.0680904
0.0680734
0.0680547
0.0680232
0.0680149
0.0679652
0.0679633
0.0678979
0.0679028
0.0678203
0.0678294
0.0677343
0.0691391
0.0691428
0.069139
0.0691409
0.0691308
0.0691297
0.0691151
0.0691097
0.0690926
0.0690814
0.0690625
0.0690471
0.069025
0.0690061
0.0689826
0.0689548
0.0689382
0.0688931
0.0688883
0.0688225
0.0688295
0.0687455
0.0687579
0.0686631
0.0701395
0.070143
0.0701382
0.0701389
0.0701267
0.0701233
0.0701057
0.0700968
0.0700758
0.0700604
0.0700367
0.0700165
0.0699893
0.0699656
0.0699362
0.0699052
0.0698817
0.0698354
0.0698258
0.0697567
0.0697636
0.0696745
0.0696893
0.0695904
0.0711861
0.0711898
0.0711836
0.0711833
0.0711686
0.0711629
0.0711415
0.0711293
0.0711031
0.0710831
0.0710532
0.0710272
0.0709927
0.0709622
0.0709245
0.0708863
0.0708547
0.0708007
0.0707852
0.0707071
0.0707116
0.0706139
0.0706293
0.070522
0.0722789
0.0722829
0.0722752
0.0722744
0.072257
0.0722497
0.0722243
0.0722096
0.0721775
0.0721548
0.0721164
0.0720867
0.0720423
0.0720051
0.071958
0.0719102
0.0718701
0.0718014
0.0717781
0.0716866
0.0716837
0.0715725
0.0715855
0.0714645
0.0734146
0.0734181
0.0734107
0.0734077
0.0733903
0.0733798
0.0733536
0.0733342
0.0733012
0.0732713
0.0732317
0.0731931
0.0731453
0.0730993
0.0730435
0.0729895
0.0729318
0.0728579
0.0728179
0.072713
0.0726956
0.0725659
0.0725706
0.0724275
0.0745864
0.0745897
0.0745823
0.0745787
0.0745605
0.0745491
0.0745214
0.0745005
0.0744653
0.0744331
0.0743905
0.0743485
0.0742965
0.0742456
0.0741841
0.0741234
0.0740543
0.0739803
0.0739116
0.0738093
0.0737654
0.0736181
0.0736063
0.0734301
0.0757866
0.0757897
0.0757824
0.0757787
0.0757602
0.0757487
0.0757205
0.0756992
0.0756632
0.0756302
0.0755866
0.0755431
0.0754897
0.0754366
0.0753726
0.0753087
0.0752358
0.0751572
0.0750787
0.0749781
0.0749045
0.0747603
0.0747213
0.0745075
0.0770062
0.0770094
0.0770023
0.076999
0.0769807
0.0769695
0.0769417
0.0769207
0.0768852
0.0768527
0.0768095
0.0767665
0.0767135
0.0766608
0.0765972
0.0765338
0.0764609
0.076383
0.0763035
0.0762045
0.076125
0.0759889
0.0759325
0.0757068
0.0782367
0.0782402
0.0782334
0.0782306
0.0782128
0.0782026
0.0781755
0.0781558
0.0781213
0.0780903
0.0780485
0.0780072
0.077956
0.0779055
0.0778441
0.0777832
0.077713
0.0776378
0.0775635
0.0774659
0.0773982
0.0772605
0.0772207
0.0770223
0.0794701
0.079474
0.0794675
0.0794655
0.0794485
0.0794394
0.0794135
0.0793953
0.0793624
0.0793334
0.0792936
0.0792549
0.0792062
0.0791587
0.0791005
0.0790433
0.0789768
0.0789066
0.0788365
0.0787447
0.0786827
0.0785527
0.0785159
0.078332
0.0806995
0.0807036
0.0806975
0.0806965
0.0806801
0.0806725
0.0806478
0.0806316
0.0806005
0.0805739
0.0805364
0.0805007
0.0804549
0.080411
0.0803564
0.0803033
0.080241
0.080176
0.0801107
0.0800255
0.079968
0.0798479
0.0798134
0.0796432
0.0819184
0.0819231
0.0819173
0.0819173
0.0819017
0.0818957
0.0818722
0.0818583
0.0818288
0.0818051
0.0817698
0.0817376
0.0816945
0.0816548
0.0816035
0.0815551
0.0814973
0.0814381
0.0813773
0.081298
0.0812463
0.0811353
0.0811032
0.0809469
0.0831225
0.0831274
0.0831215
0.0831232
0.0831076
0.083104
0.0830811
0.0830701
0.0830416
0.0830218
0.0829876
0.0829603
0.0829187
0.0828846
0.0828355
0.0827931
0.0827387
0.0826853
0.08263
0.0825563
0.0825091
0.0824082
0.0823783
0.0822356
0.0843068
0.0843122
0.0843063
0.0843093
0.0842941
0.0842926
0.0842703
0.0842625
0.0842346
0.084219
0.0841855
0.0841637
0.0841227
0.0840954
0.084047
0.0840123
0.0839597
0.0839129
0.0838618
0.0837957
0.0837518
0.0836608
0.0836332
0.0835039
0.0854681
0.0854737
0.0854686
0.0854715
0.0854586
0.0854569
0.0854378
0.0854299
0.0854063
0.0853908
0.0853624
0.0853413
0.0853057
0.0852801
0.0852371
0.0852058
0.0851579
0.0851171
0.0850685
0.0850109
0.0849703
0.0848891
0.0848637
0.0847473
0.0866034
0.0866093
0.0866049
0.0866082
0.0865965
0.0865957
0.0865786
0.0865718
0.0865511
0.0865368
0.0865124
0.0864925
0.086462
0.086438
0.0864007
0.0863717
0.0863294
0.0862932
0.0862486
0.0861997
0.0861608
0.0860894
0.0860661
0.0859622
0.0877111
0.0877167
0.0877128
0.0877166
0.087706
0.0877062
0.0876907
0.0876854
0.0876669
0.0876546
0.0876332
0.0876155
0.0875888
0.0875673
0.0875345
0.0875088
0.087471
0.0874395
0.0873985
0.0873578
0.0873217
0.0872587
0.0872376
0.0871457
0.0887885
0.0887939
0.0887906
0.0887949
0.0887852
0.0887864
0.0887724
0.0887687
0.0887522
0.0887418
0.088723
0.0887077
0.0886843
0.0886657
0.0886368
0.0886145
0.0885813
0.0885541
0.0885176
0.0884825
0.0884489
0.0883959
0.0883762
0.0882961
0.0898341
0.0898398
0.0898367
0.0898416
0.0898326
0.0898351
0.0898222
0.08982
0.0898054
0.0897969
0.0897806
0.0897676
0.0897474
0.0897314
0.0897063
0.0896873
0.0896581
0.089635
0.0896027
0.089574
0.0895419
0.0894988
0.0894798
0.0894112
0.0908474
0.0908528
0.0908503
0.0908554
0.0908476
0.0908505
0.0908393
0.0908382
0.0908255
0.0908188
0.0908048
0.090794
0.0907766
0.0907633
0.0907416
0.0907258
0.0907005
0.0906813
0.0906532
0.090629
0.0906007
0.0905653
0.0905484
0.09049
0.0918271
0.0918327
0.09183
0.0918364
0.0918281
0.0918333
0.0918219
0.0918232
0.0918114
0.0918068
0.0917947
0.0917861
0.0917714
0.0917606
0.091742
0.0917293
0.0917075
0.091692
0.0916676
0.0916482
0.0916235
0.0915952
0.0915803
0.0915311
0.092773
0.0927782
0.0927766
0.0927818
0.0927764
0.0927798
0.092772
0.0927724
0.0927636
0.0927597
0.0927502
0.0927433
0.0927311
0.0927228
0.0927071
0.0926972
0.0926788
0.0926667
0.0926459
0.0926308
0.0926095
0.0925882
0.0925741
0.0925339
0.0936845
0.0936901
0.0936872
0.0936957
0.0936867
0.0936957
0.0936842
0.0936897
0.0936794
0.0936789
0.0936701
0.0936656
0.0936555
0.0936495
0.0936365
0.0936293
0.0936139
0.0936051
0.0935878
0.0935766
0.093559
0.0935423
0.0935302
0.0934985
0.0945618
0.0945666
0.0945664
0.0945704
0.0945689
0.0945704
0.0945678
0.0945676
0.0945636
0.0945612
0.0945559
0.0945524
0.0945447
0.0945406
0.0945302
0.0945255
0.094513
0.0945072
0.0944929
0.0944856
0.0944708
0.0944594
0.0944485
0.0944249
0.0954049
0.0954105
0.0954074
0.0954174
0.0954081
0.0954202
0.0954084
0.0954179
0.0954083
0.0954118
0.0954054
0.0954048
0.0953984
0.0953965
0.0953883
0.095386
0.095376
0.095373
0.0953616
0.0953574
0.095346
0.0953382
0.0953301
0.0953133
0.0962141
0.0962184
0.0962194
0.0962224
0.0962238
0.0962243
0.0962257
0.0962249
0.0962252
0.0962239
0.0962224
0.0962215
0.0962177
0.0962173
0.0962113
0.096211
0.0962036
0.0962031
0.0961943
0.0961935
0.0961841
0.0961807
0.0961746
0.0961642
0.0969898
0.0969951
0.0969927
0.0970024
0.0969949
0.097007
0.0969974
0.0970082
0.0970007
0.0970068
0.0970026
0.0970052
0.0970021
0.0970037
0.0969995
0.0970013
0.096996
0.0969979
0.0969916
0.0969933
0.0969871
0.0969871
0.0969832
0.0969781
0.0977328
0.0977367
0.097738
0.0977415
0.0977431
0.0977452
0.0977475
0.0977482
0.0977506
0.097751
0.0977523
0.0977538
0.0977532
0.0977559
0.0977536
0.0977571
0.097754
0.097758
0.0977538
0.0977585
0.097754
0.0977576
0.0977558
0.0977555
0.0984431
0.0984479
0.098447
0.0984543
0.0984513
0.0984598
0.0984558
0.0984642
0.098461
0.0984674
0.0984662
0.0984708
0.0984706
0.098475
0.0984742
0.0984795
0.0984779
0.0984839
0.0984818
0.0984887
0.0984867
0.0984932
0.0984927
0.0984971
0.0991224
0.0991261
0.099127
0.0991322
0.0991319
0.0991379
0.0991379
0.0991428
0.0991443
0.0991481
0.0991503
0.0991545
0.0991561
0.0991615
0.0991621
0.0991688
0.099169
0.0991768
0.0991762
0.0991856
0.0991848
0.0991943
0.0991952
0.0992036
0.0997706
0.0997744
0.0997756
0.0997796
0.0997819
0.0997853
0.0997883
0.0997919
0.0997948
0.0997993
0.0998021
0.0998074
0.09981
0.0998164
0.0998183
0.0998264
0.0998278
0.0998372
0.0998382
0.0998493
0.0998503
0.0998623
0.099864
0.0998763
0.100389
0.100393
0.100393
0.1004
0.100398
0.100407
0.100405
0.100414
0.100413
0.100421
0.100423
0.10043
0.100433
0.100441
0.100444
0.100453
0.100456
0.100466
0.100469
0.100482
0.100484
0.100498
0.100501
0.100516
0.100979
0.100982
0.100984
0.100987
0.100992
0.100992
0.101
0.101
0.101008
0.101011
0.101017
0.101022
0.101027
0.101035
0.101039
0.101049
0.101053
0.101065
0.101069
0.101083
0.101086
0.101103
0.101106
0.101125
0.101541
0.101544
0.101545
0.101551
0.10155
0.101559
0.101557
0.101568
0.101567
0.101577
0.101579
0.101588
0.101592
0.101601
0.101606
0.101617
0.101622
0.101635
0.10164
0.101655
0.101659
0.101678
0.101681
0.101703
0.102076
0.102078
0.102081
0.102083
0.102088
0.10209
0.102097
0.102098
0.102107
0.10211
0.102118
0.102124
0.10213
0.10214
0.102146
0.102157
0.102163
0.102177
0.102182
0.102199
0.102204
0.102224
0.102227
0.102253
0.102584
0.102588
0.102589
0.102594
0.102595
0.102602
0.102603
0.102612
0.102613
0.102623
0.102627
0.102636
0.102642
0.102652
0.102658
0.102671
0.102677
0.102692
0.102698
0.102716
0.102721
0.102743
0.102747
0.102773
0.103069
0.103071
0.103074
0.103076
0.103081
0.103083
0.10309
0.103093
0.1031
0.103106
0.103113
0.103121
0.103128
0.103139
0.103145
0.103158
0.103165
0.103181
0.103187
0.103206
0.103212
0.103235
0.103241
0.103266
0.103529
0.103532
0.103532
0.103538
0.103539
0.103546
0.103548
0.103556
0.10356
0.103568
0.103574
0.103583
0.10359
0.103601
0.103608
0.103622
0.103629
0.103645
0.103653
0.103672
0.103679
0.103702
0.103707
0.103736
0.103966
0.103968
0.103971
0.103972
0.103978
0.10398
0.103987
0.103992
0.103998
0.104006
0.104012
0.104021
0.104028
0.10404
0.104048
0.104062
0.104069
0.104086
0.104094
0.104114
0.104121
0.104146
0.104151
0.10418
0.104381
0.104384
0.104385
0.10439
0.104391
0.104398
0.1044
0.104408
0.104413
0.104421
0.104428
0.104437
0.104445
0.104457
0.104465
0.104479
0.104487
0.104504
0.104513
0.104534
0.104541
0.104566
0.104572
0.104603
0.104776
0.104778
0.10478
0.104782
0.104787
0.10479
0.104797
0.104802
0.104808
0.104816
0.104823
0.104832
0.10484
0.104852
0.104861
0.104875
0.104884
0.104901
0.10491
0.104931
0.104939
0.104964
0.10497
0.105002
0.10515
0.105152
0.105154
0.105157
0.10516
0.105166
0.10517
0.105177
0.105182
0.105191
0.105197
0.105207
0.105215
0.105227
0.105236
0.105251
0.105259
0.105277
0.105286
0.105308
0.105316
0.105342
0.105348
0.105381
0.105506
0.105507
0.105509
0.105513
0.105515
0.105521
0.105525
0.105531
0.105538
0.105545
0.105553
0.105563
0.105571
0.105583
0.105592
0.105607
0.105615
0.105634
0.105643
0.105664
0.105673
0.105699
0.105705
0.105739
0.105843
0.105844
0.105847
0.105849
0.105853
0.105857
0.105862
0.105868
0.105874
0.105883
0.105889
0.1059
0.105908
0.10592
0.105929
0.105944
0.105953