/*--------------------------------*- C++ -*----------------------------------*\
  =========                 |
  \\      /  F ield         | OpenFOAM: The Open Source CFD Toolbox
   \\    /   O peration     | Website:  https://openfoam.org
    \\  /    A nd           | Version:  10
     \\/     M anipulation  |
\*---------------------------------------------------------------------------*/
FoamFile
{
    format      ascii;
    class       volScalarField;
    location    "0.34";
    object      T;
}
// * * * * * * * * * * * * * * * * * * * * * * * * * * * * * * * * * * * * * //

dimensions      [0 0 0 1 0 0 0];

internalField   nonuniform List<scalar> 
4176
(
180.347
180.351
180.372
180.382
180.426
180.445
180.506
180.538
180.613
180.66
180.749
180.809
180.913
180.985
181.1
181.192
181.307
181.43
181.534
181.703
181.777
182.01
182.026
182.325
180.356
180.36
180.382
180.393
180.436
180.457
180.518
180.552
180.628
180.677
180.767
180.829
180.935
181.01
181.127
181.221
181.339
181.464
181.571
181.743
181.819
182.062
182.08
182.41
180.384
180.389
180.409
180.42
180.462
180.483
180.542
180.576
180.649
180.698
180.785
180.846
180.95
181.022
181.139
181.229
181.346
181.467
181.572
181.74
181.811
182.049
182.068
182.408
180.436
180.44
180.461
180.471
180.514
180.534
180.594
180.627
180.7
180.749
180.837
180.897
181.002
181.073
181.19
181.28
181.399
181.522
181.621
181.794
181.863
182.097
182.114
182.439
180.511
180.515
180.536
180.546
180.588
180.608
180.667
180.7
180.772
180.82
180.907
180.966
181.07
181.14
181.257
181.345
181.464
181.586
181.683
181.857
181.924
182.156
182.173
182.487
180.61
180.614
180.635
180.645
180.686
180.706
180.765
180.797
180.869
180.917
181.002
181.062
181.164
181.234
181.35
181.436
181.558
181.673
181.776
181.945
182.014
182.244
182.264
182.578
180.733
180.737
180.758
180.768
180.809
180.828
180.886
180.918
180.989
181.036
181.121
181.18
181.281
181.349
181.465
181.549
181.671
181.781
181.889
182.051
182.123
182.349
182.371
182.684
180.88
180.884
180.904
180.914
180.955
180.974
181.031
181.063
181.132
181.18
181.263
181.321
181.421
181.489
181.603
181.686
181.808
181.914
182.024
182.181
182.255
182.477
182.501
182.809
181.051
181.055
181.075
181.084
181.125
181.143
181.2
181.231
181.3
181.347
181.429
181.486
181.585
181.651
181.764
181.845
181.967
182.069
182.181
182.332
182.409
182.626
182.651
182.955
181.245
181.249
181.269
181.278
181.318
181.336
181.392
181.423
181.491
181.537
181.618
181.674
181.772
181.837
181.949
182.028
182.149
182.248
182.36
182.506
182.586
182.796
182.823
183.122
181.463
181.467
181.487
181.496
181.535
181.553
181.608
181.638
181.706
181.751
181.83
181.886
181.982
182.046
182.156
182.233
182.353
182.449
182.562
182.703
182.783
182.989
183.017
183.31
181.705
181.709
181.729
181.737
181.776
181.794
181.848
181.877
181.944
181.988
182.066
182.121
182.215
182.278
182.386
182.462
182.58
182.673
182.786
182.922
183.003
183.204
183.232
183.52
181.971
181.975
181.994
182.002
182.041
182.058
182.111
182.14
182.205
182.248
182.325
182.379
182.471
182.533
182.639
182.713
182.83
182.919
183.033
183.163
183.246
183.439
183.469
183.751
182.26
182.264
182.283
182.291
182.329
182.345
182.398
182.426
182.49
182.532
182.608
182.66
182.751
182.811
182.916
182.987
183.102
183.189
183.302
183.427
183.51
183.699
183.728
184.004
182.573
182.577
182.596
182.603
182.641
182.656
182.709
182.735
182.798
182.839
182.914
182.964
183.054
183.111
183.215
183.284
183.397
183.481
183.593
183.713
183.797
183.979
184.008
184.278
182.91
182.914
182.932
182.939
182.976
182.991
183.043
183.068
183.13
183.17
183.243
183.292
183.379
183.435
183.536
183.603
183.714
183.795
183.906
184.022
184.105
184.282
184.311
184.573
183.271
183.274
183.292
183.299
183.336
183.35
183.4
183.425
183.485
183.523
183.595
183.642
183.728
183.782
183.881
183.946
184.055
184.132
184.242
184.352
184.436
184.605
184.635
184.891
183.655
183.659
183.676
183.683
183.718
183.732
183.781
183.805
183.864
183.901
183.97
184.016
184.1
184.152
184.248
184.311
184.417
184.492
184.6
184.705
184.788
184.952
184.982
185.23
184.063
184.066
184.084
184.09
184.125
184.137
184.186
184.208
184.266
184.301
184.369
184.413
184.494
184.544
184.639
184.698
184.802
184.874
184.98
185.08
185.163
185.319
185.35
185.591
184.495
184.498
184.515
184.52
184.555
184.566
184.614
184.635
184.691
184.725
184.791
184.833
184.912
184.96
185.051
185.109
185.21
185.279
185.382
185.477
185.559
185.709
185.74
185.973
184.95
184.953
184.97
184.975
185.009
185.019
185.065
185.085
185.14
185.172
185.236
185.276
185.352
185.398
185.487
185.541
185.64
185.705
185.806
185.896
185.977
186.121
186.152
186.377
185.429
185.432
185.449
185.453
185.486
185.495
185.54
185.559
185.612
185.642
185.704
185.742
185.816
185.859
185.945
185.997
186.093
186.154
186.252
186.338
186.418
186.555
186.585
186.803
185.932
185.935
185.951
185.954
185.987
185.995
186.039
186.056
186.107
186.135
186.195
186.231
186.303
186.343
186.427
186.475
186.568
186.626
186.721
186.802
186.88
187.01
187.04
187.25
186.458
186.461
186.477
186.479
186.511
186.518
186.561
186.576
186.625
186.652
186.709
186.743
186.812
186.85
186.93
186.976
187.065
187.12
187.211
187.288
187.365
187.488
187.517
187.719
187.008
187.01
187.026
187.028
187.058
187.064
187.106
187.119
187.167
187.191
187.247
187.278
187.344
187.38
187.457
187.499
187.586
187.636
187.725
187.796
187.871
187.987
188.015
188.209
187.581
187.583
187.598
187.6
187.629
187.634
187.674
187.686
187.732
187.754
187.807
187.835
187.9
187.932
188.006
188.045
188.128
188.175
188.26
188.327
188.399
188.509
188.535
188.721
188.177
188.179
188.193
188.194
188.223
188.227
188.265
188.275
188.319
188.34
188.39
188.416
188.477
188.507
188.578
188.614
188.693
188.736
188.818
188.88
188.95
189.052
189.077
189.255
188.796
188.798
188.812
188.812
188.84
188.842
188.879
188.888
188.93
188.948
188.996
189.02
189.078
189.104
189.172
189.204
189.281
189.32
189.398
189.455
189.522
189.617
189.642
189.811
189.437
189.44
189.453
189.453
189.479
189.481
189.516
189.523
189.563
189.579
189.625
189.646
189.701
189.725
189.789
189.818
189.891
189.926
190
190.053
190.116
190.205
190.229
190.387
190.102
190.104
190.117
190.116
190.141
190.142
190.176
190.181
190.219
190.233
190.276
190.294
190.347
190.367
190.429
190.454
190.523
190.554
190.625
190.673
190.733
190.814
190.837
190.986
190.789
190.791
190.803
190.801
190.826
190.825
190.858
190.861
190.898
190.909
190.95
190.966
191.015
191.032
191.091
191.112
191.177
191.204
191.271
191.314
191.371
191.446
191.465
191.609
191.498
191.5
191.512
191.509
191.533
191.531
191.562
191.564
191.598
191.608
191.646
191.659
191.706
191.72
191.775
191.792
191.854
191.877
191.94
191.978
192.031
192.099
192.118
192.251
192.23
192.231
192.243
192.239
192.262
192.259
192.289
192.289
192.321
192.329
192.365
192.375
192.419
192.43
192.481
192.495
192.553
192.572
192.631
192.664
192.713
192.775
192.792
192.916
192.983
192.984
192.995
192.991
193.013
193.009
193.037
193.035
193.066
193.071
193.105
193.112
193.154
193.161
193.21
193.22
193.275
193.289
193.344
193.372
193.417
193.473
193.488
193.603
193.758
193.759
193.77
193.765
193.786
193.78
193.807
193.804
193.833
193.836
193.867
193.872
193.911
193.915
193.96
193.967
194.018
194.028
194.079
194.103
194.143
194.193
194.206
194.312
194.554
194.555
194.565
194.56
194.58
194.573
194.599
194.594
194.621
194.622
194.651
194.653
194.689
194.69
194.733
194.735
194.783
194.789
194.836
194.855
194.892
194.935
194.945
195.042
195.371
195.373
195.382
195.376
195.396
195.388
195.412
195.405
195.43
195.429
195.456
195.456
195.489
195.487
195.526
195.525
195.57
195.572
195.615
195.629
195.662
195.7
195.707
195.794
196.21
196.211
196.22
196.214
196.232
196.223
196.246
196.238
196.261
196.258
196.283
196.28
196.31
196.306
196.342
196.337
196.378
196.376
196.416
196.425
196.455
196.486
196.489
196.568
197.069
197.07
197.079
197.072
197.09
197.079
197.101
197.092
197.113
197.108
197.131
197.125
197.153
197.145
197.178
197.17
197.208
197.201
197.238
197.242
197.268
197.294
197.294
197.364
197.949
197.95
197.958
197.951
197.968
197.957
197.977
197.966
197.986
197.979
197.999
197.992
198.017
198.006
198.036
198.024
198.059
198.047
198.081
198.08
198.103
198.123
198.12
198.181
198.85
198.85
198.858
198.85
198.866
198.854
198.873
198.861
198.879
198.87
198.888
198.878
198.901
198.887
198.915
198.899
198.931
198.915
198.945
198.939
198.958
198.972
198.967
199.02
199.77
199.771
199.779
199.77
199.785
199.772
199.79
199.776
199.793
199.782
199.798
199.786
199.806
199.789
199.814
199.795
199.824
199.803
199.83
199.819
199.835
199.843
199.834
199.881
200.711
200.712
200.719
200.71
200.724
200.71
200.727
200.712
200.726
200.714
200.728
200.713
200.731
200.712
200.734
200.711
200.737
200.712
200.736
200.72
200.733
200.734
200.723
200.761
201.672
201.672
201.679
201.669
201.683
201.668
201.683
201.667
201.68
201.666
201.678
201.661
201.676
201.654
201.673
201.647
201.671
201.642
201.663
201.641
201.652
201.646
201.632
201.662
202.652
202.652
202.659
202.649
202.661
202.645
202.66
202.642
202.653
202.637
202.647
202.628
202.641
202.616
202.633
202.603
202.624
202.591
202.609
202.582
202.59
202.579
202.563
202.585
203.651
203.652
203.658
203.647
203.659
203.642
203.655
203.636
203.646
203.628
203.636
203.615
203.625
203.598
203.611
203.579
203.597
203.56
203.576
203.543
203.55
203.53
203.514
203.527
204.67
204.67
204.676
204.665
204.676
204.658
204.67
204.649
204.658
204.638
204.644
204.62
204.629
204.598
204.61
204.573
204.589
204.548
204.561
204.524
204.528
204.502
204.486
204.489
205.707
205.707
205.713
205.701
205.711
205.693
205.703
205.681
205.688
205.667
205.671
205.645
205.651
205.618
205.627
205.587
205.6
205.555
205.566
205.523
205.526
205.492
205.477
205.47
206.762
206.762
206.768
206.755
206.765
206.745
206.755
206.732
206.737
206.714
206.716
206.688
206.692
206.656
206.662
206.619
206.63
206.581
206.59
206.541
206.543
206.502
206.486
206.471
207.835
207.835
207.84
207.827
207.837
207.816
207.824
207.8
207.803
207.779
207.779
207.749
207.751
207.712
207.717
207.67
207.679
207.625
207.632
207.576
207.58
207.53
207.514
207.491
208.926
208.926
208.93
208.917
208.925
208.904
208.911
208.886
208.888
208.861
208.86
208.827
208.827
208.786
208.789
208.738
208.746
208.686
208.693
208.63
208.635
208.575
208.561
208.529
210.033
210.033
210.037
210.023
210.031
210.009
210.015
209.988
209.989
209.961
209.957
209.923
209.921
209.877
209.878
209.823
209.83
209.765
209.772
209.703
209.707
209.641
209.625
209.586
211.156
211.156
211.16
211.146
211.153
211.13
211.135
211.107
211.106
211.077
211.072
211.035
211.032
210.985
210.985
210.926
210.931
210.86
210.87
210.793
210.796
210.723
210.708
210.66
212.295
212.294
212.298
212.283
212.29
212.266
212.27
212.241
212.239
212.208
212.202
212.164
212.159
212.109
212.108
212.044
212.05
211.974
211.982
211.899
211.903
211.824
211.806
211.753
213.448
213.448
213.451
213.436
213.442
213.418
213.421
213.391
213.388
213.355
213.348
213.307
213.301
213.248
213.247
213.179
213.185
213.103
213.111
213.024
213.025
212.941
212.923
212.862
214.616
214.615
214.619
214.603
214.608
214.583
214.586
214.555
214.551
214.517
214.509
214.465
214.46
214.401
214.403
214.328
214.335
214.247
214.256
214.164
214.164
214.075
214.056
213.989
215.796
215.796
215.799
215.783
215.788
215.763
215.765
215.732
215.728
215.692
215.684
215.637
215.632
215.57
215.571
215.493
215.5
215.41
215.414
215.32
215.318
215.225
215.205
215.132
216.99
216.989
216.992
216.977
216.981
216.955
216.956
216.922
216.918
216.88
216.872
216.822
216.818
216.754
216.753
216.674
216.677
216.585
216.59
216.491
216.488
216.391
216.369
216.29
218.195
218.195
218.197
218.182
218.185
218.159
218.159
218.125
218.121
218.081
218.073
218.022
218.016
217.95
217.949
217.867
217.87
217.776
217.777
217.676
217.672
217.571
217.549
217.464
219.411
219.411
219.413
219.398
219.401
219.375
219.374
219.34
219.334
219.294
219.285
219.233
219.226
219.16
219.156
219.074
219.074
218.978
218.98
218.875
218.87
218.765
218.742
218.653
220.638
220.638
220.64
220.624
220.627
220.601
220.6
220.567
220.559
220.519
220.509
220.456
220.448
220.381
220.377
220.292
220.292
220.195
220.193
220.088
220.081
219.973
219.95
219.855
221.875
221.875
221.877
221.861
221.864
221.837
221.836
221.803
221.793
221.755
221.742
221.691
221.681
221.613
221.608
221.523
221.521
221.422
221.42
221.312
221.304
221.194
221.17
221.071
223.121
223.121
223.124
223.107
223.11
223.083
223.082
223.049
223.038
223.001
222.986
222.936
222.924
222.856
222.85
222.764
222.761
222.661
222.658
222.548
222.539
222.426
222.402
222.299
224.377
224.376
224.379
224.362
224.365
224.339
224.336
224.304
224.292
224.256
224.239
224.19
224.176
224.11
224.102
224.015
224.011
223.91
223.906
223.795
223.785
223.67
223.645
223.539
225.64
225.64
225.643
225.626
225.629
225.602
225.6
225.568
225.555
225.52
225.501
225.453
225.437
225.372
225.362
225.275
225.27
225.168
225.163
225.052
225.04
224.924
224.898
224.789
226.913
226.913
226.915
226.899
226.902
226.875
226.872
226.84
226.827
226.792
226.772
226.725
226.708
226.642
226.63
226.545
226.538
226.435
226.43
226.317
226.305
226.186
226.161
226.048
228.193
228.193
228.196
228.179
228.182
228.155
228.152
228.119
228.106
228.071
228.05
228.004
227.985
227.92
227.907
227.821
227.814
227.71
227.704
227.589
227.577
227.457
227.431
227.316
229.481
229.481
229.484
229.467
229.47
229.442
229.44
229.407
229.393
229.358
229.335
229.289
229.27
229.204
229.19
229.105
229.096
228.992
228.985
228.869
228.857
228.735
228.709
228.592
230.777
230.777
230.779
230.762
230.765
230.737
230.734
230.701
230.686
230.651
230.627
230.582
230.559
230.495
230.479
230.394
230.384
230.28
230.272
230.155
230.142
230.021
229.994
229.875
232.079
232.079
232.081
232.064
232.066
232.038
232.034
232
231.985
231.95
231.924
231.879
231.855
231.791
231.773
231.688
231.678
231.574
231.564
231.447
231.433
231.311
231.285
231.164
233.386
233.387
233.389
233.371
233.373
233.344
233.34
233.305
233.289
233.253
233.226
233.182
233.154
233.092
233.072
232.987
232.975
232.872
232.862
232.743
232.73
232.607
232.58
232.459
234.697
234.697
234.699
234.681
234.683
234.653
234.648
234.613
234.596
234.56
234.531
234.487
234.458
234.397
234.374
234.291
234.276
234.175
234.163
234.045
234.031
233.908
233.882
233.76
236.008
236.008
236.01
235.992
235.994
235.963
235.958
235.922
235.905
235.868
235.839
235.796
235.764
235.705
235.679
235.599
235.582
235.48
235.468
235.352
235.337
235.214
235.188
235.066
237.317
237.317
237.319
237.3
237.303
237.272
237.268
237.232
237.215
237.178
237.149
237.106
237.073
237.015
236.987
236.91
236.89
236.791
236.775
236.664
236.647
236.524
236.499
236.377
238.619
238.619
238.622
238.604
238.607
238.577
238.574
238.538
238.522
238.487
238.458
238.417
238.384
238.328
238.298
238.225
238.201
238.107
238.088
237.979
237.962
237.841
237.816
237.694
239.914
239.914
239.918
239.9
239.905
239.876
239.874
239.841
239.826
239.793
239.766
239.727
239.695
239.642
239.613
239.541
239.518
239.426
239.408
239.298
239.283
239.162
239.138
239.017
241.2
241.201
241.206
241.189
241.195
241.168
241.169
241.138
241.126
241.096
241.071
241.035
241.006
240.957
240.928
240.862
240.837
240.752
240.732
240.624
240.609
240.49
240.467
240.346
242.481
242.482
242.488
242.473
242.48
242.456
242.459
242.43
242.422
242.395
242.374
242.342
242.316
242.271
242.246
242.184
242.162
242.079
242.06
241.958
241.943
241.823
241.802
241.681
243.762
243.764
243.77
243.756
243.765
243.743
243.748
243.722
243.716
243.693
243.675
243.647
243.625
243.584
243.563
243.505
243.487
243.409
243.395
243.293
243.284
243.165
243.146
243.023
245.053
245.055
245.061
245.049
245.058
245.038
245.042
245.02
245.014
244.994
244.978
244.954
244.933
244.897
244.881
244.824
244.815
244.735
244.73
244.631
244.628
244.511
244.496
244.376
246.364
246.367
246.373
246.361
246.369
246.349
246.354
246.331
246.326
246.306
246.29
246.267
246.247
246.213
246.199
246.143
246.14
246.058
246.066
245.963
245.969
245.856
245.847
245.736
247.708
247.71
247.717
247.702
247.711
247.688
247.692
247.666
247.66
247.637
247.62
247.595
247.574
247.541
247.523
247.47
247.465
247.385
247.394
247.294
247.304
247.192
247.189
247.084
249.094
249.096
249.101
249.085
249.092
249.066
249.067
249.038
249.028
249.001
248.979
248.95
248.923
248.887
248.862
248.81
248.796
248.721
248.723
248.622
248.635
248.519
248.521
248.415
250.529
250.53
250.534
250.517
250.521
250.491
250.489
250.454
250.439
250.406
250.377
250.341
250.307
250.263
250.229
250.173
250.148
250.07
250.063
249.956
249.968
249.844
249.85
249.736
252.014
252.016
252.017
251.999
252
251.967
251.96
251.922
251.899
251.861
251.823
251.781
251.736
251.684
251.638
251.571
251.535
251.442
251.431
251.308
251.315
251.177
251.182
251.054
253.546
253.548
253.549
253.528
253.527
253.492
253.481
253.438
253.411
253.367
253.322
253.272
253.218
253.156
253.098
253.022
252.969
252.866
252.835
252.698
252.691
252.532
252.533
252.382
255.119
255.12
255.122
255.099
255.097
255.059
255.047
255
254.97
254.921
254.872
254.815
254.755
254.685
254.617
254.533
254.461
254.352
254.296
254.149
254.118
253.936
253.923
253.736
256.721
256.722
256.724
256.7
256.699
256.659
256.646
256.597
256.566
256.514
256.463
256.403
256.339
256.264
256.19
256.1
256.017
255.907
255.823
255.68
255.613
255.42
255.382
255.149
258.342
258.342
258.345
258.321
258.32
258.28
258.267
258.218
258.187
258.135
258.083
258.023
257.958
257.882
257.806
257.715
257.628
257.516
257.424
257.283
257.192
257.004
256.938
256.67
259.968
259.969
259.972
259.948
259.948
259.909
259.897
259.849
259.819
259.768
259.718
259.659
259.595
259.523
259.448
259.359
259.272
259.165
259.072
258.935
258.844
258.662
258.593
258.327
261.589
261.59
261.594
261.571
261.572
261.534
261.524
261.478
261.45
261.401
261.353
261.298
261.237
261.168
261.096
261.013
260.93
260.828
260.741
260.61
260.529
260.352
260.294
260.052
263.196
263.197
263.201
263.18
263.181
263.145
263.137
263.093
263.067
263.022
262.977
262.926
262.868
262.804
262.736
262.66
262.581
262.488
262.406
262.285
262.21
262.045
261.992
261.771
264.779
264.781
264.785
264.765
264.768
264.733
264.727
264.686
264.663
264.622
264.579
264.533
264.478
264.421
264.357
264.288
264.214
264.129
264.053
263.942
263.873
263.723
263.673
263.471
266.332
266.335
266.34
266.321
266.325
266.292
266.288
266.25
266.228
266.192
266.152
266.111
266.059
266.009
265.949
265.887
265.819
265.742
265.67
265.572
265.508
265.371
265.325
265.142
267.851
267.854
267.859
267.842
267.846
267.817
267.813
267.779
267.759
267.728
267.689
267.655
267.605
267.563
267.505
267.452
267.387
267.32
267.254
267.164
267.106
266.984
266.94
266.775
269.331
269.334
269.34
269.323
269.329
269.301
269.299
269.268
269.251
269.223
269.188
269.158
269.112
269.076
269.021
268.977
268.915
268.858
268.797
268.715
268.663
268.554
268.513
268.366
270.769
270.771
270.778
270.761
270.77
270.742
270.744
270.714
270.701
270.674
270.644
270.617
270.577
270.544
270.495
270.456
270.4
270.35
270.292
270.223
270.176
270.08
270.04
269.91
272.161
272.164
272.172
272.156
272.166
272.139
272.144
272.115
272.105
272.081
272.055
272.031
271.995
271.966
271.923
271.888
271.838
271.796
271.742
271.685
271.638
271.556
271.518
271.405
273.508
273.511
273.519
273.504
273.515
273.49
273.496
273.469
273.463
273.441
273.419
273.397
273.366
273.341
273.303
273.273
273.228
273.192
273.142
273.097
273.05
272.981
272.946
272.848
274.808
274.811
274.82
274.805
274.817
274.793
274.801
274.776
274.772
274.752
274.734
274.715
274.688
274.667
274.634
274.608
274.568
274.538
274.493
274.455
274.412
274.354
274.323
274.239
276.06
276.063
276.072
276.058
276.071
276.049
276.058
276.035
276.033
276.016
276
275.985
275.961
275.943
275.914
275.893
275.857
275.833
275.793
275.763
275.721
275.676
275.645
275.576
277.264
277.267
277.277
277.262
277.278
277.255
277.267
277.245
277.245
277.23
277.217
277.205
277.184
277.17
277.145
277.128
277.097
277.078
277.042
277.018
276.98
276.947
276.915
276.859
278.42
278.423
278.433
278.42
278.435
278.414
278.427
278.407
278.409
278.396
278.385
278.376
278.358
278.347
278.325
278.313
278.285
278.271
278.239
278.221
278.187
278.162
278.133
278.089
279.529
279.531
279.543
279.528
279.546
279.525
279.54
279.52
279.525
279.513
279.505
279.498
279.483
279.475
279.456
279.447
279.423
279.414
279.385
279.374
279.343
279.326
279.298
279.265
280.591
280.594
280.602
280.593
280.606
280.592
280.602
280.589
280.591
280.584
280.577
280.572
280.56
280.554
280.539
280.533
280.512
280.507
280.482
280.475
280.448
280.438
280.411
280.389
281.607
281.608
281.621
281.606
281.627
281.605
281.624
281.606
281.615
281.605
281.602
281.598
281.589
281.586
281.573
281.57
281.553
281.551
281.53
281.528
281.503
281.499
281.474
281.461
282.577
282.581
282.588
282.583
282.591
282.585
282.591
282.585
282.587
282.585
282.58
282.58
282.572
282.571
282.561
282.561
282.546
282.548
282.529
282.531
282.51
282.511
282.488
282.484
283.505
283.506
283.517
283.506
283.523
283.508
283.525
283.511
283.521
283.515
283.515
283.515
283.51
283.511
283.503
283.505
283.493
283.498
283.482
283.488
283.469
283.475
283.455
283.457
284.388
284.391
284.398
284.393
284.405
284.397
284.407
284.401
284.406
284.406
284.404
284.407
284.403
284.407
284.401
284.406
284.396
284.403
284.39
284.399
284.383
284.394
284.375
284.384
285.231
285.233
285.239
285.238
285.244
285.243
285.248
285.248
285.251
285.252
285.253
285.256
285.254
285.259
285.255
285.262
285.254
285.265
285.253
285.266
285.251
285.267
285.25
285.264
286.032
286.034
286.044
286.034
286.054
286.038
286.058
286.047
286.059
286.057
286.06
286.065
286.064
286.07
286.068
286.077
286.071
286.083
286.074
286.089
286.077
286.096
286.081
286.1
286.796
286.799
286.801
286.809
286.803
286.818
286.808
286.824
286.817
286.828
286.826
286.834
286.833
286.842
286.841
286.851
286.847
286.861
286.854
286.872
286.86
286.883
286.869
286.893
287.521
287.522
287.534
287.521
287.546
287.525
287.553
287.535
287.556
287.55
287.559
287.563
287.566
287.574
287.575
287.587
287.584
287.6
287.594
287.614
287.605
287.63
287.617
287.644
288.211
288.216
288.214
288.227
288.215
288.238
288.221
288.246
288.233
288.251
288.246
288.259
288.259
288.271
288.272
288.285
288.283
288.301
288.297
288.319
288.31
288.337
288.327
288.356
288.867
288.867
288.877
288.868
288.889
288.873
288.898
288.883
288.905
288.898
288.911
288.915
288.92
288.93
288.933
288.947
288.947
288.966
288.962
288.986
288.979
289.008
288.999
289.029
289.488
289.493
289.491
289.502
289.495
289.513
289.502
289.523
289.514
289.532
289.529
289.543
289.545
289.558
289.56
289.575
289.576
289.596
289.594
289.619
289.613
289.644
289.638
289.667
290.08
290.08
290.088
290.084
290.097
290.091
290.106
290.101
290.116
290.116
290.126
290.133
290.139
290.151
290.156
290.171
290.173
290.194
290.193
290.219
290.214
290.246
290.239
290.272
290.639
290.643
290.642
290.651
290.648
290.66
290.658
290.671
290.67
290.682
290.685
290.697
290.702
290.715
290.719
290.736
290.738
290.76
290.76
290.787
290.783
290.816
290.807
290.848
291.171
291.172
291.178
291.176
291.187
291.184
291.196
291.197
291.206
291.212
291.219
291.23
291.235
291.249
291.254
291.271
291.274
291.297
291.297
291.324
291.322
291.356
291.349
291.387
291.674
291.679
291.677
291.687
291.683
291.696
291.694
291.705
291.708
291.717
291.724
291.734
291.741
291.755
291.76
291.778
291.782
291.804
291.806
291.834
291.831
291.867
291.859
291.901
292.153
292.153
292.159
292.157
292.168
292.166
292.177
292.179
292.188
292.195
292.202
292.213
292.22
292.234
292.24
292.258
292.263
292.286
292.287
292.316
292.314
292.35
292.343
292.386
292.605
292.608
292.608
292.615
292.614
292.624
292.625
292.635
292.639
292.649
292.655
292.667
292.673
292.688
292.694
292.712
292.718
292.74
292.743
292.772
292.771
292.807
292.802
292.844
293.034
293.036
293.039
293.041
293.046
293.05
293.056
293.061
293.069
293.077
293.085
293.096
293.103
293.117
293.124
293.143
293.148
293.172
293.174
293.203
293.203
293.24
293.234
293.278
293.44
293.442
293.445
293.447
293.452
293.456
293.462
293.469
293.474
293.485
293.49
293.503
293.51
293.524
293.531
293.55
293.556
293.579
293.583
293.612
293.612
293.648
293.644
293.687
293.825
293.827
293.828
293.834
293.834
293.843
293.845
293.854
293.859
293.869
293.876
293.887
293.895
293.909
293.916
293.935
293.941
293.965
293.969
293.997
293.998
294.035
294.03
294.074
294.19
294.191
294.194
294.197
294.201
294.205
294.211
294.217
294.224
294.233
294.24
294.252
294.259
294.274
294.281
294.3
294.306
294.329
294.333
294.363
294.363
294.4
294.396
294.439
294.535
294.536
294.539
294.542
294.546
294.55
294.555
294.563
294.568
294.579
294.584
294.597
294.604
294.619
294.626
294.645
294.651
294.675
294.679
294.707
294.708
294.746
294.741
294.785
294.862
294.864
294.865
294.87
294.871
294.879
294.881
294.89
294.895
294.904
294.912
294.923
294.931
294.945
294.953
294.971
294.978
295.001
295.005
295.035
295.035
295.071
295.068
295.11
295.172
295.173
295.175
295.177
295.182
295.186
295.192
295.198
295.204
295.213
295.221
295.232
295.24
295.255
295.262
295.28
295.287
295.31
295.315
295.343
295.344
295.381
295.376
295.419
295.465
295.466
295.468
295.471
295.474
295.479
295.484
295.491
295.496
295.507
295.513
295.525
295.532
295.547
295.554
295.573
295.58
295.602
295.606
295.636
295.636
295.672
295.669
295.71
295.742
295.744
295.745
295.749
295.75
295.758
295.76
295.769
295.774
295.783
295.79
295.801
295.809
295.824
295.831
295.849
295.856
295.878
295.884
295.911
295.912
295.948
295.944
295.987
296.005
296.006
296.008
296.01
296.015
296.018
296.025
296.029
296.037
296.045
296.052
296.063
296.071
296.086
296.092
296.111
296.118
296.14
296.144
296.173
296.174
296.209
296.206
296.246
296.254
296.255
296.257
296.259
296.262
296.268
296.271
296.279
296.284
296.294
296.3
296.312
296.319
296.334
296.34
296.358
296.366
296.387
296.392
296.42
296.423
296.455
296.452
296.494
296.489
296.49
296.491
296.496
296.496
296.504
296.506
296.514
296.519
296.528
296.535
296.546
296.554
296.568
296.575
296.593
296.6
296.622
296.626
296.653
296.659
296.686
296.686
296.725
296.712
296.712
296.716
296.715
296.723
296.722
296.732
296.734
296.743
296.75
296.758
296.768
296.776
296.79
296.796
296.814
296.821
296.842
296.848
296.875
296.875
296.91
296.906
296.946
296.923
296.924
296.924
296.93
296.928
296.939
296.937
296.95
296.95
296.963
296.966
296.979
296.985
296.999
297.006
297.024
297.031
297.052
297.057
297.083
297.086
297.118
297.115
297.153
297.123
297.123
297.127
297.125
297.135
297.131
297.144
297.142
297.154
297.158
297.168
297.177
297.185
297.198
297.205
297.222
297.229
297.249
297.255
297.281
297.282
297.315
297.312
297.351
297.311
297.313
297.312
297.32
297.315
297.329
297.324
297.338
297.337
297.35
297.353
297.366
297.372
297.386
297.393
297.41
297.416
297.437
297.441
297.467
297.469
297.502
297.499
297.535
297.491
297.49
297.495
297.491
297.503
297.497
297.512
297.508
297.521
297.525
297.534
297.543
297.55
297.563
297.57
297.588
297.592
297.613
297.619
297.644
297.646
297.677
297.674
297.711
297.659
297.661
297.659
297.668
297.662
297.676
297.671
297.685
297.684
297.697
297.7
297.712
297.718
297.731
297.738
297.755
297.76
297.782
297.786
297.81
297.811
297.844
297.841
297.876
297.82
297.819
297.824
297.821
297.831
297.827
297.839
297.838
297.849
297.853
297.861
297.87
297.877
297.89
297.897
297.914
297.918
297.94
297.942
297.97
297.97
298
297.998
298.033
297.97
297.972
297.971
297.977
297.975
297.985
297.983
297.994
297.995
298.007
298.01
298.022
298.027
298.041
298.047
298.063
298.068
298.09
298.092
298.118
298.118
298.15
298.146
298.181
298.114
298.114
298.117
298.117
298.122
298.123
298.13
298.133
298.14
298.147
298.153
298.164
298.169
298.183
298.189
298.205
298.21
298.23
298.234
298.258
298.26
298.289
298.286
298.32
298.249
298.25
298.25
298.254
298.255
298.26
298.263
298.27
298.274
298.283
298.287
298.299
298.303
298.317
298.323
298.339
298.342
298.365
298.365
298.392
298.391
298.423
298.418
298.453
298.377
298.378
298.378
298.382
298.382
298.389
298.389
298.399
298.4
298.411
298.414
298.426
298.43
298.444
298.448
298.467
298.469
298.49
298.492
298.517
298.518
298.547
298.545
298.576
298.497
298.497
298.501
298.499
298.507
298.504
298.515
298.515
298.524
298.529
298.535
298.546
298.55
298.563
298.568
298.585
298.589
298.609
298.61
298.636
298.635
298.666
298.661
298.695
298.611
298.613
298.61
298.62
298.612
298.628
298.618
298.637
298.631
298.647
298.646
298.66
298.662
298.677
298.681
298.698
298.7
298.722
298.724
298.747
298.749
298.775
298.774
298.804
298.719
298.718
298.724
298.717
298.732
298.721
298.74
298.732
298.747
298.748
298.756
298.765
298.77
298.783
298.787
298.805
298.807
298.827
298.828
298.854
298.852
298.882
298.879
298.91
298.82
298.823
298.817
298.832
298.816
298.841
298.823
298.848
298.837
298.856
298.852
298.868
298.87
298.884
298.888
298.905
298.906
298.928
298.929
298.951
298.954
298.979
298.979
299.007
298.916
298.914
298.923
298.912
298.932
298.915
298.939
298.926
298.945
298.943
298.952
298.961
298.965
298.979
298.982
298.999
299.002
299.021
299.022
299.047
299.045
299.073
299.072
299.101
299.005
299.009
299.001
299.019
299
299.028
299.007
299.034
299.02
299.042
299.037
299.053
299.054
299.068
299.071
299.088
299.089
299.111
299.111
299.133
299.136
299.159
299.16
299.187
299.091
299.088
299.097
299.087
299.105
299.09
299.112
299.101
299.118
299.117
299.126
299.134
299.138
299.152
299.154
299.171
299.173
299.192
299.194
299.218
299.216
299.243
299.242
299.27
299.169
299.173
299.166
299.181
299.166
299.189
299.173
299.196
299.185
299.204
299.2
299.215
299.216
299.23
299.233
299.249
299.251
299.272
299.273
299.294
299.295
299.32
299.32
299.346
299.245
299.243
299.25
299.243
299.256
299.247
299.263
299.258
299.269
299.271
299.278
299.287
299.29
299.304
299.306
299.323
299.325
299.343
299.345
299.368
299.368
299.392
299.392
299.419
299.314
299.317
299.312
299.323
299.314
299.33
299.321
299.337
299.332
299.345
299.345
299.358
299.36
299.374
299.375
299.391
299.393
299.414
299.414
299.435
299.435
299.461
299.46
299.486
299.38
299.379
299.384