/*--------------------------------*- C++ -*----------------------------------*\
  =========                 |
  \\      /  F ield         | OpenFOAM: The Open Source CFD Toolbox
   \\    /   O peration     | Website:  https://openfoam.org
    \\  /    A nd           | Version:  10
     \\/     M anipulation  |
\*---------------------------------------------------------------------------*/
FoamFile
{
    format      ascii;
    class       volVectorField;
    location    "0.34";
    object      U;
}
// * * * * * * * * * * * * * * * * * * * * * * * * * * * * * * * * * * * * * //

dimensions      [0 1 -1 0 0 0 0];

internalField   nonuniform List<vector> 
4176
(
(497.488 -0.0141385 -5.59767e-09)
(497.474 0.0637514 1.71743e-09)
(497.449 0.00139877 -5.35731e-10)
(497.4 0.0904418 5.48892e-11)
(497.346 0.0509337 -4.81692e-11)
(497.271 0.0896179 -5.60775e-10)
(497.18 0.125763 -4.82679e-10)
(497.088 0.0606457 1.23046e-10)
(496.954 0.225159 5.23413e-10)
(496.849 0.00502141 5.85692e-10)
(496.672 0.344229 4.4385e-10)
(496.55 -0.0688921 4.12288e-10)
(496.339 0.469593 2.04235e-10)
(496.191 -0.139244 -1.90589e-10)
(495.956 0.567604 -3.83955e-10)
(495.773 -0.135344 -2.82154e-10)
(495.536 0.528316 -2.35534e-10)
(495.286 0.0239025 -2.87946e-11)
(495.073 0.334622 3.1088e-10)
(494.73 0.323275 1.86878e-10)
(494.575 -0.0169251 -1.33125e-10)
(494.097 0.771865 -1.7418e-10)
(494.067 -0.51687 8.61203e-11)
(493.444 1.44292 2.01407e-10)
(497.47 0.00493259 -5.59585e-09)
(497.455 0.11457 1.71779e-09)
(497.43 0.0764485 -5.35905e-10)
(497.379 0.203342 5.41518e-11)
(497.325 0.186192 -4.83456e-11)
(497.247 0.264334 -5.6053e-10)
(497.156 0.321673 -4.83381e-10)
(497.059 0.295746 1.23128e-10)
(496.924 0.482125 5.24066e-10)
(496.814 0.29816 5.85912e-10)
(496.636 0.66275 4.43434e-10)
(496.508 0.278932 4.12218e-10)
(496.293 0.850169 2.02644e-10)
(496.142 0.258626 -1.90507e-10)
(495.901 1.01229 -3.8379e-10)
(495.714 0.302326 -2.81653e-10)
(495.469 1.04207 -2.36692e-10)
(495.216 0.510929 -2.89023e-11)
(494.996 0.914203 3.09863e-10)
(494.646 0.85541 1.86481e-10)
(494.491 0.628319 -1.33091e-10)
(493.992 1.33122 -1.76528e-10)
(493.957 0.124851 8.69021e-11)
(493.269 1.99299 2.01002e-10)
(497.413 0.0232817 -5.59871e-09)
(497.399 0.161221 1.71695e-09)
(497.375 0.147624 -5.37952e-10)
(497.324 0.307677 5.51811e-11)
(497.273 0.313794 -4.85969e-11)
(497.195 0.426521 -5.61444e-10)
(497.108 0.505798 -4.80753e-10)
(497.011 0.514982 1.2494e-10)
(496.882 0.722851 5.26094e-10)
(496.772 0.572826 5.86237e-10)
(496.599 0.960537 4.42553e-10)
(496.474 0.606337 4.11422e-10)
(496.263 1.20596 2.0424e-10)
(496.116 0.634208 -1.90444e-10)
(495.877 1.42849 -3.84064e-10)
(495.698 0.71407 -2.80448e-10)
(495.454 1.52256 -2.39408e-10)
(495.209 0.966159 -3.04918e-11)
(494.993 1.45703 3.10528e-10)
(494.653 1.34405 1.86041e-10)
(494.506 1.24756 -1.34089e-10)
(494.016 1.88246 -1.73894e-10)
(493.982 0.838491 8.71949e-11)
(493.271 2.60913 2.01962e-10)
(497.309 0.0420163 -5.59662e-09)
(497.295 0.208723 1.72059e-09)
(497.271 0.220121 -5.38944e-10)
(497.22 0.413991 5.82969e-11)
(497.168 0.443764 -4.9413e-11)
(497.091 0.591876 -5.65924e-10)
(497.004 0.693361 -4.80756e-10)
(496.907 0.738615 1.22438e-10)
(496.777 0.96807 5.19428e-10)
(496.668 0.85314 5.89778e-10)
(496.494 1.26387 4.43539e-10)
(496.37 0.940696 4.09764e-10)
(496.158 1.56864 2.05752e-10)
(496.013 1.01841 -1.92022e-10)
(495.77 1.85337 -3.9124e-10)
(495.593 1.13556 -2.81714e-10)
(495.346 2.01699 -2.36984e-10)
(495.097 1.42667 -3.08355e-11)
(494.891 2.00919 3.12812e-10)
(494.54 1.84094 1.85414e-10)
(494.398 1.85817 -1.36951e-10)
(493.915 2.42029 -1.74736e-10)
(493.887 1.52547 8.54247e-11)
(493.205 3.20591 1.92479e-10)
(497.157 0.0603485 -5.59843e-09)
(497.143 0.255243 1.72695e-09)
(497.12 0.291043 -5.34825e-10)
(497.069 0.518176 5.83994e-11)
(497.018 0.570903 -4.62017e-11)
(496.941 0.754045 -5.60645e-10)
(496.855 0.876837 -4.82805e-10)
(496.76 0.958163 1.24609e-10)
(496.631 1.20795 5.25028e-10)
(496.524 1.12862 5.87818e-10)
(496.351 1.56067 4.43791e-10)
(496.229 1.2695 4.12692e-10)
(496.018 1.92391 2.02298e-10)
(495.876 1.39616 -1.92994e-10)
(495.634 2.2711 -3.89371e-10)
(495.461 1.55025 -2.8427e-10)
(495.21 2.51231 -2.38086e-10)
(494.966 1.86983 -3.0038e-11)
(494.764 2.55426 3.07351e-10)
(494.411 2.33883 1.91181e-10)
(494.271 2.45264 -1.29243e-10)
(493.793 2.94612 -1.71808e-10)
(493.764 2.1681 8.90488e-11)
(493.102 3.76383 2.033e-10)
(496.957 0.0786736 -5.61115e-09)
(496.942 0.301471 1.72485e-09)
(496.919 0.361814 -5.33265e-10)
(496.869 0.621778 5.36268e-11)
(496.819 0.69774 -5.74578e-11)
(496.742 0.91536 -5.65792e-10)
(496.657 1.05988 -4.80466e-10)
(496.562 1.17666 1.20779e-10)
(496.435 1.44725 5.2576e-10)
(496.327 1.40302 5.93339e-10)
(496.157 1.85657 4.4416e-10)
(496.035 1.59746 4.06996e-10)
(495.825 2.27756 1.99547e-10)
(495.684 1.77382 -1.9066e-10)
(495.443 2.68553 -3.92488e-10)
(495.274 1.96922 -2.81729e-10)
(495.018 3.00294 -2.27581e-10)
(494.787 2.31271 -2.71515e-11)
(494.57 3.10381 3.17186e-10)
(494.229 2.83565 1.9331e-10)
(494.084 3.04885 -1.33538e-10)
(493.611 3.4741 -1.82569e-10)
(493.576 2.81504 8.58148e-11)
(492.913 4.32078 2.03544e-10)
(496.708 0.096822 -5.61159e-09)
(496.694 0.347036 1.72237e-09)
(496.671 0.431797 -5.49261e-10)
(496.621 0.723944 5.37605e-11)
(496.572 0.823124 -4.28892e-11)
(496.495 1.07446 -5.65124e-10)
(496.412 1.24082 -4.91979e-10)
(496.316 1.39222 1.2544e-10)
(496.192 1.6838 5.32511e-10)
(496.084 1.67392 5.88723e-10)
(495.916 2.14903 4.4151e-10)
(495.795 1.92163 4.18037e-10)
(495.588 2.62682 2.15255e-10)
(495.448 2.14782 -1.88879e-10)
(495.208 3.09387 -3.8818e-10)
(495.043 2.38653 -2.78477e-10)
(494.784 3.48255 -2.37073e-10)
(494.565 2.75739 -3.27561e-11)
(494.337 3.65122 3.11697e-10)
(494.01 3.32061 1.9083e-10)
(493.859 3.64392 -1.35027e-10)
(493.393 4.00162 -1.82703e-10)
(493.353 3.47172 8.81722e-11)
(492.692 4.88303 2.08631e-10)
(496.411 0.114834 -5.62822e-09)
(496.396 0.392136 1.73291e-09)
(496.374 0.501159 -5.28915e-10)
(496.324 0.825092 5.72837e-11)
(496.276 0.94734 -5.58935e-11)
(496.199 1.23196 -5.62459e-10)
(496.117 1.42002 -4.75605e-10)
(496.023 1.60563 1.24337e-10)
(495.899 1.91802 5.14558e-10)
(495.793 1.94221 5.86493e-10)
(495.626 2.43857 4.52512e-10)
(495.506 2.24291 4.1246e-10)
(495.301 2.97248 1.89581e-10)
(495.163 2.51886 -1.97679e-10)
(494.924 3.49771 -3.81284e-10)
(494.763 2.80134 -2.86604e-10)
(494.503 3.95477 -2.33472e-10)
(494.292 3.19969 -1.6146e-11)
(494.058 4.19391 3.15571e-10)
(493.743 3.80114 1.76075e-10)
(493.585 4.23715 -1.35261e-10)
(493.127 4.5243 -1.66628e-10)
(493.084 4.12309 8.56863e-11)
(492.431 5.43798 1.85479e-10)
(496.065 0.132664 -5.63952e-09)
(496.051 0.436682 1.71971e-09)
(496.029 0.569739 -5.50974e-10)
(495.979 0.925014 4.51308e-11)
(495.931 1.0701 -5.61976e-11)
(495.856 1.38753 -5.71097e-10)
(495.775 1.59703 -4.91082e-10)
(495.681 1.81639 1.21367e-10)
(495.559 2.14931 5.21423e-10)
(495.454 2.2072 5.83691e-10)
(495.289 2.72442 4.40861e-10)
(495.171 2.56042 4.10984e-10)
(494.967 3.31367 1.97866e-10)
(494.832 2.8859 -1.96586e-10)
(494.594 3.89611 -3.88106e-10)
(494.437 3.21232 -2.83575e-10)
(494.176 4.41853 -2.3778e-10)
(493.973 3.63906 -2.71409e-11)
(493.734 4.72976 3.12162e-10)
(493.43 4.27508 1.82911e-10)
(493.267 4.82774 -1.37322e-10)
(492.818 5.04216 -1.7775e-10)
(492.771 4.77009 8.7491e-11)
(492.127 5.98624 2.01899e-10)
(495.671 0.150311 -5.62418e-09)
(495.657 0.480683 1.74857e-09)
(495.635 0.637533 -5.32356e-10)
(495.586 1.02373 6.83334e-11)
(495.539 1.1914 -3.78665e-11)
(495.463 1.5412 -5.54433e-10)
(495.384 1.77187 -4.74294e-10)
(495.291 2.02453 1.38956e-10)
(495.17 2.37765 5.40186e-10)
(495.066 2.46888 6.0072e-10)
(494.903 3.0065 4.59355e-10)
(494.787 2.87404 4.26852e-10)
(494.585 3.65027 2.16273e-10)
(494.452 3.24869 -1.84131e-10)
(494.216 4.28898 -3.74613e-10)
(494.063 3.61916 -2.72929e-10)
(493.802 4.87417 -2.23976e-10)
(493.607 4.07469 -1.6119e-11)
(493.363 5.25815 3.2609e-10)
(493.071 4.74288 1.94445e-10)
(492.903 5.41354 -1.25295e-10)
(492.464 5.55322 -1.65635e-10)
(492.413 5.41094 9.6972e-11)
(491.778 6.5262 2.11135e-10)
(495.228 0.167747 -5.64589e-09)
(495.214 0.524083 1.73781e-09)
(495.193 0.704443 -5.42227e-10)
(495.144 1.12112 6.09093e-11)
(495.097 1.31108 -4.4921e-11)
(495.023 1.6928 -5.62736e-10)
(494.944 1.94432 -4.79558e-10)
(494.852 2.22983 1.37492e-10)
(494.734 2.60277 5.38892e-10)
(494.631 2.72694 5.99378e-10)
(494.47 3.28447 4.59873e-10)
(494.355 3.18333 4.29444e-10)
(494.155 3.98182 2.18751e-10)
(494.025 3.60667 -1.82659e-10)
(493.79 4.67582 -3.70142e-10)
(493.641 4.02114 -2.66996e-10)
(493.382 5.32155 -2.16445e-10)
(493.194 4.50598 -9.81976e-12)
(492.947 5.77817 3.36596e-10)
(492.666 5.20361 2.05146e-10)
(492.492 5.99342 -1.37099e-10)
(492.065 6.05693 -1.99573e-10)
(492.01 6.04487 6.78339e-11)
(491.386 7.0574 1.80099e-10)
(494.737 0.18495 -5.65536e-09)
(494.723 0.566839 1.74122e-09)
(494.702 0.77039 -5.45727e-10)
(494.653 1.2171 5.55508e-11)
(494.608 1.42904 -5.03105e-11)
(494.534 1.84221 -5.69149e-10)
(494.457 2.11426 -4.87824e-10)
(494.366 2.43216 1.27933e-10)
(494.248 2.82452 5.29536e-10)
(494.147 2.98122 5.90334e-10)
(493.988 3.55813 4.4961e-10)
(493.876 3.48804 4.20233e-10)
(493.678 4.30803 2.07604e-10)
(493.551 3.95941 -1.92655e-10)
(493.318 5.05626 -3.84971e-10)
(493.173 4.41766 -2.80781e-10)
(492.914 5.7607 -2.33542e-10)
(492.733 4.93259 -2.30769e-11)
(492.483 6.28926 3.18206e-10)
(492.214 5.65812 1.86624e-10)
(492.035 6.56459 -1.32299e-10)
(491.621 6.55078 -1.70301e-10)
(491.562 6.67207 9.39007e-11)
(490.949 7.57929 2.06699e-10)
(494.197 0.201892 -5.66571e-09)
(494.183 0.608892 1.74153e-09)
(494.162 0.835276 -5.52218e-10)
(494.114 1.31154 4.97322e-11)
(494.07 1.54509 -5.89334e-11)
(493.997 1.98926 -5.81987e-10)
(493.92 2.28145 -5.02524e-10)
(493.831 2.63132 1.11773e-10)
(493.715 3.04267 5.13334e-10)
(493.616 3.23149 5.72172e-10)
(493.459 3.82722 4.23647e-10)
(493.348 3.78789 3.94198e-10)
(493.152 4.62859 1.74514e-10)
(493.029 4.3065 -1.98552e-10)
(492.798 5.42984 -3.6136e-10)
(492.657 4.80802 -2.6352e-10)
(492.4 6.19152 -2.15387e-10)
(492.225 5.35416 -1.05715e-11)
(491.973 6.79071 3.30834e-10)
(491.715 6.10471 1.96889e-10)
(491.532 7.1271 -1.24299e-10)
(491.13 7.03484 -1.65163e-10)
(491.069 7.29045 9.93951e-11)
(490.467 8.09125 2.09987e-10)
(493.608 0.218547 -5.66815e-09)
(493.594 0.650189 1.76663e-09)
(493.574 0.899007 -5.53746e-10)
(493.526 1.40431 3.03186e-11)
(493.483 1.65908 -6.2227e-11)
(493.411 2.13376 -5.7372e-10)
(493.336 2.4457 -4.81695e-10)
(493.247 2.82705 1.49584e-10)
(493.134 3.25697 5.33549e-10)
(493.036 3.47749 5.73271e-10)
(492.881 4.09149 4.37027e-10)
(492.773 4.08259 4.17754e-10)
(492.579 4.94321 2.16583e-10)
(492.459 4.64757 -1.79739e-10)
(492.23 5.79622 -3.94825e-10)
(492.094 5.19173 -3.04525e-10)
(491.838 6.61358 -2.51729e-10)
(491.67 5.77009 -2.90636e-11)
(491.416 7.28206 3.252e-10)
(491.17 6.54306 2.02517e-10)
(490.983 7.68027 -1.36819e-10)
(490.594 7.50799 -1.94007e-10)
(490.53 7.89876 8.27108e-11)
(489.941 8.59278 2.07386e-10)
(492.97 0.234894 -5.69514e-09)
(492.956 0.69068 1.72882e-09)
(492.937 0.961495 -5.45694e-10)
(492.89 1.4953 8.70198e-11)
(492.847 1.77084 -3.66333e-11)
(492.776 2.2755 -5.71603e-10)
(492.702 2.60674 -5.02036e-10)
(492.615 3.0191 1.04299e-10)
(492.503 3.46711 5.31767e-10)
(492.407 3.7189 6.16048e-10)
(492.255 4.35062 4.58225e-10)
(492.149 4.37182 4.12119e-10)
(491.958 5.25158 1.81968e-10)
(491.841 4.98229 -2.01682e-10)
(491.615 6.15506 -3.71064e-10)
(491.483 5.56831 -2.75478e-10)
(491.229 7.02644 -2.41449e-10)
(491.068 6.17966 -4.03284e-11)
(490.813 7.76271 2.84668e-10)
(490.579 6.97285 1.73343e-10)
(490.387 8.22365 -1.24033e-10)
(490.011 7.96937 -1.69777e-10)
(489.945 8.49575 8.30471e-11)
(489.37 9.08333 1.82249e-10)
(492.283 0.250911 -5.69152e-09)
(492.269 0.730318 1.78085e-09)
(492.25 1.02266 -5.53605e-10)
(492.204 1.58438 2.73549e-11)
(492.162 1.88022 -6.44852e-11)
(492.092 2.41428 -5.72973e-10)
(492.02 2.76434 -4.74396e-10)
(491.934 3.20717 1.58328e-10)
(491.825 3.67276 5.36945e-10)
(491.731 3.95537 5.76057e-10)
(491.58 4.60423 4.44444e-10)
(491.477 4.65521 4.26069e-10)
(491.289 5.55337 2.26201e-10)
(491.175 5.31028 -2.05672e-10)
(490.952 6.50603 -4.279e-10)
(490.825 5.93732 -3.00943e-10)
(490.573 7.42974 -2.41747e-10)
(490.419 6.58206 -1.52712e-11)
(490.163 8.23189 3.40764e-10)
(489.941 7.39384 1.79784e-10)
(489.745 8.75659 -1.63191e-10)
(489.384 8.41867 -1.83028e-10)
(489.314 9.08084 9.66113e-11)
(488.753 9.56221 2.19997e-10)
(491.546 0.266575 -5.71838e-09)
(491.533 0.769058 1.74676e-09)
(491.514 1.08242 -5.72793e-10)
(491.468 1.67145 2.35722e-11)
(491.427 1.98704 -5.41425e-11)
(491.359 2.54991 -5.47392e-10)
(491.288 2.91823 -4.71159e-10)
(491.204 3.39097 1.40612e-10)
(491.097 3.87358 5.34839e-10)
(491.005 4.18652 5.88318e-10)
(490.858 4.85193 4.3376e-10)
(490.757 4.93232 3.94728e-10)
(490.572 5.84815 2.06595e-10)
(490.461 5.63113 -1.75528e-10)
(490.241 6.84879 -3.77722e-10)
(490.119 6.29838 -2.7768e-10)
(489.869 7.82323 -2.38097e-10)
(489.722 6.97644 -3.15088e-11)
(489.467 8.68877 2.98791e-10)
(489.256 7.80567 1.5656e-10)
(489.057 9.27756 -1.75003e-10)
(488.71 8.85657 -1.79845e-10)
(488.636 9.65448 1.14737e-10)
(488.09 10.0281 2.16961e-10)
(490.76 0.281862 -5.72342e-09)
(490.746 0.806845 1.77461e-09)
(490.728 1.14069 -5.40126e-10)
(490.683 1.75638 7.82078e-11)
(490.643 2.09117 -3.11513e-11)
(490.576 2.68219 -5.52906e-10)
(490.507 3.06818 -4.63927e-10)
(490.425 3.5702 1.65579e-10)
(490.32 4.06922 5.76674e-10)
(490.23 4.41193 6.01302e-10)
(490.086 5.09326 4.18295e-10)
(489.988 5.20265 3.91548e-10)
(489.807 6.13545 1.73602e-10)
(489.7 5.94433 -2.27812e-10)
(489.482 7.18291 -4.20346e-10)
(489.365 6.65106 -3.03059e-10)
(489.119 8.20666 -2.55126e-10)
(488.978 7.36206 -3.47697e-11)
(488.724 9.1327 3.12169e-10)
(488.524 8.20806 1.84898e-10)
(488.322 9.78614 -1.31715e-10)
(487.99 9.28261 -1.65585e-10)
(487.912 10.2158 1.03813e-10)
(487.382 10.4806 2.21235e-10)
(489.924 0.296743 -5.74355e-09)
(489.91 0.843616 1.76493e-09)
(489.893 1.19736 -5.61907e-10)
(489.848 1.83903 5.19718e-11)
(489.81 2.1924 -6.42374e-11)
(489.744 2.81091 -5.97302e-10)
(489.677 3.21392 -5.10423e-10)
(489.596 3.74458 1.16372e-10)
(489.494 4.25934 5.19528e-10)
(489.407 4.63123 5.78127e-10)
(489.265 5.32779 4.31911e-10)
(489.171 5.46573 3.9626e-10)
(488.993 6.41473 1.69252e-10)
(488.89 6.24931 -2.36596e-10)
(488.676 7.50785 -4.38983e-10)
(488.563 6.99481 -3.26142e-10)
(488.32 8.57957 -2.42486e-10)
(488.186 7.7384 6.32015e-12)
(487.934 9.56322 3.52391e-10)
(487.745 8.60058 2.11104e-10)
(487.54 10.2818 -1.11149e-10)
(487.224 9.69647 -1.54429e-10)
(487.141 10.7643 1.12256e-10)
(486.627 10.9191 2.25708e-10)
(489.037 0.311183 -5.77359e-09)
(489.024 0.879293 1.78014e-09)
(489.007 1.25231 -5.34039e-10)
(488.963 1.91925 5.69255e-11)
(488.926 2.29055 -3.87824e-11)
(488.861 2.93584 -5.49293e-10)
(488.796 3.35521 -4.89395e-10)
(488.718 3.91381 1.13095e-10)
(488.618 4.44362 5.3894e-10)
(488.534 4.84406 6.18327e-10)
(488.395 5.55511 4.46281e-10)
(488.305 5.72109 4.26403e-10)
(488.13 6.68549 2.1916e-10)
(488.031 6.54551 -2.17216e-10)
(487.821 7.82303 -3.94522e-10)
(487.714 7.32899 -2.66702e-10)
(487.474 8.94143 -2.47489e-10)
(487.347 8.10491 -5.58981e-11)
(487.096 9.97994 3.03162e-10)
(486.919 8.98284 1.8409e-10)
(486.712 10.7642 -1.64772e-10)
(486.41 10.0978 -1.82593e-10)
(486.324 11.2993 1.00097e-10)
(485.827 11.3433 1.89353e-10)
(488.1 0.325145 -5.76822e-09)
(488.087 0.913788 1.79605e-09)
(488.071 1.3054 -5.35797e-10)
(488.028 1.99684 9.14997e-11)
(487.992 2.38538 -2.09044e-11)
(487.929 3.05671 -5.88668e-10)
(487.866 3.49175 -5.36066e-10)
(487.79 4.0776 1.04994e-10)
(487.693 4.62172 5.22241e-10)
(487.611 5.05007 5.88403e-10)
(487.476 5.77482 4.47228e-10)
(487.389 5.96828 4.22763e-10)
(487.218 6.94725 2.09837e-10)
(487.124 6.83235 -1.92516e-10)
(486.918 8.12788 -3.76715e-10)
(486.816 7.65293 -2.62891e-10)
(486.58 9.29165 -2.09486e-10)
(486.46 8.46089 -3.11468e-11)
(486.212 10.3825 2.75452e-10)
(486.046 9.35445 1.51678e-10)
(485.836 11.2324 -1.65381e-10)
(485.551 10.4864 -1.9537e-10)
(485.46 11.8202 7.39009e-11)
(484.981 11.7527 1.98455e-10)
(487.113 0.338586 -5.80287e-09)
(487.1 0.947008 1.75324e-09)
(487.084 1.35648 -5.60794e-10)
(487.042 2.0716 9.19895e-11)
(487.008 2.47667 -4.47078e-11)
(486.946 3.17327 -5.90431e-10)
(486.886 3.62324 -5.13237e-10)
(486.812 4.23563 1.49529e-10)
(486.718 4.79331 5.87049e-10)
(486.639 5.2489 6.278e-10)
(486.508 5.98656 4.62881e-10)
(486.424 6.20691 4.09842e-10)
(486.257 7.19956 1.65572e-10)
(486.168 7.10934 -2.16045e-10)
(485.966 8.42184 -3.82845e-10)
(485.87 7.96597 -2.85154e-10)
(485.638 9.62957 -2.54707e-10)
(485.525 8.80552 -5.24172e-11)
(485.28 10.7705 3.2111e-10)
(485.125 9.71506 2.07197e-10)
(484.914 11.6857 -1.31967e-10)
(484.644 10.8617 -1.87087e-10)
(484.549 12.3265 6.03475e-11)
(484.088 12.1469 2.03486e-10)
(486.075 0.35147 -5.82262e-09)
(486.062 0.978868 1.75919e-09)
(486.047 1.40541 -5.62747e-10)
(486.006 2.14336 9.77782e-11)
(485.973 2.56415 -3.51069e-11)
(485.913 3.28523 -5.86872e-10)
(485.855 3.74937 -5.14199e-10)
(485.784 4.38756 1.00608e-10)
(485.692 4.95804 5.39094e-10)
(485.617 5.4402 6.34508e-10)
(485.489 6.18995 4.74113e-10)
(485.409 6.4366 4.20321e-10)
(485.247 7.44203 1.75842e-10)
(485.162 7.37602 -2.07881e-10)
(484.965 8.70443 -3.73644e-10)
(484.875 8.26752 -2.80984e-10)
(484.647 9.95458 -2.49922e-10)
(484.542 9.13793 -4.32478e-11)
(484.3 11.1436 3.32336e-10)
(484.156 10.0643 2.16388e-10)
(483.944 12.1231 -1.22346e-10)
(483.69 11.2232 -1.78506e-10)
(483.592 12.8177 7.53672e-11)
(483.149 12.5255 1.7661e-10)
(484.985 0.363766 -5.84789e-09)
(484.973 1.0093 1.80551e-09)
(484.958 1.45207 -5.394e-10)
(484.919 2.21194 5.44377e-11)
(484.888 2.64764 -9.13151e-11)
(484.829 3.39233 -6.04817e-10)
(484.774 3.86983 -4.89497e-10)
(484.705 4.53305 1.17484e-10)
(484.617 5.11553 5.46265e-10)
(484.545 5.62358 6.26251e-10)
(484.421 6.3846 4.49104e-10)
(484.345 6.65696 4.36187e-10)
(484.187 7.67425 2.34219e-10)
(484.107 7.632 -2.13895e-10)
(483.914 8.97522 -4.44209e-10)
(483.831 8.5571 -3.05257e-10)
(483.608 10.2661 -2.34197e-10)
(483.51 9.45744 -3.83516e-11)
(483.272 11.5014 3.27914e-10)
(483.139 10.4014 2.02896e-10)
(482.926 12.5437 -1.49185e-10)
(482.689 11.5701 -1.64886e-10)
(482.587 13.2927 1.26659e-10)
(482.163 12.888 2.1044e-10)
(483.845 0.375451 -5.83529e-09)
(483.833 1.03824 1.83548e-09)
(483.819 1.49639 -5.25873e-10)
(483.781 2.27721 6.59382e-11)
(483.751 2.72694 -8.65826e-11)
(483.695 3.49435 -6.07049e-10)
(483.642 3.98435 -4.95778e-10)
(483.576 4.67179 1.61947e-10)
(483.491 5.26543 5.86173e-10)
(483.422 5.79867 6.07306e-10)
(483.302 6.57011 4.23042e-10)
(483.231 6.8676 4.0618e-10)
(483.077 7.89581 1.96066e-10)
(483.003 7.87688 -2.05059e-10)
(482.815 9.23381 -3.84847e-10)
(482.737 8.83427 -2.56398e-10)
(482.519 10.5638 -2.45466e-10)
(482.43 9.76353 -5.74042e-11)
(482.196 11.8432 3.0126e-10)
(482.073 10.7259 1.74613e-10)
(481.861 12.9467 -1.33464e-10)
(481.64 11.9015 -1.5553e-10)
(481.535 13.7504 1.32567e-10)
(481.131 13.2336 2.11031e-10)
(482.654 0.386511 -5.84925e-09)
(482.641 1.06567 1.81127e-09)
(482.629 1.53829 -5.87227e-10)
(482.591 2.33909 7.80144e-11)
(482.563 2.80193 -5.99523e-11)
(482.509 3.59111 -6.14887e-10)
(482.459 4.0927 -4.80359e-10)
(482.395 4.80349 1.41136e-10)
(482.314 5.40739 5.27537e-10)
(482.249 5.96509 6.25724e-10)
(482.133 6.74606 4.63366e-10)
(482.066 7.06808 4.07183e-10)
(481.917 8.10631 2.18717e-10)
(481.848 8.11024 -2.16645e-10)
(481.665 9.4798 -4.37628e-10)
(481.594 9.09863 -2.87411e-10)
(481.382 10.8473 -2.57058e-10)
(481.3 10.0557 -4.72121e-11)
(481.071 12.1687 3.31112e-10)
(480.958 11.037 1.69909e-10)
(480.747 13.3316 -1.73835e-10)
(480.543 12.2167 -1.75642e-10)
(480.436 14.1894 7.30992e-11)
(480.051 13.562 1.7638e-10)
(481.411 0.396935 -5.92607e-09)
(481.399 1.09155 1.79258e-09)
(481.387 1.57773 -5.89531e-10)
(481.351 2.3975 4.86455e-11)
(481.325 2.87251 -6.01324e-11)
(481.272 3.68247 -5.93894e-10)
(481.225 4.19469 -4.92639e-10)
(481.164 4.92793 1.59873e-10)
(481.086 5.54113 5.75512e-10)
(481.025 6.12248 6.39114e-10)
(480.914 6.91206 4.99337e-10)
(480.851 7.25798 4.13788e-10)
(480.707 8.30527 1.89753e-10)
(480.644 8.33165 -2.23442e-10)
(480.466 9.71277 -4.15867e-10)
(480.402 9.34977 -2.93147e-10)
(480.194 11.1161 -2.39891e-10)
(480.121 10.3335 -1.08372e-11)
(479.896 12.4775 3.44154e-10)
(479.794 11.334 2.00521e-10)
(479.585 13.6976 -1.74655e-10)
(479.397 12.5153 -2.01414e-10)
(479.287 14.6092 7.38345e-11)
(478.923 13.8729 1.92627e-10)
(480.117 0.406712 -5.90501e-09)
(480.105 1.11587 1.85181e-09)
(480.094 1.61467 -5.34767e-10)
(480.059 2.45239 6.13546e-11)
(480.035 2.9386 -9.47849e-11)
(479.985 3.76834 -6.26142e-10)
(479.939 4.2902 -5.11005e-10)
(479.882 5.04492 1.5527e-10)
(479.808 5.66642 5.77852e-10)
(479.75 6.27058 6.52812e-10)
(479.643 7.06776 4.6536e-10)
(479.586 7.43691 3.92034e-10)
(479.447 8.49228 1.77867e-10)
(479.389 8.54063 -2.30315e-10)
(479.217 9.93228 -4.11514e-10)
(479.159 9.58726 -2.77401e-10)
(478.957 11.3699 -2.10271e-10)
(478.892 10.5966 2.66922e-11)
(478.672 12.7694 3.33661e-10)
(478.581 11.616 1.48563e-10)
(478.374 14.0434 -1.63313e-10)
(478.203 12.7978 -1.8081e-10)
(478.09 15.0107 1.09504e-10)
(477.747 14.1663 2.41183e-10)
(478.772 0.41583 -5.91269e-09)
(478.76 1.13859 1.82601e-09)
(478.75 1.64908 -6.12763e-10)
(478.716 2.5037 5.52306e-11)
(478.693 3.00014 -2.4594e-11)
(478.645 3.84864 -5.91321e-10)
(478.603 4.37912 -5.24097e-10)
(478.548 5.15435 1.5673e-10)
(478.478 5.7831 5.44375e-10)
(478.424 6.40919 5.77684e-10)
(478.322 7.21289 4.66707e-10)
(478.269 7.60454 4.63036e-10)
(478.135 8.66693 2.02605e-10)
(478.083 8.73676 -2.43107e-10)
(477.917 10.1379 -4.0697e-10)
(477.866 9.81061 -2.55546e-10)
(477.67 11.6083 -2.35343e-10)
(477.613 10.8446 -3.83942e-11)
(477.399 13.0441 3.47778e-10)
(477.318 11.8823 1.75554e-10)
(477.114 14.3683 -1.8274e-10)
(476.96 13.0641 -1.86558e-10)
(476.845 15.3924 1.22073e-10)
(476.522 14.4407 2.14748e-10)
(477.375 0.424274 -5.99425e-09)
(477.363 1.15967 1.80591e-09)
(477.354 1.68089 -6.0298e-10)
(477.321 2.55136 4.26381e-11)
(477.3 3.05704 -7.29274e-11)
(477.255 3.92327 -6.1878e-10)
(477.215 4.46136 -5.13298e-10)
(477.164 5.25613 1.45748e-10)
(477.097 5.89107 5.5926e-10)
(477.047 6.53817 6.16287e-10)
(476.949 7.34728 4.74276e-10)
(476.902 7.76065 4.4637e-10)
(476.773 8.8289 2.15501e-10)
(476.727 8.91965 -2.09471e-10)
(476.566 10.329 -4.02134e-10)
(476.523 10.0193 -2.78847e-10)
(476.333 11.8307 -2.29161e-10)
(476.284 11.0768 -4.35464e-12)
(476.075 13.3012 3.55828e-10)
(476.005 12.1324 2.08933e-10)
(475.805 14.6714 -1.13752e-10)
(475.668 13.3122 -2.08982e-10)
(475.551 15.755 6.05848e-11)
(475.248 14.6982 1.87549e-10)
(475.926 0.432025 -5.94108e-09)
(475.915 1.17909 1.87649e-09)
(475.907 1.71005 -5.63068e-10)
(475.875 2.5953 8.26912e-11)
(475.856 3.10922 -4.25267e-11)
(475.813 3.99216 -5.95303e-10)
(475.776 4.53685 -4.95879e-10)
(475.727 5.35017 1.59949e-10)
(475.664 5.99023 5.68229e-10)
(475.619 6.65745 6.1853e-10)
(475.525 7.47082 4.69349e-10)
(475.483 7.9051 4.29211e-10)
(475.359 8.97798 1.90162e-10)
(475.32 9.08903 -2.34819e-10)
(475.165 10.5054 -4.42434e-10)
(475.129 10.2129 -3.26313e-10)
(474.945 12.0368 -2.81784e-10)
(474.905 11.2929 7.58645e-12)
(474.702 13.5402 3.57832e-10)
(474.642 12.366 1.98247e-10)
(474.446 14.9528 -1.27028e-10)
(474.325 13.543 -1.70275e-10)
(474.206 16.0963 9.92094e-11)
(473.926 14.9362 2.16665e-10)
(474.426 0.439071 -5.98102e-09)
(474.416 1.19681 1.85574e-09)
(474.408 1.73652 -6.02885e-10)
(474.377 2.63545 8.27545e-11)
(474.36 3.15661 -5.52593e-11)
(474.319 4.0552 -6.24233e-10)
(474.285 4.60547 -4.84464e-10)
(474.24 5.43639 1.55098e-10)
(474.18 6.08052 5.51562e-10)
(474.139 6.76696 6.46343e-10)
(474.05 7.58345 4.77287e-10)
(474.012 8.03786 4.24137e-10)
(473.894 9.11409 2.29395e-10)
(473.861 9.24477 -2.17792e-10)
(473.712 10.6667 -4.37756e-10)
(473.683 10.3911 -2.7905e-10)
(473.505 12.2259 -2.49316e-10)
(473.474 11.4921 -3.88384e-11)
(473.278 13.7607 3.59578e-10)
(473.229 12.5824 1.87058e-10)
(473.037 15.2124 -1.67531e-10)
(472.932 13.7571 -1.59087e-10)
(472.811 16.4146 1.00214e-10)
(472.554 15.1528 1.945e-10)
(472.875 0.445404 -6.05556e-09)
(472.864 1.21281 1.86304e-09)
(472.857 1.76027 -5.67468e-10)
(472.828 2.67177 4.22749e-11)
(472.813 3.19915 -4.92529e-11)
(472.774 4.11234 -5.79505e-10)
(472.742 4.66715 -5.24471e-10)
(472.7 5.5147 1.63218e-10)
(472.645 6.16184 5.99872e-10)
(472.607 6.86664 6.09792e-10)
(472.523 7.68511 4.85277e-10)
(472.491 8.15888 4.76404e-10)
(472.378 9.23717 1.96575e-10)
(472.35 9.38686 -2.12969e-10)
(472.207 10.8129 -3.85815e-10)
(472.186 10.5537 -3.10174e-10)
(472.015 12.3977 -2.43221e-10)
(471.993 11.674 9.40085e-12)
(471.802 13.962 3.27353e-10)
(471.764 12.7806 1.93291e-10)
(471.578 15.4505 -1.14207e-10)
(471.488 13.9544 -1.88649e-10)
(471.365 16.7098 1.0756e-10)
(471.131 15.349 2.42346e-10)
(471.271 0.451023 -6.04203e-09)
(471.261 1.22709 1.90798e-09)
(471.255 1.78129 -5.37768e-10)
(471.227 2.70425 7.76617e-11)
(471.214 3.23681 -8.83222e-11)
(471.177 4.16352 -6.23084e-10)
(471.148 4.72185 -4.93043e-10)
(471.109 5.58502 1.91666e-10)
(471.057 6.23411 6.29257e-10)
(471.024 6.95641 6.45342e-10)
(470.944 7.77573 4.46503e-10)
(470.917 8.26814 4.32583e-10)
(470.809 9.34722 2.2384e-10)
(470.788 9.51531 -1.88876e-10)
(470.651 10.944 -3.66977e-10)
(470.637 10.7006 -2.92283e-10)
(470.472 12.5522 -2.92239e-10)
(470.459 11.8384 -3.28909e-11)
(470.275 14.1437 3.42861e-10)
(470.249 12.96 2.05871e-10)
(470.068 15.6666 -9.4157e-11)
(469.992 14.1349 -1.77572e-10)
(469.869 16.9814 5.35253e-11)
(469.658 15.5241 1.95364e-10)
(469.616 0.455936 -6.12607e-09)
(469.606 1.23968 1.84105e-09)
(469.6 1.79962 -6.2496e-10)
(469.574 2.73291 2.87331e-11)
(469.563 3.26963 -8.88368e-11)
(469.528 4.20877 -6.46572e-10)
(469.502 4.76954 -5.41038e-10)
(469.466 5.64734 1.24934e-10)
(469.418 6.29728 5.4467e-10)
(469.389 7.03618 6.00667e-10)
(469.314 7.85521 4.47972e-10)
(469.292 8.36555 4.14112e-10)
(469.189 9.44416 1.76265e-10)
(469.175 9.63013 -2.55011e-10)
(469.043 11.0599 -4.58534e-10)
(469.037 10.832 -3.31068e-10)
(468.878 12.6893 -2.86005e-10)
(468.874 11.9851 -5.11432e-11)
(468.696 14.3056 3.02636e-10)
(468.681 13.1199 1.51547e-10)
(468.506 15.86 -1.85902e-10)
(468.445 14.298 -2.14418e-10)
(468.322 17.2287 6.10311e-11)
(468.134 15.6777 1.84128e-10)
(467.909 0.460153 -6.08572e-09)
(467.899 1.25058 1.88773e-09)
(467.894 1.81528 -6.14768e-10)
(467.869 2.7578 9.3497e-11)
(467.859 3.29765 -4.9157e-11)
(467.827 4.24814 -6.28204e-10)
(467.804 4.81028 -4.74963e-10)
(467.771 5.70167 1.7507e-10)
(467.727 6.35134 5.74648e-10)
(467.702 7.10593 6.78115e-10)
(467.631 7.92348 5.04766e-10)
(467.614 8.45101 4.4225e-10)
(467.517 9.52786 2.52981e-10)
(467.509 9.73121 -2.04e-10)
(467.383 11.1607 -4.25258e-10)
(467.384 10.948 -3.18944e-10)
(467.232 12.8092 -2.93837e-10)
(467.237 12.1144 -1.29798e-11)
(467.065 14.4478 3.25987e-10)
(467.061 13.2604 1.52026e-10)
(466.892 16.0305 -1.36894e-10)
(466.846 14.4428 -1.90586e-10)
(466.723 17.4507 6.16209e-11)
(466.559 15.8097 2.28168e-10)
(466.15 0.463688 -6.10434e-09)
(466.14 1.25984 1.90384e-09)
(466.136 1.82834 -6.11118e-10)
(466.112 2.77897 1.01299e-10)
(466.104 3.32095 -4.27526e-11)
(466.074 4.2817 -6.23949e-10)
(466.054 4.84414 -4.69454e-10)
(466.024 5.74807 1.83817e-10)
(465.983 6.39632 5.84167e-10)
(465.962 7.16565 6.18671e-10)
(465.897 7.9805 4.43743e-10)
(465.884 8.52444 4.57254e-10)
(465.793 9.59821 1.97204e-10)
(465.791 9.81843 -2.58605e-10)
(465.671 11.2461 -4.13033e-10)
(465.68 11.0484 -3.06773e-10)
(465.533 12.9119 -2.80688e-10)
(465.548 12.2265 3.14452e-13)
(465.382 14.5707 3.42563e-10)
(465.389 13.3816 1.65034e-10)
(465.225 16.1786 -1.23549e-10)
(465.193 14.5676 -1.79095e-10)
(465.074 17.6457 8.33524e-11)
(464.932 15.9203 2.47986e-10)
(464.338 0.46655 -6.14913e-09)
(464.329 1.26748 1.95907e-09)
(464.326 1.83882 -5.86731e-10)
(464.303 2.7965 4.29581e-11)
(464.297 3.33959 -4.32985e-11)
(464.268 4.30953 -5.68938e-10)
(464.251 4.87122 -4.98382e-10)
(464.224 5.78665 1.35833e-10)
(464.187 6.43233 5.93903e-10)
(464.17 7.21544 6.8416e-10)
(464.109 8.0263 4.94708e-10)
(464.102 8.58585 4.24344e-10)
(464.016 9.65512 2.18835e-10)
(464.02 9.89165 -1.85983e-10)
(463.906 11.3159 -4.28956e-10)
(463.923 11.133 -3.34029e-10)
(463.783 12.9971 -2.5268e-10)
(463.806 12.3213 1.38068e-11)
(463.647 14.6742 3.44856e-10)
(463.664 13.4839 1.5284e-10)
(463.506 16.3049 -1.53767e-10)
(463.488 14.6717 -1.60903e-10)
(463.372 17.8123 9.13373e-11)
(463.253 16.0091 1.80016e-10)
(462.475 0.468745 -6.2033e-09)
(462.465 1.27351 1.89709e-09)
(462.463 1.84675 -6.2329e-10)
(462.442 2.8104 2.82025e-11)
(462.437 3.35364 -1.05799e-10)
(462.411 4.3317 -6.8076e-10)
(462.396 4.89158 -5.06958e-10)
(462.372 5.8175 2.30638e-10)
(462.339 6.45947 6.46171e-10)
(462.326 7.25538 6.94033e-10)
(462.269 8.06097 5.24962e-10)
(462.267 8.63529 4.74343e-10)
(462.187 9.6986 2.26478e-10)
(462.197 9.95081 -2.2131e-10)
(462.089 11.3701 -4.37926e-10)
(462.113 11.2017 -3.21569e-10)
(461.98 13.0645 -2.82734e-10)
(462.012 12.3985 -5.12527e-11)
(461.859 14.7582 2.95293e-10)
(461.888 13.5673 1.33928e-10)
(461.735 16.4097 -1.47704e-10)
(461.731 14.7559 -1.29514e-10)
(461.618 17.9506 1.51251e-10)
(461.522 16.0755 2.56961e-10)
(460.558 0.470273 -6.2582e-09)
(460.549 1.27793 1.91359e-09)
(460.548 1.85216 -5.9191e-10)
(460.528 2.82069 2.10467e-11)
(460.525 3.36311 -8.58933e-11)
(460.5 4.34823 -6.32026e-10)
(460.488 4.90529 -5.0155e-10)
(460.468 5.84068 1.96508e-10)
(460.438 6.4778 5.64147e-10)
(460.429 7.28558 6.39779e-10)
(460.377 8.08462 5.05397e-10)
(460.38 8.67287 4.12889e-10)
(460.304 9.7287 1.90577e-10)
(460.321 9.99597 -2.29599e-10)
(460.219 11.4085 -4.17962e-10)
(460.251 11.2542 -2.75242e-10)
(460.124 13.1139 -2.76099e-10)
(460.166 12.4578 -1.78999e-11)
(460.019 14.8223 3.64065e-10)
(460.059 13.6315 1.47131e-10)
(459.912 16.4929 -1.79059e-10)
(459.922 14.8205 -1.87701e-10)
(459.812 18.0613 1.14564e-10)
(459.737 16.1202 2.45069e-10)
(458.589 0.471132 -6.21528e-09)
(458.581 1.28074 1.94629e-09)
(458.58 1.85502 -6.15377e-10)
(458.561 2.82736 3.62429e-11)
(458.559 3.368 -1.00392e-10)