/*--------------------------------*- C++ -*----------------------------------*\
  =========                 |
  \\      /  F ield         | OpenFOAM: The Open Source CFD Toolbox
   \\    /   O peration     | Website:  https://openfoam.org
    \\  /    A nd           | Version:  10
     \\/     M anipulation  |
\*---------------------------------------------------------------------------*/
FoamFile
{
    format      ascii;
    class       surfaceScalarField;
    location    "0.27";
    object      phi;
}
// * * * * * * * * * * * * * * * * * * * * * * * * * * * * * * * * * * * * * //

dimensions      [1 0 -1 0 0 0 0];

internalField   nonuniform List<scalar> 
8154
(
-5.80813e-09
-2.20503e-08
-5.66603e-08
-9.1439e-08
-1.71007e-07
-2.25068e-07
-3.69301e-07
-4.53983e-07
-6.74741e-07
-8.14956e-07
-1.10501e-06
-1.33767e-06
-1.66781e-06
-2.02663e-06
-2.36003e-06
-2.8655e-06
-3.25436e-06
-3.98609e-06
-4.56921e-06
-5.50667e-06
-6.82537e-06
-7.26464e-06
-6.85979e-06
-0.000277438
-0.000832369
2.4053e-08
-0.00138746
9.63173e-08
-0.00194289
2.13591e-07
-0.00249867
3.78468e-07
-0.00305504
5.77953e-07
-0.00361202
8.24309e-07
-0.00416974
1.08926e-06
-0.00472845
1.39803e-06
-0.00528791
1.7107e-06
-0.00584877
2.05532e-06
-0.00641057
2.40208e-06
-0.00697376
2.7477e-06
-0.00753866
3.12047e-06
-0.00810417
3.43696e-06
-0.0086731
3.85103e-06
-0.00924023
4.12732e-06
-0.00981489
4.57542e-06
-0.0103833
4.9241e-06
-0.0109645
5.13611e-06
-0.0115338
5.27642e-06
-0.0121235
5.11492e-06
-0.0126947
4.03132e-06
-0.013293
2.44213e-06
-0.000277462
-0.000832441
2.63713e-08
-0.00138758
1.0488e-07
-0.00194305
2.35024e-07
-0.00249887
4.10626e-07
-0.00305528
6.35935e-07
-0.00361228
8.90406e-07
-0.00417005
1.19551e-06
-0.00472876
1.50139e-06
-0.00528826
1.86659e-06
-0.00584912
2.1899e-06
-0.00641092
2.59262e-06
-0.00697413
2.89236e-06
-0.00753898
3.29911e-06
-0.00810459
3.53999e-06
-0.00867337
3.90519e-06
-0.00924068
4.10622e-06
-0.00981524
4.39207e-06
-0.0103835
5.00203e-06
-0.0109647
4.66316e-06
-0.0115336
5.23047e-06
-0.0121224
5.33002e-06
-0.0126932
5.03963e-06
-0.0132905
4.22291e-06
-0.000277488
-0.00083252
2.13124e-08
-0.00138771
8.50085e-08
-0.00194323
1.88385e-07
-0.00249909
3.30994e-07
-0.00305554
5.02627e-07
-0.00361259
7.08169e-07
-0.00417035
9.23529e-07
-0.00472913
1.16671e-06
-0.00528858
1.39369e-06
-0.00584952
1.64111e-06
-0.00641122
1.84567e-06
-0.00697454
2.0494e-06
-0.00753922
2.19749e-06
-0.00810495
2.2845e-06
-0.00867357
2.35462e-06
-0.00924096
2.20796e-06
-0.00981586
2.34563e-06
-0.0103832
1.89939e-06
-0.0109653
1.7789e-06
-0.0115337
1.39051e-06
-0.0121222
1.15524e-06
-0.0126924
7.1841e-07
-0.0132863
5.09289e-07
-0.00027751
-0.000832584
2.55481e-08
-0.00138781
1.01971e-07
-0.00194337
2.26357e-07
-0.00249926
3.98285e-07
-0.00305574
6.06352e-07
-0.0036128
8.56489e-07
-0.0041706
1.12034e-06
-0.00472936
1.42085e-06
-0.00528883
1.70209e-06
-0.00584972
2.01619e-06
-0.00641142
2.27157e-06
-0.00697469
2.54805e-06
-0.0075393
2.73381e-06
-0.00810502
2.8956e-06
-0.00867342
2.98592e-06
-0.0092411
2.89898e-06
-0.00981541
2.97651e-06
-0.0103831
2.28366e-06
-0.0109649
2.51631e-06
-0.0115335
1.72387e-06
-0.0121217
1.20454e-06
-0.0126921
3.77973e-07
-0.0132858
-1.75198e-07
-0.000277535
-0.00083266
3.36609e-08
-0.00138794
1.34329e-07
-0.00194354
2.99491e-07
-0.00249947
5.26924e-07
-0.00305599
8.08656e-07
-0.00361307
1.14251e-06
-0.0041709
1.51281e-06
-0.00472964
1.91941e-06
-0.00528914
2.33868e-06
-0.00584998
2.7727e-06
-0.0064117
3.19376e-06
-0.00697487
3.59579e-06
-0.00753946
3.96438e-06
-0.00810511
4.25907e-06
-0.00867334
4.52223e-06
-0.00924117
4.61594e-06
-0.00981472
4.73243e-06
-0.0103833
4.40216e-06
-0.0109641
4.36719e-06
-0.0115329
3.67123e-06
-0.0121209
3.2082e-06
-0.0126916
2.26885e-06
-0.013286
1.34899e-06
-0.000277569
-0.000832761
3.75806e-08
-0.0013881
1.49984e-07
-0.00194377
3.34668e-07
-0.00249975
5.88921e-07
-0.00305633
9.05053e-07
-0.00361344
1.27919e-06
-0.0041713
1.69704e-06
-0.00473006
2.15422e-06
-0.00528958
2.63067e-06
-0.0058504
3.12043e-06
-0.0064121
3.60215e-06
-0.00697524
4.05814e-06
-0.00753976
4.482e-06
-0.00810537
4.82177e-06
-0.00867343
5.1237e-06
-0.00924129
5.25005e-06
-0.00981439
5.37084e-06
-0.0103833
5.08452e-06
-0.0109634
4.96934e-06
-0.0115325
4.21272e-06
-0.0121199
3.67031e-06
-0.0126907
2.63823e-06
-0.0132846
1.61734e-06
-0.000277606
-0.000832873
4.14099e-08
-0.00138828
1.65282e-07
-0.00194402
3.68916e-07
-0.00250007
6.49357e-07
-0.0030567
9.98481e-07
-0.00361385
1.41204e-06
-0.00417176
1.8749e-06
-0.00473053
2.38221e-06
-0.00529007
2.91219e-06
-0.00585088
3.45861e-06
-0.00641256
3.99641e-06
-0.00697566
4.50912e-06
-0.0075401
4.98286e-06
-0.00810568
5.37099e-06
-0.00867355
5.70659e-06
-0.00924141
5.86232e-06
-0.0098141
5.99841e-06
-0.0103831
5.72185e-06
-0.0109626
5.60148e-06
-0.011532
4.80613e-06
-0.0121189
4.18848e-06
-0.0126896
2.98943e-06
-0.013283
1.80396e-06
-0.000277648
-0.000832997
4.50997e-08
-0.00138849
1.80003e-07
-0.0019443
4.01832e-07
-0.00250042
7.07242e-07
-0.00305711
1.08782e-06
-0.00361432
1.53848e-06
-0.00417227
2.04398e-06
-0.00473106
2.59791e-06
-0.00529061
3.17871e-06
-0.00585141
3.77743e-06
-0.00641307
4.36932e-06
-0.00697614
4.93414e-06
-0.00754049
5.45703e-06
-0.00810601
5.8888e-06
-0.00867371
6.2572e-06
-0.00924154
6.44077e-06
-0.00981382
6.58229e-06
-0.010383
6.3324e-06
-0.0109619
6.18199e-06
-0.0115313
5.37147e-06
-0.0121177
4.80414e-06
-0.0126884
3.36374e-06
-0.0132812
2.02772e-06
-0.000277693
-0.000833132
4.87387e-08
-0.00138871
1.94511e-07
-0.00194461
4.34218e-07
-0.0025008
7.64099e-07
-0.00305756
1.1753e-06
-0.00361482
1.66196e-06
-0.00417282
2.20841e-06
-0.00473165
2.80706e-06
-0.00529121
3.43601e-06
-0.005852
4.08469e-06
-0.00641363
4.7277e-06
-0.00697666
5.34277e-06
-0.00754092
5.91268e-06
-0.00810638
6.38706e-06
-0.00867389
6.78699e-06
-0.00924168
6.9958e-06
-0.00981357
7.13759e-06
-0.0103829
6.90612e-06
-0.0109611
6.73271e-06
-0.0115307
5.89026e-06
-0.0121163
4.89895e-06
-0.0126871
3.69431e-06
-0.0132792
2.22088e-06
-0.000277742
-0.000833278
5.2326e-08
-0.00138895
2.08809e-07
-0.00194494
4.66115e-07
-0.00250121
8.20049e-07
-0.00305805
1.26124e-06
-0.00361537
1.78301e-06
-0.00417342
2.36907e-06
-0.00473227
3.01068e-06
-0.00529186
3.6854e-06
-0.00585265
4.38127e-06
-0.00641425
5.07222e-06
-0.00697723
5.73455e-06
-0.00754139
6.34896e-06
-0.00810678
6.86426e-06
-0.0086741
7.29523e-06
-0.00924182
7.52748e-06
-0.00981333
7.66827e-06
-0.0103827
7.45025e-06
-0.0109602
7.24762e-06
-0.0115301
6.39512e-06
-0.0121148
5.59486e-06
-0.0126856
4.03656e-06
-0.013277
2.4042e-06
-0.000277794
-0.000833434
5.5877e-08
-0.00138921
2.22965e-07
-0.00194529
4.97709e-07
-0.00250165
8.7549e-07
-0.00305857
1.34638e-06
-0.00361595
1.90287e-06
-0.00417407
2.52789e-06
-0.00473295
3.21148e-06
-0.00529256
3.93035e-06
-0.00585334
4.6713e-06
-0.00641491
5.40731e-06
-0.00697784
6.11384e-06
-0.00754191
6.76962e-06
-0.00810721
7.32351e-06
-0.00867433
7.78475e-06
-0.00924196
8.04171e-06
-0.00981312
8.18878e-06
-0.0103825
7.9728e-06
-0.0109594
7.7444e-06
-0.0115293
6.85898e-06
-0.0121132
6.0046e-06
-0.012684
4.35751e-06
-0.0132746
2.59186e-06
-0.00027785
-0.000833601
5.9385e-08
-0.00138948
2.36959e-07
-0.00194567
5.28966e-07
-0.00250212
9.3041e-07
-0.00305913
1.43082e-06
-0.00361658
2.02184e-06
-0.00417475
2.68551e-06
-0.00473367
3.41061e-06
-0.0052933
4.17269e-06
-0.00585407
4.95723e-06
-0.00641562
5.73598e-06
-0.0069785
6.48376e-06
-0.00754246
7.17732e-06
-0.00810767
7.76627e-06
-0.00867459
8.25486e-06
-0.00924211
8.53477e-06
-0.0098129
8.6884e-06
-0.0103822
8.46975e-06
-0.0109585
8.20645e-06
-0.0115284
7.284e-06
-0.0121116
6.37273e-06
-0.0126822
4.65253e-06
-0.013272
2.7621e-06
-0.000277909
-0.000833779
6.28505e-08
-0.00138977
2.50788e-07
-0.00194607
5.59884e-07
-0.00250262
9.84803e-07
-0.00305972
1.51455e-06
-0.00361724
2.14001e-06
-0.00417547
2.84224e-06
-0.00473443
3.60875e-06
-0.00529408
4.41372e-06
-0.00585485
5.24118e-06
-0.00641636
6.06126e-06
-0.00697919
6.84808e-06
-0.00754305
7.57625e-06
-0.00810816
8.19654e-06
-0.00867487
8.70879e-06
-0.00924226
9.00849e-06
-0.00981268
9.16625e-06
-0.010382
8.94785e-06
-0.0109576
8.64484e-06
-0.0115275
7.67771e-06
-0.0121098
6.70396e-06
-0.0126803
4.89679e-06
-0.0132692
2.90953e-06
-0.000277972
-0.000833967
6.62764e-08
-0.00139008
2.64458e-07
-0.0019465
5.90451e-07
-0.00250315
1.03861e-06
-0.00306034
1.59744e-06
-0.00361794
2.25711e-06
-0.00417624
2.99774e-06
-0.00473524
3.80559e-06
-0.00529491
4.65341e-06
-0.00585567
5.52362e-06
-0.00641715
6.38452e-06
-0.00697992
7.20917e-06
-0.00754367
7.96978e-06
-0.00810867
8.61809e-06
-0.00867517
9.1499e-06
-0.00924242
9.46527e-06
-0.00981246
9.6254e-06
-0.0103817
9.40908e-06
-0.0109566
9.06409e-06
-0.0115265
8.05247e-06
-0.012108
7.00972e-06
-0.0126783
5.05599e-06
-0.0132663
3.0353e-06
-0.000278038
-0.000834165
6.96705e-08
-0.00139041
2.77993e-07
-0.00194694
6.2069e-07
-0.00250371
1.0918e-06
-0.003061
1.67933e-06
-0.00361869
2.37276e-06
-0.00417705
3.15135e-06
-0.00473608
4.00023e-06
-0.00529578
4.8907e-06
-0.00585653
5.80367e-06
-0.00641797
6.70544e-06
-0.00698068
7.56774e-06
-0.00754432
8.36002e-06
-0.00810921
9.03441e-06
-0.00867548
9.58234e-06
-0.00924258
9.90847e-06
-0.00981224
1.00669e-05
-0.0103813
9.8502e-06
-0.0109556
9.46434e-06
-0.0115255
8.4149e-06
-0.0121061
7.3086e-06
-0.0126763
5.2782e-06
-0.0132633
3.1676e-06
-0.000278108
-0.000834373
7.30363e-08
-0.00139075
2.91407e-07
-0.00194741
6.50607e-07
-0.0025043
1.14431e-06
-0.0030617
1.76001e-06
-0.00361946
2.48652e-06
-0.0041779
3.30224e-06
-0.00473697
4.19135e-06
-0.00529669
5.12384e-06
-0.00585743
6.07923e-06
-0.00641884
7.02192e-06
-0.00698148
7.9222e-06
-0.007545
8.74659e-06
-0.00810975
9.44695e-06
-0.00867581
1.00099e-05
-0.00924274
1.03434e-05
-0.00981203
1.04936e-05
-0.0103809
1.02638e-05
-0.0109545
9.84397e-06
-0.0115244
8.75707e-06
-0.012104
7.5894e-06
-0.0126742
5.49643e-06
-0.0132601
3.2912e-06
-0.000278181
-0.000834592
7.63647e-08
-0.00139111
3.04656e-07
-0.00194791
6.801e-07
-0.00250491
1.19595e-06
-0.00306242
1.8391e-06
-0.00362028
2.5977e-06
-0.00417879
3.44935e-06
-0.00473791
4.37734e-06
-0.00529765
5.35055e-06
-0.00585838
6.34734e-06
-0.00641974
7.33042e-06
-0.0069823
8.26876e-06
-0.0075457
9.12608e-06
-0.00811031
9.8535e-06
-0.00867614
1.04327e-05
-0.00924289
1.0774e-05
-0.0098118
1.09148e-05
-0.0103805
1.06681e-05
-0.0109535
1.02133e-05
-0.0115232
9.08942e-06
-0.0121019
7.85946e-06
-0.012672
5.69732e-06
-0.0132569
3.40786e-06
-0.000278258
-0.00083482
7.96299e-08
-0.00139149
3.1764e-07
-0.00194842
7.0895e-07
-0.00250556
1.24634e-06
-0.00306318
1.91607e-06
-0.00362113
2.70557e-06
-0.00417971
3.59161e-06
-0.00473888
4.55671e-06
-0.00529865
5.56872e-06
-0.00585936
6.60511e-06
-0.00642068
7.62719e-06
-0.00698316
8.60288e-06
-0.00754642
9.49342e-06
-0.00811089
1.02491e-05
-0.00867649
1.08467e-05
-0.00924303
1.11981e-05
-0.00981155
1.13318e-05
-0.0103801
1.10705e-05
-0.0109523
1.05763e-05
-0.011522
9.418e-06
-0.0120998
8.12502e-06
-0.0126697
5.89286e-06
-0.0132535
3.52078e-06
-0.000278337
-0.000835058
8.27741e-08
-0.00139188
3.30137e-07
-0.00194896
7.36695e-07
-0.00250623
1.29475e-06
-0.00306397
1.98989e-06
-0.00362202
2.80881e-06
-0.00418068
3.72742e-06
-0.00473989
4.72749e-06
-0.00529968
5.77589e-06
-0.00586038
6.84936e-06
-0.00642165
7.90809e-06
-0.00698405
8.91927e-06
-0.00754718
9.84215e-06
-0.00811149
1.06264e-05
-0.00867684
1.12445e-05
-0.00924316
1.16091e-05
-0.00981129
1.17399e-05
-0.0103796
1.14668e-05
-0.0109512
1.09326e-05
-0.0115207
9.74597e-06
-0.0120975
8.39278e-06
-0.0126673
6.08816e-06
-0.01325
3.63291e-06
-0.00027842
-0.000835305
8.572e-08
-0.00139228
3.41849e-07
-0.00194952
7.62713e-07
-0.00250692
1.34017e-06
-0.00306479
2.05918e-06
-0.00362294
2.9057e-06
-0.00418168
3.85479e-06
-0.00474094
4.88744e-06
-0.00530076
5.9695e-06
-0.00586144
7.0771e-06
-0.00642266
8.16937e-06
-0.00698497
9.21308e-06
-0.00754796
1.0166e-05
-0.00811211
1.09775e-05
-0.0086772
1.16168e-05
-0.00924329
1.19973e-05
-0.00981102
1.21305e-05
-0.010379
1.18504e-05
-0.01095
1.12801e-05
-0.0115193
1.00733e-05
-0.0120952
8.66438e-06
-0.0126648
6.28959e-06
-0.0132464
3.74778e-06
-0.000278506
-0.000835561
8.83783e-08
-0.0013927
3.52428e-07
-0.0019501
7.86259e-07
-0.00250764
1.38138e-06
-0.00306563
2.12221e-06
-0.00362388
2.99405e-06
-0.00418271
3.97114e-06
-0.00474203
5.03367e-06
-0.00530186
6.14649e-06
-0.00586253
7.28498e-06
-0.00642371
8.40729e-06
-0.00698592
9.47985e-06
-0.00754877
1.04592e-05
-0.00811274
1.1295e-05
-0.00867758
1.19538e-05
-0.00924342
1.23505e-05
-0.00981075
1.24903e-05
-0.0103785
1.22109e-05
-0.0109488
1.16189e-05
-0.0115179
1.03923e-05
-0.0120928
8.93322e-06
-0.0126622
6.4973e-06
-0.0132426
3.86651e-06
-0.000278594
-0.000835825
9.06623e-08
-0.00139314
3.61533e-07
-0.00195069
8.06582e-07
-0.00250838
1.41709e-06
-0.00306651
2.17707e-06
-0.00362486
3.07133e-06
-0.00418377
4.07339e-06
-0.00474314
5.16268e-06
-0.005303
6.30302e-06
-0.00586366
7.469e-06
-0.00642478
8.61769e-06
-0.0069869
9.71508e-06
-0.00754961
1.07166e-05
-0.0081134
1.15724e-05
-0.00867798
1.22469e-05
-0.00924356
1.26572e-05
-0.00981047
1.28036e-05
-0.0103779
1.2529e-05
-0.0109476
1.1927e-05
-0.0115165
1.06823e-05
-0.0120904
9.18102e-06
-0.0126596
6.70104e-06
-0.0132388
3.98356e-06
-0.000278685
-0.000836096
9.25007e-08
-0.00139358
3.68876e-07
-0.0019513
8.23026e-07
-0.00250914
1.44611e-06
-0.0030674
2.22194e-06
-0.00362586
3.13496e-06
-0.00418486
4.15817e-06
-0.00474428
5.27039e-06
-0.00530417
6.43448e-06
-0.0058648
7.62421e-06
-0.00642588
8.79544e-06
-0.0069879
9.91363e-06
-0.00755047
1.09329e-05
-0.00811408
1.18039e-05
-0.00867838
1.24895e-05
-0.0092437
1.29086e-05
-0.00981019
1.30584e-05
-0.0103773
1.27865e-05
-0.0109463
1.21744e-05
-0.011515
1.09199e-05
-0.0120879
9.38335e-06
-0.0126569
6.87439e-06
-0.0132348
4.08036e-06
-0.000278777
-0.000836372
9.38444e-08
-0.00139404
3.74252e-07
-0.00195192
8.35099e-07
-0.00250992
1.46752e-06
-0.00306831
2.25522e-06
-0.00362689
3.18253e-06
-0.00418597
4.22214e-06
-0.00474544
5.35247e-06
-0.00530536
6.53563e-06
-0.00586598
7.74468e-06
-0.006427
8.93424e-06
-0.00698892
1.00691e-05
-0.00755134
1.11019e-05
-0.00811476
1.19833e-05
-0.0086788
1.26748e-05
-0.00924385
1.30975e-05
-0.00980992
1.32457e-05
-0.0103767
1.2973e-05
-0.0109451
1.23495e-05
-0.0115134
1.109e-05
-0.0120854
9.51473e-06
-0.0126541
6.97337e-06
-0.0132307
4.12254e-06
-0.000278871
-0.000836653
9.46809e-08
-0.0013945
3.776e-07
-0.00195256
8.42627e-07
-0.0025107
1.48091e-06
-0.00306924
2.27615e-06
-0.00362793
3.21272e-06
-0.0041871
4.26315e-06
-0.00474663
5.40591e-06
-0.00530657
6.60247e-06
-0.00586717
7.82572e-06
-0.00642813
9.02878e-06
-0.00698996
1.01763e-05
-0.00755222
1.12185e-05
-0.00811545
1.2107e-05
-0.00867923
1.27997e-05
-0.009244
1.32217e-05
-0.00980964
1.33622e-05
-0.010376
1.30847e-05
-0.0109438
1.24486e-05
-0.0115119
1.11876e-05
-0.0120828
9.56411e-06
-0.0126512
6.96194e-06
-0.0132266
4.08327e-06
-0.000278966
-0.000836935
9.5389e-08
-0.00139496
3.80428e-07
-0.0019532
8.48969e-07
-0.0025115
1.49218e-06
-0.00307018
2.29378e-06
-0.00362898
3.23824e-06
-0.00418825
4.2982e-06
-0.00474783
5.45233e-06
-0.00530779
6.66198e-06
-0.00586837
7.90002e-06
-0.00642928
9.11882e-06
-0.006991
1.02825e-05
-0.00755311
1.13398e-05
-0.00811615
1.22418e-05
-0.00867965
1.29439e-05
-0.00924414
1.33725e-05
-0.00980936
1.35139e-05
-0.0103754
1.32382e-05
-0.0109426
1.25981e-05
-0.0115102
1.13416e-05
-0.0120802
9.69341e-06
-0.0126484
7.05056e-06
-0.0132225
4.16696e-06
-0.000279061
-0.00083722
9.57002e-08
-0.00139543
3.81662e-07
-0.00195384
8.51711e-07
-0.0025123
1.49701e-06
-0.00307112
2.30132e-06
-0.00363004
3.24924e-06
-0.0041894
4.3136e-06
-0.00474904
5.47345e-06
-0.00530903
6.6904e-06
-0.00586959
7.93762e-06
-0.00643044
9.16741e-06
-0.00699205
1.03436e-05
-0.00755401
1.14142e-05
-0.00811685
1.23289e-05
-0.00868008
1.30419e-05
-0.00924428
1.34784e-05
-0.00980908
1.36229e-05
-0.0103748
1.33488e-05
-0.0109413
1.27045e-05
-0.0115086
1.14501e-05
-0.0120776
9.79752e-06
-0.0126455
7.13627e-06
-0.0132183
4.3167e-06
-0.000279157
-0.000837506
9.55028e-08
-0.0013959
3.80863e-07
-0.00195448
8.49879e-07
-0.0025131
1.49373e-06
-0.00307207
2.29617e-06
-0.0036311
3.24198e-06
-0.00419056
4.30417e-06
-0.00475025
5.46228e-06
-0.00531028
6.67833e-06
-0.00587082
7.92619e-06
-0.00643162
9.15846e-06
-0.00699312
1.03395e-05
-0.00755492
1.14169e-05
-0.00811756
1.234e-05
-0.00868052
1.30615e-05
-0.00924442
1.35052e-05
-0.0098088
1.36526e-05
-0.0103741
1.33792e-05
-0.01094
1.27288e-05
-0.0115069
1.14766e-05
-0.0120749
9.82232e-06
-0.0126425
7.16488e-06
-0.0132142
3.98628e-06
-0.000279252
-0.000837791
9.4833e-08
-0.00139637
3.78182e-07
-0.00195513
8.43856e-07
-0.00251391
1.48308e-06
-0.00307301
2.27965e-06
-0.00363217
3.21853e-06
-0.00419172
4.27292e-06
-0.00475147
5.42284e-06
-0.00531152
6.63075e-06
-0.00587205
7.87134e-06
-0.0064328
9.09784e-06
-0.0069942
1.02756e-05
-0.00755584
1.13528e-05
-0.00811828
1.22792e-05
-0.00868096
1.30068e-05
-0.00924457
1.34583e-05
-0.00980853
1.36118e-05
-0.0103735
1.33423e-05
-0.0109388
1.26871e-05
-0.0115053
1.14326e-05
-0.0120723
9.75916e-06
-0.0126396
7.15131e-06
-0.0132099
3.93555e-06
-0.000279347
-0.000838074
9.37164e-08
-0.00139684
3.73733e-07
-0.00195577
8.33927e-07
-0.0025147
1.46565e-06
-0.00307395
2.25284e-06
-0.00363322
3.18068e-06
-0.00419287
4.2226e-06
-0.00475268
5.35907e-06
-0.00531276
6.55291e-06
-0.00587328
7.77959e-06
-0.00643398
8.993e-06
-0.00699528
1.01599e-05
-0.00755677
1.12293e-05
-0.00811901
1.21526e-05
-0.00868142
1.28823e-05
-0.00924472
1.3341e-05
-0.00980826
1.35049e-05
-0.0103728
1.32471e-05
-0.0109375
1.25974e-05
-0.0115036
1.13456e-05
-0.0120697
9.64819e-06
-0.0126368
7.09339e-06
-0.0132056
4.19904e-06
-0.00027944
-0.000838354
9.21798e-08
-0.0013973
3.67625e-07
-0.0019564
8.20359e-07
-0.00251549
1.44196e-06
-0.00307488
2.21663e-06
-0.00363426
3.1299e-06
-0.00419401
4.1555e-06
-0.00475387
5.27438e-06
-0.00531399
6.44968e-06
-0.00587449
7.65744e-06
-0.00643514
8.85206e-06
-0.00699635
1.00016e-05
-0.00755769
1.10563e-05
-0.00811974
1.19695e-05
-0.00868188
1.26951e-05
-0.00924488
1.31577e-05
-0.009808
1.33329e-05
-0.0103722
1.30935e-05
-0.0109363
1.24638e-05
-0.0115019
1.12345e-05
-0.0120671
9.5459e-06
-0.0126339
7.01892e-06
-0.0132014
4.16634e-06
-0.000279533
-0.000838629
9.02626e-08
-0.00139775
3.60015e-07
-0.00195702
8.0349e-07
-0.00251626
1.4126e-06
-0.00307579
2.17194e-06
-0.00363529
3.06752e-06
-0.00419512
4.07359e-06
-0.00475505
5.17159e-06
-0.0053152
6.32506e-06
-0.00587569
7.51049e-06
-0.00643629
8.68257e-06
-0.0069974
9.81051e-06
-0.0075586
1.08451e-05
-0.00812046
1.17421e-05
-0.00868234
1.24567e-05
-0.00924505
1.29169e-05
-0.00980776
1.30995e-05
-0.0103715
1.28793e-05
-0.010935
1.22784e-05
-0.0115002
1.10883e-05
-0.0120646
9.4358e-06
-0.012631
6.94011e-06
-0.0131972
4.12043e-06
-0.000279623
-0.000838899
8.80232e-08
-0.00139819
3.51129e-07
-0.00195763
7.83804e-07
-0.00251702
1.37837e-06
-0.00307669
2.11991e-06
-0.00363629
2.99506e-06
-0.00419622
3.97872e-06
-0.0047562
5.05307e-06
-0.00531638
6.18214e-06
-0.00587686
7.34293e-06
-0.00643742
8.49035e-06
-0.00699844
9.5945e-06
-0.0075595
1.06063e-05
-0.00812118
1.14835e-05
-0.0086828
1.21817e-05
-0.00924524
1.26329e-05
-0.00980754
1.28157e-05
-0.0103709
1.26095e-05
-0.0109338
1.20379e-05
-0.0114986
1.08947e-05
-0.0120621
9.29258e-06
-0.0126282
6.85944e-06
-0.0131931
4.06567e-06
-0.000279711
-0.000839162
8.55366e-08
-0.00139862
3.41258e-07
-0.00195822
7.61919e-07
-0.00251776
1.34028e-06
-0.00307757
2.06196e-06
-0.00363728
2.91432e-06
-0.0041973
3.87302e-06
-0.00475733
4.92114e-06
-0.00531754
6.02352e-06
-0.00587801
7.15776e-06
-0.00643852
8.27924e-06
-0.00699945
9.35891e-06
-0.00756038
1.03476e-05
-0.00812188
1.12044e-05
-0.00868326
1.18841e-05
-0.00924542
1.23223e-05
-0.00980734
1.24983e-05
-0.0103704
1.22978e-05
-0.0109327
1.17479e-05
-0.011497
1.06493e-05
-0.0120597
9.1104e-06
-0.0126254
6.77729e-06
-0.013189
4.00631e-06
-0.000279796
-0.000839417
8.28856e-08
-0.00139904
3.30725e-07
-0.0019588
7.38537e-07
-0.00251849
1.2995e-06
-0.00307842
1.99977e-06
-0.00363824
2.82741e-06
-0.00419834
3.75896e-06
-0.00475843
4.77847e-06
-0.00531868
5.85179e-06
-0.00587913
6.95745e-06
-0.0064396
8.05162e-06
-0.00700044
9.10644e-06
-0.00756123
1.00729e-05
-0.00812256
1.09106e-05
-0.00868369
1.15736e-05
-0.00924559
1.19991e-05
-0.00980713
1.21659e-05
-0.0103698
1.19646e-05
-0.0109316
1.14247e-05
-0.0114954
1.03565e-05
-0.0120573
8.87642e-06
-0.0126227
6.65107e-06
-0.013185
3.92926e-06
-0.000279879
-0.000839665
8.01472e-08
-0.00139945
3.19833e-07
-0.00195936
7.14318e-07
-0.00251919
1.25716e-06
-0.00307925
1.935e-06
-0.00363917
2.73658e-06
-0.00419936
3.63923e-06
-0.0047595
4.62803e-06
-0.00531978
5.66991e-06
-0.00588022
6.74462e-06
-0.00644066
7.80946e-06
-0.0070014
8.83824e-06
-0.00756207
9.7825e-06
-0.00812322
1.06029e-05
-0.00868412
1.12525e-05
-0.00924575
1.16695e-05
-0.00980693
1.18312e-05
-0.0103693
1.163e-05
-0.0109305
1.10947e-05
-0.011494
1.00428e-05
-0.0120551
8.59371e-06
-0.0126199
6.42293e-06
-0.0131811
3.81883e-06
-0.000279959
-0.000839905
7.73792e-08
-0.00139985
3.08813e-07
-0.0019599
6.89782e-07
-0.00251986
1.21417e-06
-0.00308005
1.86905e-06
-0.00364007
2.64376e-06
-0.00420035
3.51634e-06
-0.00476055
4.47278e-06
-0.00532086
5.48106e-06
-0.00588129
6.52225e-06
-0.00644169
7.55515e-06
-0.00700235
8.55542e-06
-0.00756289
9.47593e-06
-0.00812387
1.02787e-05
-0.00868454
1.09173e-05
-0.00924591
1.13302e-05
-0.00980672
1.14946e-05
-0.0103688
1.13015e-05
-0.0109295
1.07774e-05
-0.0114925
9.74238e-06
-0.0120529
8.31516e-06
-0.0126173
6.19013e-06
-0.0131773
3.67571e-06
-0.000280037
-0.000840136
7.46133e-08
-0.00140023
2.97793e-07
-0.00196043
6.65222e-07
-0.00252052
1.17107e-06
-0.00308082
1.80282e-06
-0.00364094
2.55026e-06
-0.00420131
3.39208e-06
-0.00476155
4.31503e-06
-0.0053219
5.288e-06
-0.00588232
6.29337e-06
-0.00644269
7.29139e-06
-0.00700327
8.25981e-06
-0.00756369
9.15304e-06
-0.00812452
9.93534e-06
-0.00868495
1.05617e-05
-0.00924608
1.0972e-05
-0.00980652
1.11452e-05
-0.0103682
1.09691e-05
-0.0109284
1.04702e-05
-0.0114911
9.46197e-06
-0.0120508
8.06093e-06
-0.0126148
5.97272e-06
-0.0131736
3.4896e-06
-0.000280111
-0.00084036
7.18483e-08
-0.0014006
2.86772e-07
-0.00196093
6.40648e-07
-0.00252115
1.12792e-06
-0.00308157
1.73642e-06
-0.00364179
2.45638e-06
-0.00420223
3.26699e-06
-0.00476253
4.15565e-06
-0.00532291
5.09207e-06
-0.00588332
6.05973e-06
-0.00644366
7.02018e-06
-0.00700416
7.95313e-06
-0.00756447
8.81454e-06
-0.00812514
9.57116e-06
-0.00868536
1.01808e-05
-0.00924625
1.05846e-05
-0.00980634
1.07667e-05
-0.0103677
1.06116e-05
-0.0109274
1.01514e-05
-0.0114897
9.18691e-06
-0.0120487
7.83937e-06
-0.0126123
5.79282e-06
-0.0131701
3.31654e-06
-0.000280183
-0.000840575
6.9062e-08
-0.00140095
2.75664e-07
-0.00196142
6.15873e-07
-0.00252176
1.08439e-06
-0.00308229
1.66941e-06
-0.0036426
2.36155e-06
-0.00420312
3.14047e-06
-0.00476346
3.99408e-06
-0.00532387
4.89293e-06
-0.00588428
5.82134e-06
-0.00644459
6.74202e-06
-0.00700503
7.63623e-06
-0.00756522
8.46139e-06
-0.00812576
9.18637e-06
-0.00868576
9.77253e-06
-0.00924643
1.01622e-05
-0.00980618
1.0346e-05
-0.0103673
1.0206e-05
-0.0109265
9.78756e-06
-0.0114883
8.87462e-06
-0.0120467
7.61301e-06
-0.0126099
5.64843e-06
-0.0131668
3.29217e-06
-0.000280253
-0.000840782
6.6205e-08
-0.00140129
2.64276e-07
-0.00196189
5.9047e-07
-0.00252234
1.03974e-06
-0.00308298
1.60065e-06
-0.00364338
2.26418e-06
-0.00420397
3.01043e-06
-0.00476436
3.82784e-06
-0.0053248
4.68777e-06
-0.0058852
5.57526e-06
-0.00644548
6.45415e-06
-0.00700585
7.30669e-06
-0.00756595
8.09175e-06
-0.00812634
8.7797e-06
-0.00868615
9.3358e-06
-0.00924661
9.70215e-06
-0.00980604
9.87627e-06
-0.0103669
9.73805e-06
-0.0109256
9.35054e-06
-0.0114871
8.47939e-06
-0.0120447
7.31e-06
-0.0126075
5.44002e-06
-0.0131635
3.22755e-06
-0.000280319
-0.00084098
6.32108e-08
-0.00140162
2.52332e-07
-0.00196234
5.63813e-07
-0.0025229
9.92853e-07
-0.00308364
1.5284e-06
-0.00364412
2.16181e-06
-0.00420479
2.8736e-06
-0.00476522
3.6528e-06
-0.00532569
4.4715e-06
-0.00588609
5.31584e-06
-0.00644634
6.15002e-06
-0.00700664
6.95818e-06
-0.00756663
7.69877e-06
-0.0081269
8.34619e-06
-0.00868652
8.86518e-06
-0.00924679
9.20257e-06
-0.0098059
9.35206e-06
-0.0103665
9.20464e-06
-0.0109247
8.82445e-06
-0.0114859
7.98298e-06
-0.0120429
6.88336e-06
-0.0126053
5.11106e-06
-0.0131603
3.04576e-06
-0.000280382
-0.00084117
6.03357e-08
-0.00140193
2.40852e-07
-0.00196277
5.38196e-07
-0.00252344
9.47827e-07
-0.00308428
1.45906e-06
-0.00364483
2.06364e-06
-0.00420557
2.74249e-06
-0.00476604
3.48541e-06
-0.00532654
4.26508e-06
-0.00588692
5.06916e-06
-0.00644715
5.86157e-06
-0.00700739
6.62934e-06
-0.00756728
7.32891e-06
-0.00812741
7.94129e-06
-0.00868686
8.42691e-06
-0.00924694
8.74163e-06
-0.00980576
8.86547e-06
-0.0103661
8.7115e-06
-0.0109239
8.32735e-06
-0.0114848
7.51456e-06
-0.0120411
6.46079e-06
-0.0126032
4.77602e-06
-0.0131572
2.82073e-06
-0.000280443
-0.000841351
5.77917e-08
-0.00140223
2.30709e-07
-0.00196318
5.15592e-07
-0.00252395
9.08169e-07
-0.00308488
1.39812e-06
-0.00364551
1.97757e-06
-0.00420631
2.62794e-06
-0.00476682
3.33971e-06
-0.00532734
4.08672e-06
-0.00588772
4.85729e-06
-0.00644791
5.61659e-06
-0.00700809
6.35203e-06
-0.00756789
7.02223e-06
-0.00812789
7.6092e-06
-0.00868717
8.07792e-06
-0.00924707
8.38035e-06
-0.00980562
8.49922e-06
-0.0103657
8.34505e-06
-0.0109231
7.97839e-06
-0.0114837
7.19226e-06
-0.0120394
6.20226e-06
-0.0126013
4.57982e-06
-0.0131544
2.7466e-06
-0.000280501
-0.000841524
5.50483e-08
-0.00140251
2.19777e-07
-0.00196357
4.91231e-07
-0.00252444
8.6541e-07
-0.00308546
1.33236e-06
-0.00364616
1.8846e-06
-0.00420702
2.50413e-06
-0.00476757
3.18217e-06
-0.00532811
3.89389e-06
-0.00588848
4.62822e-06
-0.00644865
5.35173e-06
-0.00700876
6.05185e-06
-0.00756848
6.69013e-06
-0.00812835
7.24916e-06
-0.00868748
7.69978e-06
-0.00924719
7.98874e-06
-0.00980548
8.10447e-06
-0.0103653
7.95085e-06
-0.0109223
7.60426e-06
-0.0114827
6.84332e-06
-0.0120378
5.90307e-06
-0.0125995
4.33475e-06
-0.0131517
2.66799e-06
-0.000280556
-0.00084169
5.20772e-08
-0.00140278
2.07948e-07
-0.00196394
4.6488e-07
-0.0025249
8.19165e-07
-0.00308601
1.26121e-06
-0.00364678
1.78398e-06
-0.0042077
2.37011e-06
-0.00476828
3.01165e-06
-0.00532884
3.68529e-06
-0.0058892
4.38058e-06
-0.00644935
5.06549e-06
-0.0070094
5.72731e-06
-0.00756904
6.33086e-06
-0.00812878
6.85918e-06
-0.00868776
7.28917e-06
-0.00924731
7.56243e-06
-0.00980534
7.67633e-06
-0.0103649
7.52705e-06
-0.0109215
7.21076e-06
-0.0114817
6.48134e-06
-0.0120362
5.57837e-06
-0.0125978
4.04171e-06
-0.013149
2.46882e-06
-0.000280609
-0.000841846
4.88525e-08
-0.00140304
1.95126e-07
-0.0019643
4.36345e-07
-0.00252534
7.69112e-07
-0.00308653
1.18421e-06
-0.00364736
1.67509e-06
-0.00420834
2.22512e-06
-0.00476895
2.8273e-06
-0.00532954
3.46e-06
-0.00588989
4.11333e-06
-0.00645002
4.75701e-06
-0.00701001
5.37759e-06
-0.00756957
5.94416e-06
-0.0081292
6.43886e-06
-0.00868803
6.84563e-06
-0.00924743
7.09911e-06
-0.0098052
7.21113e-06
-0.0103646
7.06712e-06
-0.0109207
6.79264e-06
-0.0114808
6.10463e-06
-0.0120347
5.28266e-06
-0.0125962
4.04653e-06
-0.0131466
2.31251e-06
-0.000280658
-0.000841993
4.53508e-08
-0.00140328
1.81225e-07
-0.00196463
4.05438e-07
-0.00252576
7.14936e-07
-0.00308702
1.10088e-06
-0.00364791
1.55731e-06
-0.00420895
2.06842e-06
-0.00476958
2.62818e-06
-0.00533019
3.21692e-06
-0.00589053
3.82519e-06
-0.00645064
4.42499e-06
-0.00701059
5.00145e-06
-0.00757007
5.52927e-06
-0.0081296
5.98781e-06
-0.00868828
6.36942e-06
-0.00924755
6.59899e-06
-0.00980506
6.70969e-06
-0.0103644
6.56807e-06
-0.0109201
6.33125e-06
-0.01148
5.68519e-06
-0.0120331
4.97291e-06
-0.0125948
3.61955e-06
-0.0131442
2.15354e-06
-0.000280703
-0.00084213
4.15602e-08
-0.00140351
1.66195e-07
-0.00196494
3.72037e-07
-0.00252614
6.56402e-07
-0.00308748
1.01089e-06
-0.00364843
1.43018e-06
-0.00420951
1.89937e-06
-0.00477017
2.41354e-06
-0.0053308
2.95506e-06
-0.00589113
3.5148e-06
-0.00645122
4.06802e-06
-0.00701112
4.59726e-06
-0.00757053
5.08507e-06
-0.00812997
5.50498e-06
-0.00868851
5.86017e-06
-0.00924766
6.0627e-06
-0.00980491
6.17834e-06
-0.0103641
6.03739e-06
-0.0109194
5.82573e-06
-0.0114793
5.18813e-06
-0.0120318
4.60837e-06
-0.0125934
3.31302e-06
-0.0131421
1.97249e-06
-0.000280745
-0.000842255
3.749e-08
-0.00140371
1.5005e-07
-0.00196522
3.36127e-07
-0.0025265
5.93428e-07
-0.0030879
9.14067e-07
-0.0036489
1.29348e-06
-0.00421002
1.71775e-06
-0.00477071
2.18301e-06
-0.00533135
2.67382e-06
-0.00589169
3.18123e-06
-0.00645175
3.68495e-06
-0.00701161
4.16358e-06
-0.00757095
4.61072e-06
-0.00813032
4.98912e-06
-0.00868872
5.31708e-06
-0.00924777
5.48904e-06
-0.00980477
5.61894e-06
-0.0103639
5.47943e-06
-0.0109188
5.33687e-06
-0.0114787
5.03919e-06
-0.0120305
4.09753e-06
-0.012592
3.00252e-06
-0.0131401
1.78095e-06
-0.000280783
-0.000842368
3.31688e-08
-0.0014039
1.32866e-07
-0.00196548
2.9781e-07
-0.00252682
5.26139e-07
-0.00308828
8.10525e-07
-0.00364932
1.14738e-06
-0.00421049
1.52379e-06
-0.0047712
1.93687e-06
-0.00533186
2.37339e-06
-0.00589219
2.82419e-06
-0.00645223
3.27546e-06
-0.00701206
3.69968e-06
-0.00757133
4.10648e-06
-0.00813064
4.43965e-06
-0.0086889
4.74238e-06
-0.00924789
4.87712e-06
-0.00980464
5.02675e-06
-0.0103637
4.87712e-06
-0.0109181
4.8246e-06
-0.0114782
4.34299e-06
-0.0120294
3.6632e-06
-0.0125908
2.72054e-06
-0.0131383
1.60322e-06
-0.000280817
-0.000842469
2.8619e-08
-0.00140406
1.14717e-07
-0.0019657
2.57232e-07
-0.0025271
4.54771e-07
-0.00308861
7.00608e-07
-0.0036497
9.92414e-07
-0.0042109
1.31832e-06
-0.00477164
1.67614e-06
-0.00533231
2.05486e-06
-0.00589264
2.44444e-06
-0.00645266
2.8407e-06
-0.00701247
3.20574e-06
-0.00757166
3.57462e-06
-0.00813095
3.85612e-06
-0.00868905
4.14401e-06
-0.00924803
4.23186e-06
-0.00980448
4.42566e-06
-0.0103637
4.57113e-06
-0.0109176
4.1574e-06
-0.0114776
3.75348e-06
-0.0120285
3.20167e-06
-0.0125897
2.3886e-06
-0.0131367
1.40601e-06
-0.000280846
-0.000842555
2.38104e-08
-0.00140421
9.56134e-08
-0.0019659
2.14541e-07
-0.00252734
3.79732e-07
-0.0030889
5.85051e-07
-0.00365002
8.29627e-07
-0.00421126
1.10264e-06
-0.00477202
1.40245e-06