/*--------------------------------*- C++ -*----------------------------------*\
  =========                 |
  \\      /  F ield         | OpenFOAM: The Open Source CFD Toolbox
   \\    /   O peration     | Website:  https://openfoam.org
    \\  /    A nd           | Version:  10
     \\/     M anipulation  |
\*---------------------------------------------------------------------------*/
FoamFile
{
    format      ascii;
    class       volScalarField;
    location    "0.27";
    object      rho;
}
// * * * * * * * * * * * * * * * * * * * * * * * * * * * * * * * * * * * * * //

dimensions      [1 -3 0 0 0 0 0];

internalField   nonuniform List<scalar> 
4176
(
0.0308487
0.0308518
0.0308579
0.0308684
0.0308814
0.0308978
0.0309187
0.0309402
0.0309694
0.0309956
0.0310323
0.0310648
0.0311069
0.0311476
0.0311926
0.0312439
0.0312871
0.0313549
0.0313935
0.031479
0.0315107
0.0316162
0.0316361
0.0317505
0.0308567
0.0308596
0.0308648
0.0308749
0.0308858
0.0309016
0.0309192
0.03094
0.030965
0.03099
0.031022
0.0310524
0.0310899
0.0311271
0.0311682
0.0312142
0.0312541
0.0313144
0.0313501
0.0314266
0.0314539
0.0315542
0.0315747
0.0317037
0.030876
0.030879
0.0308845
0.0308947
0.0309062
0.0309225
0.030941
0.0309622
0.0309885
0.0310141
0.0310477
0.0310788
0.0311182
0.0311563
0.0311997
0.0312468
0.0312891
0.031352
0.0313878
0.0314681
0.0314955
0.0315946
0.0316132
0.0317344
0.0309047
0.0309076
0.0309129
0.0309229
0.0309341
0.0309499
0.0309679
0.0309885
0.0310142
0.0310388
0.031072
0.0311017
0.0311408
0.0311771
0.0312202
0.0312655
0.0313074
0.0313704
0.0314016
0.0314842
0.0315092
0.031607
0.0316245
0.0317368
0.0309442
0.0309471
0.0309523
0.0309624
0.0309735
0.0309894
0.0310073
0.031028
0.0310535
0.0310784
0.0311112
0.0311413
0.0311801
0.0312166
0.0312598
0.0313045
0.0313484
0.0314082
0.0314431
0.0315236
0.0315504
0.0316476
0.0316665
0.0317805
0.0309937
0.0309966
0.0310017
0.0310117
0.0310226
0.0310383
0.0310558
0.0310765
0.0311014
0.0311262
0.0311583
0.0311882
0.0312263
0.0312624
0.0313051
0.0313488
0.0313932
0.03145
0.0314882
0.0315648
0.0315924
0.0316885
0.0317083
0.0318237
0.0310536
0.0310565
0.0310615
0.0310715
0.0310822
0.0310979
0.0311152
0.0311357
0.0311603
0.0311849
0.0312168
0.0312463
0.0312842
0.0313198
0.0313624
0.0314054
0.0314499
0.0315052
0.0315443
0.0316189
0.0316478
0.0317422
0.0317624
0.0318759
0.0311237
0.0311266
0.0311316
0.0311415
0.031152
0.0311676
0.0311846
0.0312049
0.0312292
0.0312535
0.0312849
0.0313141
0.0313516
0.0313866
0.0314289
0.031471
0.0315156
0.0315689
0.0316092
0.0316812
0.0317112
0.031804
0.0318247
0.0319369
0.0312042
0.0312071
0.031212
0.0312218
0.0312322
0.0312476
0.0312644
0.0312845
0.0313085
0.0313325
0.0313635
0.0313923
0.0314293
0.0314638
0.0315058
0.031547
0.0315916
0.0316433
0.0316844
0.031754
0.0317849
0.0318759
0.0318969
0.0320074
0.031295
0.0312979
0.0313027
0.0313125
0.0313227
0.0313379
0.0313544
0.0313743
0.0313979
0.0314216
0.0314523
0.0314806
0.0315172
0.031551
0.0315926
0.0316329
0.0316774
0.0317274
0.0317692
0.0318364
0.0318684
0.0319568
0.0319784
0.0320871
0.0313963
0.0313991
0.0314039
0.0314135
0.0314236
0.0314387
0.0314549
0.0314745
0.0314978
0.0315211
0.0315513
0.0315791
0.0316153
0.0316484
0.0316896
0.031729
0.0317732
0.0318218
0.0318641
0.0319289
0.0319619
0.0320474
0.0320697
0.0321763
0.031508
0.0315109
0.0315155
0.0315251
0.0315349
0.0315498
0.0315657
0.0315851
0.031608
0.0316309
0.0316607
0.031688
0.0317236
0.0317561
0.0317968
0.0318351
0.0318791
0.0319262
0.0319688
0.0320312
0.0320647
0.0321481
0.0321705
0.0322751
0.0316303
0.0316331
0.0316377
0.0316471
0.0316567
0.0316714
0.0316871
0.0317061
0.0317286
0.0317512
0.0317804
0.0318072
0.0318423
0.031874
0.0319142
0.0319515
0.0319951
0.0320407
0.0320836
0.0321436
0.0321778
0.0322585
0.032281
0.0323834
0.0317632
0.031766
0.0317705
0.0317798
0.0317892
0.0318036
0.0318189
0.0318377
0.0318597
0.0318818
0.0319106
0.0319368
0.0319713
0.0320023
0.0320419
0.0320782
0.0321213
0.0321654
0.0322084
0.0322661
0.0323007
0.032379
0.0324014
0.0325014
0.0319068
0.0319096
0.031914
0.0319231
0.0319323
0.0319465
0.0319614
0.0319798
0.0320014
0.0320231
0.0320512
0.0320768
0.0321107
0.0321409
0.0321799
0.0322152
0.0322577
0.0323003
0.0323433
0.0323985
0.0324338
0.0325091
0.0325317
0.0326292
0.0320612
0.032064
0.0320682
0.0320772
0.0320862
0.0321001
0.0321147
0.0321327
0.0321537
0.0321749
0.0322025
0.0322274
0.0322607
0.03229
0.0323283
0.0323625
0.0324044
0.0324456
0.0324883
0.0325412
0.0325767
0.0326493
0.0326723
0.0327669
0.0322265
0.0322292
0.0322333
0.0322422
0.0322509
0.0322646
0.0322787
0.0322963
0.0323168
0.0323374
0.0323644
0.0323886
0.0324211
0.0324496
0.0324872
0.0325202
0.0325615
0.0326012
0.0326435
0.032694
0.03273
0.0327995
0.0328229
0.0329146
0.0324028
0.0324055
0.0324094
0.0324182
0.0324265
0.0324399
0.0324536
0.0324708
0.0324908
0.0325108
0.032537
0.0325605
0.0325923
0.0326198
0.0326566
0.0326885
0.0327291
0.0327672
0.0328091
0.0328572
0.0328934
0.0329599
0.0329836
0.0330724
0.0325901
0.0325928
0.0325966
0.0326052
0.0326132
0.0326263
0.0326396
0.0326563
0.0326757
0.032695
0.0327205
0.0327432
0.0327742
0.0328007
0.0328366
0.0328673
0.0329071
0.0329436
0.032985
0.0330307
0.0330671
0.0331307
0.0331546
0.0332403
0.0327887
0.0327913
0.032795
0.0328034
0.0328111
0.0328238
0.0328366
0.0328528
0.0328716
0.0328903
0.032915
0.0329369
0.0329669
0.0329924
0.0330274
0.0330568
0.0330957
0.0331307
0.0331714
0.0332147
0.0332513
0.0333116
0.033336
0.0334184
0.0329986
0.0330011
0.0330047
0.0330128
0.0330202
0.0330326
0.0330449
0.0330605
0.0330786
0.0330966
0.0331206
0.0331415
0.0331707
0.0331951
0.0332291
0.0332572
0.0332951
0.0333284
0.0333684
0.0334093
0.0334458
0.0335032
0.0335277
0.0336069
0.0332199
0.0332224
0.0332258
0.0332337
0.0332407
0.0332527
0.0332644
0.0332795
0.0332969
0.0333142
0.0333373
0.0333573
0.0333855
0.0334088
0.0334418
0.0334684
0.0335053
0.0335369
0.033576
0.0336147
0.0336511
0.033705
0.0337299
0.0338057
0.0334527
0.0334551
0.0334583
0.033466
0.0334727
0.0334842
0.0334954
0.0335099
0.0335265
0.033543
0.0335653
0.0335843
0.0336115
0.0336337
0.0336655
0.0336908
0.0337266
0.0337564
0.0337945
0.0338309
0.033867
0.0339177
0.0339426
0.0340149
0.0336971
0.0336995
0.0337025
0.0337099
0.0337162
0.0337273
0.0337378
0.0337517
0.0337676
0.0337833
0.0338046
0.0338227
0.0338489
0.0338697
0.0339005
0.0339243
0.033959
0.0339869
0.0340241
0.034058
0.0340939
0.0341411
0.0341661
0.0342347
0.0339531
0.0339555
0.0339583
0.0339655
0.0339713
0.033982
0.0339919
0.0340052
0.0340203
0.0340351
0.0340555
0.0340725
0.0340976
0.0341172
0.0341468
0.0341691
0.0342026
0.0342287
0.0342647
0.0342963
0.0343316
0.0343757
0.0344005
0.0344651
0.034221
0.0342233
0.0342259
0.0342329
0.0342383
0.0342485
0.0342578
0.0342703
0.0342846
0.0342985
0.0343179
0.0343338
0.0343578
0.0343761
0.0344045
0.0344253
0.0344575
0.0344818
0.0345167
0.0345459
0.0345806
0.0346212
0.034646
0.0347066
0.0345007
0.0345029
0.0345054
0.034512
0.034517
0.0345268
0.0345354
0.0345473
0.0345607
0.0345737
0.0345921
0.0346069
0.0346297
0.0346467
0.0346738
0.034693
0.0347239
0.0347463
0.03478
0.0348068
0.0348407
0.0348779
0.0349026
0.0349595
0.0347923
0.0347945
0.0347967
0.0348032
0.0348077
0.034817
0.034825
0.0348361
0.0348487
0.0348608
0.0348781
0.0348918
0.0349134
0.034929
0.0349548
0.0349723
0.0350019
0.0350224
0.0350548
0.0350792
0.0351122
0.0351458
0.0351706
0.0352234
0.035096
0.0350981
0.0351001
0.0351063
0.0351104
0.0351192
0.0351265
0.035137
0.0351487
0.0351599
0.0351761
0.0351886
0.035209
0.0352231
0.0352476
0.0352635
0.0352916
0.0353101
0.0353412
0.0353633
0.0353953
0.0354253
0.0354499
0.0354987
0.0354117
0.0354139
0.0354157
0.0354215
0.0354252
0.0354335
0.0354402
0.0354499
0.0354608
0.035471
0.0354862
0.0354975
0.0355166
0.0355293
0.0355524
0.0355666
0.0355933
0.0356097
0.0356395
0.0356591
0.03569
0.0357165
0.0357412
0.0357852
0.0357397
0.0357418
0.0357434
0.035749
0.0357522
0.03576
0.035766
0.035775
0.035785
0.0357943
0.0358084
0.0358185
0.0358364
0.0358476
0.0358693
0.0358818
0.035907
0.0359214
0.0359496
0.0359668
0.0359966
0.0360196
0.0360441
0.0360836
0.03608
0.036082
0.0360834
0.0360887
0.0360915
0.0360988
0.0361041
0.0361124
0.0361215
0.0361298
0.0361429
0.0361518
0.0361684
0.0361782
0.0361985
0.0362092
0.0362329
0.0362452
0.036272
0.0362865
0.036315
0.0363349
0.036359
0.0363941
0.0364327
0.0364347
0.0364358
0.0364409
0.0364431
0.03645
0.0364546
0.0364622
0.0364703
0.0364777
0.0364897
0.0364974
0.0365128
0.0365212
0.0365401
0.036549
0.0365712
0.0365813
0.0366066
0.0366186
0.0366457
0.0366623
0.0366861
0.0367166
0.0367979
0.0367998
0.0368007
0.0368055
0.0368073
0.0368137
0.0368175
0.0368244
0.0368317
0.0368381
0.036849
0.0368555
0.0368697
0.0368766
0.0368941
0.0369012
0.036922
0.03693
0.0369537
0.0369631
0.0369887
0.037002
0.0370256
0.0370512
0.0371756
0.0371774
0.0371781
0.0371827
0.037184
0.0371899
0.0371931
0.0371993
0.0372056
0.0372111
0.0372209
0.0372262
0.0372391
0.0372445
0.0372607
0.0372661
0.0372854
0.0372912
0.0373135
0.0373202
0.0373445
0.0373544
0.0373774
0.0373982
0.0375659
0.0375677
0.0375682
0.0375725
0.0375734
0.0375788
0.0375813
0.0375868
0.0375923
0.0375968
0.0376056
0.0376096
0.0376213
0.0376252
0.03764
0.0376435
0.0376614
0.0376651
0.0376859
0.03769
0.0377129
0.0377196
0.0377416
0.0377578
0.037969
0.0379708
0.0379711
0.0379751
0.0379756
0.0379805
0.0379824
0.0379872
0.0379918
0.0379953
0.038003
0.0380059
0.0380162
0.0380186
0.0380321
0.0380338
0.0380502
0.0380518
0.0380711
0.0380727
0.0380943
0.0380977
0.0381186
0.0381299
0.038385
0.0383867
0.0383868
0.0383906
0.0383906
0.0383951
0.0383963
0.0384005
0.0384042
0.0384068
0.0384134
0.0384151
0.0384242
0.0384251
0.0384371
0.038437
0.0384519
0.0384513
0.0384692
0.0384681
0.0384883
0.0384888
0.0385085
0.0385151
0.0388139
0.0388156
0.0388155
0.0388191
0.0388186
0.0388227
0.0388232
0.0388267
0.0388296
0.0388313
0.0388368
0.0388373
0.0388452
0.0388446
0.0388553
0.0388533
0.0388667
0.0388638
0.0388803
0.0388766
0.0388954
0.0388927
0.0389115
0.0389133
0.0392559
0.0392576
0.0392573
0.0392606
0.0392598
0.0392634
0.0392633
0.0392661
0.0392681
0.0392689
0.0392734
0.0392727
0.0392794
0.0392773
0.0392866
0.0392828
0.0392947
0.0392895
0.0393045
0.0392981
0.0393154
0.0393097
0.0393273
0.039325
0.0397112
0.0397128
0.0397124
0.0397154
0.0397141
0.0397173
0.0397165
0.0397187
0.0397198
0.0397197
0.0397232
0.0397213
0.0397268
0.0397232
0.0397312
0.0397256
0.0397361
0.0397286
0.0397422
0.0397329
0.0397489
0.0397397
0.0397561
0.0397501
0.0401799
0.0401814
0.0401808
0.0401836
0.0401818
0.0401846
0.0401832
0.0401847
0.0401849
0.0401839
0.0401863
0.0401833
0.0401876
0.0401825
0.0401892
0.0401817
0.0401909
0.0401811
0.0401933
0.0401812
0.0401957
0.0401832
0.0401985
0.0401881
0.040662
0.0406635
0.0406627
0.0406653
0.040663
0.0406654
0.0406632
0.0406641
0.0406635
0.0406615
0.0406629
0.0406587
0.0406618
0.0406552
0.0406606
0.0406513
0.0406592
0.0406471
0.040658
0.040643
0.0406564
0.0406401
0.0406546
0.0406394
0.0411577
0.0411592
0.0411581
0.0411605
0.0411578
0.0411597
0.0411569
0.0411571
0.0411556
0.0411527
0.0411531
0.0411476
0.0411495
0.0411415
0.0411455
0.0411344
0.0411409
0.0411266
0.0411362
0.0411184
0.0411307
0.0411108
0.0411246
0.0411047
0.0416671
0.0416686
0.0416673
0.0416694
0.0416663
0.0416677
0.0416642
0.0416637
0.0416613
0.0416575
0.0416568
0.0416502
0.0416509
0.0416413
0.041644
0.0416311
0.0416363
0.0416197
0.041628
0.0416074
0.0416187
0.0415951
0.0416083
0.041584
0.0421902
0.0421917
0.0421901
0.042192
0.0421884
0.0421895
0.0421853
0.0421841
0.0421808
0.0421761
0.0421743
0.0421665
0.0421659
0.0421549
0.0421562
0.0421415
0.0421453
0.0421264
0.0421334
0.0421099
0.0421204
0.0420931
0.0421059
0.0420766
0.0427272
0.0427286
0.0427269
0.0427285
0.0427244
0.042725
0.0427201
0.0427183
0.0427141
0.0427084
0.0427056
0.0426966
0.0426948
0.0426823
0.0426821
0.0426656
0.0426681
0.0426469
0.0426527
0.042626
0.042636
0.0426047
0.0426176
0.0425829
0.043278
0.0432793
0.0432774
0.0432788
0.0432743
0.0432744
0.0432688
0.0432663
0.0432612
0.0432546
0.0432507
0.0432405
0.0432375
0.0432234
0.043222
0.0432036
0.0432048
0.0431811
0.0431859
0.043156
0.0431653
0.0431298
0.0431432
0.0431034
0.0438426
0.0438439
0.0438418
0.043843
0.043838
0.0438377
0.0438314
0.0438282
0.0438222
0.0438146
0.0438097
0.0437982
0.043794
0.0437785
0.0437757
0.0437554
0.0437554
0.0437292
0.0437331
0.0436999
0.0437087
0.0436685
0.0436828
0.0436377
0.044421
0.0444223
0.04442
0.0444209
0.0444155
0.0444148
0.0444077
0.0444039
0.044397
0.0443885
0.0443825
0.0443698
0.0443645
0.0443473
0.0443434
0.0443211
0.04432
0.0442911
0.0442944
0.0442577
0.0442664
0.0442217
0.0442359
0.0441861
0.0450132
0.0450145
0.045012
0.0450127
0.0450068
0.0450056
0.0449979
0.0449934
0.0449856
0.0449763
0.0449692
0.0449553
0.0449489
0.0449301
0.0449251
0.0449007
0.0448987
0.044867
0.0448697
0.0448292
0.0448387
0.0447886
0.0448031
0.0447487
0.0456191
0.0456203
0.0456176
0.0456181
0.0456117
0.0456102
0.0456018
0.0455967
0.0455881
0.0455778
0.0455698
0.0455546
0.0455472
0.0455267
0.0455208
0.0454941
0.0454914
0.0454568
0.0454592
0.0454144
0.0454245
0.0453705
0.0453842
0.0453255
0.0462385
0.0462397
0.0462368
0.0462371
0.0462303
0.0462284
0.0462194
0.0462136
0.0462042
0.0461929
0.0461841
0.0461676
0.0461593
0.046137
0.0461304
0.0461013
0.0460983
0.0460601
0.0460634
0.0460143
0.0460238
0.0459663
0.0459796
0.0459166
0.0468714
0.0468726
0.0468695
0.0468696
0.0468623
0.0468601
0.0468504
0.046844
0.0468339
0.0468217
0.0468121
0.0467942
0.0467852
0.046761
0.0467541
0.0467221
0.0467195
0.0466772
0.046681
0.0466285
0.0466372
0.0465766
0.0465891
0.046522
0.0475175
0.0475186
0.0475154
0.0475153
0.0475076
0.0475051
0.0474948
0.0474878
0.047477
0.0474638
0.0474537
0.0474342
0.0474251
0.0473984
0.0473918
0.0473565
0.0473545
0.0473091
0.0473116
0.0472572
0.0472645
0.047201
0.0472128
0.0471417
0.0481765
0.0481778
0.0481743
0.0481741
0.048166
0.0481632
0.0481523
0.0481448
0.0481335
0.0481191
0.0481089
0.0480873
0.0480787
0.0480491
0.0480432
0.048005
0.0480022
0.0479551
0.0479565
0.0478997
0.0479059
0.0478396
0.0478506
0.0477757
0.0488484
0.0488498
0.048846
0.0488459
0.0488373
0.0488343
0.0488228
0.0488147
0.0488032
0.0487873
0.0487776
0.0487535
0.0487455
0.0487136
0.0487072
0.0486676
0.0486637
0.0486151
0.0486148
0.0485563
0.0485613
0.0484923
0.0485025
0.048424
0.0495329
0.0495344
0.0495302
0.0495304
0.0495212
0.0495182
0.0495061
0.0494973
0.049486
0.0494686
0.0494588
0.0494337
0.0494247
0.0493922
0.0493844
0.0493438
0.0493384
0.0492884
0.0492872
0.0492266
0.0492304
0.0491589
0.0491685
0.0490864
0.0502299
0.0502314
0.0502269
0.0502272
0.0502173
0.0502147
0.0502018
0.0501929
0.0501808
0.0501631
0.0501525
0.0501268
0.0501169
0.0500836
0.0500748
0.0500331
0.0500267
0.0499755
0.0499727
0.0499106
0.0499135
0.0498396
0.0498483
0.049763
0.050939
0.0509405
0.0509361
0.0509361
0.0509262
0.0509232
0.0509097
0.0509015
0.0508879
0.0508703
0.0508589
0.0508326
0.0508219
0.050788
0.0507782
0.0507356
0.0507279
0.0506757
0.0506719
0.0506083
0.0506098
0.0505338
0.0505419
0.0504535
0.05166
0.0516616
0.0516572
0.0516571
0.0516471
0.0516439
0.05163
0.051622
0.0516069
0.0515903
0.0515773
0.051551
0.0515396
0.0515049
0.0514945
0.0514507
0.0514423
0.0513889
0.0513841
0.051319
0.0513197
0.0512417
0.0512489
0.0511577
0.052393
0.0523946
0.0523902
0.05239
0.0523799
0.0523766
0.0523624
0.0523544
0.0523384
0.0523224
0.0523077
0.0522821
0.0522694
0.0522345
0.0522231
0.0521787
0.0521694
0.0521151
0.052109
0.052043
0.0520424
0.0519627
0.0519693
0.0518753
0.0531377
0.0531393
0.0531349
0.0531347
0.0531245
0.0531212
0.0531067
0.0530986
0.053082
0.0530663
0.0530504
0.0530254
0.0530111
0.0529763
0.0529642
0.0529191
0.0529089
0.0528535
0.0528468
0.0527794
0.0527781
0.0526966
0.0527025
0.0526061
0.0538941
0.0538958
0.0538913
0.0538911
0.0538808
0.0538774
0.0538627
0.0538547
0.0538375
0.053822
0.0538051
0.0537805
0.053765
0.0537302
0.0537171
0.0536714
0.0536606
0.0536044
0.0535965
0.0535284
0.0535258
0.0534431
0.0534483
0.0533497
0.0546622
0.0546639
0.0546594
0.0546592
0.0546487
0.0546454
0.0546304
0.0546223
0.0546047
0.0545893
0.0545716
0.0545471
0.0545306
0.0544959
0.0544817
0.0544356
0.054424
0.0543667
0.0543586
0.0542891
0.0542859
0.0542018
0.0542062
0.0541057
0.0554419
0.0554437
0.0554391
0.055439
0.0554283
0.055425
0.0554097
0.0554015
0.0553834
0.0553681
0.0553496
0.0553252
0.0553077
0.0552727
0.0552578
0.0552111
0.055199
0.0551409
0.0551318
0.0550614
0.0550573
0.0549722
0.054976
0.0548736
0.0562334
0.0562352
0.0562305
0.0562305
0.0562195
0.0562161
0.0562004
0.0561922
0.0561735
0.0561583
0.0561387
0.0561144
0.0560959
0.0560608
0.0560449
0.0559979
0.0559848
0.055926
0.0559164
0.0558449
0.0558401
0.0557539
0.055757
0.0556532
0.0570364
0.0570384
0.0570335
0.0570335
0.0570222
0.0570187
0.0570025
0.056994
0.0569748
0.0569593
0.0569388
0.0569146
0.0568949
0.0568595
0.056843
0.056795
0.0567815
0.056722
0.0567116
0.0566392
0.0566335
0.0565466
0.056549
0.0564439
0.0578509
0.057853
0.0578479
0.0578477
0.0578361
0.0578323
0.0578156
0.0578068
0.0577869
0.0577711
0.0577493
0.0577253
0.0577041
0.057669
0.057651
0.0576027
0.0575885
0.0575283
0.0575173
0.0574439
0.0574376
0.0573498
0.0573516
0.0572456
0.0586763
0.0586784
0.0586731
0.0586727
0.0586606
0.0586564
0.0586393
0.0586298
0.0586093
0.0585929
0.0585701
0.0585462
0.0585233
0.0584885
0.0584688
0.0584207
0.0584055
0.0583445
0.0583328
0.0582589
0.0582518
0.0581636
0.0581646
0.0580578
0.0595114
0.0595135
0.059508
0.0595074
0.059495
0.0594903
0.0594726
0.0594626
0.0594413
0.0594244
0.0594006
0.0593766
0.0593519
0.0593178
0.0592958
0.0592487
0.059232
0.0591704
0.0591583
0.0590841
0.0590762
0.0589875
0.058988
0.0588806
0.0603548
0.0603568
0.0603513
0.0603504
0.0603378
0.0603327
0.0603146
0.060304
0.0602822
0.0602647
0.0602401
0.0602161
0.0601897
0.0601565
0.0601323
0.0600861
0.0600673
0.0600064
0.0599936
0.0599192
0.0599106
0.0598219
0.0598216
0.0597139
0.0612042
0.0612063
0.0612009
0.0611999
0.0611872
0.061182
0.0611637
0.061153
0.0611309
0.0611131
0.0610881
0.061064
0.0610366
0.061004
0.0609778
0.0609332
0.0609119
0.0608529
0.0608384
0.0607642
0.060755
0.0606664
0.0606658
0.060558
0.0620576
0.0620598
0.0620545
0.0620537
0.0620413
0.0620364
0.0620183
0.0620079
0.061986
0.0619686
0.0619436
0.0619198
0.0618919
0.0618604
0.0618327
0.0617896
0.0617664
0.0617088
0.061693
0.0616194
0.0616098
0.0615217
0.0615207
0.0614131
0.062913
0.0629153
0.0629104
0.0629101
0.0628983
0.0628941
0.0628769
0.0628674
0.0628464
0.0628299
0.0628057
0.0627829
0.0627555
0.062725
0.0626967
0.0626556
0.0626307
0.0625756
0.0625574
0.0624857
0.0624754
0.0623876
0.0623867
0.0622795
0.0637695
0.0637721
0.0637677
0.0637682
0.0637573
0.0637544
0.0637385
0.0637304
0.063711
0.0636962
0.0636735
0.0636525
0.0636262
0.0635978
0.06357
0.063531
0.0635057
0.0634525
0.0634331
0.063363
0.0633524
0.0632648
0.063264
0.0631571
0.0646281
0.0646309
0.0646272
0.0646286
0.0646189
0.0646174
0.0646031
0.064597
0.0645796
0.0645669
0.0645465
0.0645279
0.0645037
0.0644777
0.0644517
0.0644154
0.0643905
0.0643408
0.0643204
0.0642523
0.0642414
0.0641537
0.0641531
0.0640462
0.0654919
0.0654951
0.0654919
0.0654943
0.0654856
0.0654856
0.0654728
0.0654687
0.0654533
0.065443
0.0654249
0.065409
0.0653873
0.0653642
0.0653408
0.0653075
0.0652847
0.0652377
0.0652191
0.0651533
0.0651432
0.0650558
0.0650552
0.0649473
0.0663666
0.0663703
0.0663671
0.0663706
0.0663622
0.0663637
0.0663516
0.0663493
0.0663351
0.0663269
0.0663106
0.0662973
0.0662777
0.0662573
0.0662373
0.0662055
0.0661876
0.0661415
0.066128
0.0660626
0.0660571
0.0659705
0.0659712
0.0658627
0.06726
0.0672645
0.0672605
0.0672653
0.0672556
0.0672589
0.0672453
0.0672453
0.0672297
0.067224
0.0672072
0.0671959
0.0671772
0.0671583
0.0671422
0.0671082
0.0670995
0.067048
0.0670451
0.0669775
0.0669787
0.0668946
0.0668989
0.066796
0.0681814
0.0681854
0.0681822
0.0681851
0.0681765
0.0681771
0.0681647
0.0681615
0.068147
0.0681386
0.0681223
0.0681098
0.0680904
0.0680734
0.0680548
0.0680233
0.0680148
0.067965
0.0679635
0.0678979
0.0679027
0.0678204
0.0678294
0.0677343
0.0691392
0.0691428
0.069139
0.0691409
0.0691308
0.0691298
0.0691151
0.0691097
0.0690926
0.0690815
0.0690625
0.0690471
0.0690251
0.0690062
0.0689826
0.0689549
0.068938
0.0688927
0.0688887
0.0688226
0.0688295
0.0687456
0.0687579
0.0686631
0.0701396
0.070143
0.0701383
0.0701389
0.0701267
0.0701234
0.0701057
0.0700969
0.0700758
0.0700604
0.0700367
0.0700166
0.0699893
0.0699656
0.0699363
0.0699051
0.0698819
0.0698353
0.0698257
0.0697567
0.0697636
0.0696746
0.0696894
0.0695904
0.0711862
0.0711898
0.0711836
0.0711833
0.0711686
0.0711629
0.0711415
0.0711293
0.0711032
0.0710831
0.0710532
0.0710272
0.0709927
0.0709622
0.0709245
0.0708865
0.0708546
0.0708011
0.070785
0.0707069
0.0707116
0.070614
0.0706293
0.070522
0.072279
0.0722831
0.0722751
0.0722744
0.072257
0.0722497
0.0722243
0.0722097
0.0721775
0.0721548
0.0721164
0.0720867
0.0720423
0.0720052
0.071958
0.07191
0.0718702
0.071801
0.0717783
0.0716867
0.0716837
0.0715725
0.0715856
0.0714645
0.0734146
0.0734181
0.0734108
0.0734077
0.0733903
0.0733798
0.0733536
0.0733343
0.0733012
0.0732713
0.0732317
0.0731931
0.0731454
0.0730993
0.0730435
0.0729896
0.0729317
0.0728583
0.0728176
0.072713
0.0726956
0.072566
0.0725707
0.0724276
0.0745865
0.0745897
0.0745823
0.0745787
0.0745605
0.0745491
0.0745214
0.0745005
0.0744653
0.0744332
0.0743905
0.0743485
0.0742966
0.0742456
0.0741841
0.0741233
0.0740544
0.07398
0.0739118
0.0738094
0.0737653
0.0736181
0.0736063
0.0734301
0.0757866
0.0757897
0.0757824
0.0757788
0.0757603
0.0757486
0.0757206
0.0756992
0.0756632
0.0756302
0.0755866
0.0755431
0.0754897
0.0754366
0.0753726
0.0753087
0.0752357
0.0751573
0.0750788
0.074978
0.0749044
0.0747602
0.0747214
0.0745075
0.0770062
0.0770093
0.0770024
0.076999
0.0769807
0.0769695
0.0769417
0.0769207
0.0768853
0.0768527
0.0768095
0.0767665
0.0767135
0.0766608
0.0765972
0.0765338
0.0764609
0.0763831
0.0763035
0.0762044
0.076125
0.0759888
0.0759326
0.0757069
0.0782367
0.0782402
0.0782334
0.0782306
0.0782129
0.0782026
0.0781756
0.0781558
0.0781214
0.0780903
0.0780485
0.0780072
0.077956
0.0779054
0.0778441
0.0777831
0.077713
0.0776377
0.077564
0.0774655
0.0773982
0.0772605
0.0772208
0.0770224
0.0794702
0.0794739
0.0794676
0.0794655
0.0794485
0.0794394
0.0794135
0.0793953
0.0793625
0.0793334
0.0792936
0.0792549
0.0792062
0.0791587
0.0791005
0.0790433
0.0789768
0.0789067
0.0788367
0.0787445
0.0786827
0.0785526
0.0785159
0.078332
0.0806994
0.0807035
0.0806976
0.0806964
0.0806802
0.0806725
0.0806479
0.0806316
0.0806005
0.0805739
0.0805364
0.0805007
0.0804549
0.080411
0.0803564
0.0803033
0.0802411
0.0801759
0.0801111
0.0800254
0.079968
0.0798478
0.0798134
0.0796432
0.0819184
0.0819232
0.0819173
0.0819173
0.0819017
0.0818957
0.0818723
0.0818582
0.0818289
0.0818051
0.0817698
0.0817376
0.0816945
0.0816548
0.0816036
0.0815552
0.0814973
0.0814381
0.0813773
0.0812982
0.0812461
0.0811353
0.0811032
0.0809469
0.0831223
0.0831275
0.0831215
0.0831231
0.0831077
0.0831039
0.0830811
0.0830701
0.0830416
0.0830218
0.0829876
0.0829603
0.0829186
0.0828846
0.0828355
0.082793
0.0827387
0.0826851
0.0826297
0.0825571
0.0825089
0.0824082
0.0823782
0.0822356
0.0843067
0.0843122
0.0843064
0.0843092
0.0842942
0.0842925
0.0842704
0.0842624
0.0842347
0.084219
0.0841855
0.0841637
0.0841227
0.0840953
0.084047
0.0840123
0.0839596
0.083913
0.0838616
0.0837962
0.0837516
0.0836609
0.0836331
0.0835039
0.0854681
0.0854736
0.0854688
0.0854714
0.0854587
0.0854568
0.0854379
0.0854298
0.0854064
0.0853907
0.0853624
0.0853412
0.0853057
0.0852801
0.0852371
0.0852058
0.0851579
0.0851171
0.085069
0.0850106
0.0849702
0.0848894
0.0848634
0.0847473
0.0866037
0.0866092
0.086605
0.0866081
0.0865966
0.0865956
0.0865787
0.0865717
0.0865512
0.0865368
0.0865124
0.0864925
0.086462
0.0864379
0.0864007
0.0863717
0.0863294
0.0862932
0.0862481
0.0861996
0.0861613
0.0860898
0.0860657
0.0859622
0.0877112
0.0877165
0.0877129
0.0877165
0.0877061
0.0877061
0.0876908
0.0876853
0.087667
0.0876545
0.0876332
0.0876154
0.0875888
0.0875673
0.0875345
0.0875088
0.087471
0.0874394
0.0873987
0.0873576
0.0873218
0.0872592
0.0872371
0.0871458
0.0887883
0.0887939
0.0887907
0.0887949
0.0887852
0.0887864
0.0887724
0.0887686
0.0887523
0.0887418
0.0887231
0.0887077
0.0886843
0.0886657
0.0886368
0.0886145
0.0885812
0.0885541
0.0885177
0.088483
0.0884484
0.088396
0.0883759
0.0882962
0.0898343
0.0898397
0.0898368
0.0898415
0.0898328
0.0898349
0.0898224
0.0898199
0.0898056
0.0897969
0.0897807
0.0897676
0.0897474
0.0897314
0.0897063
0.0896873
0.0896581
0.0896351
0.0896027
0.0895737
0.0895422
0.0894984
0.0894802
0.0894113
0.0908474
0.0908528
0.0908502
0.0908557
0.0908472
0.0908509
0.090839
0.0908384
0.0908255
0.0908188
0.0908048
0.090794
0.0907766
0.0907633
0.0907416
0.0907258
0.0907004
0.0906813
0.0906532
0.0906291
0.0906006
0.090565
0.0905486
0.09049
0.0918271
0.0918324
0.0918305
0.0918356
0.091829
0.0918322
0.0918228
0.0918224
0.0918119
0.0918065
0.0917949
0.0917861
0.0917714
0.0917606
0.091742
0.0917293
0.0917074
0.091692
0.0916675
0.0916483
0.0916234
0.0915957
0.0915798
0.0915311
0.0927729
0.0927785
0.0927757
0.0927832
0.0927745
0.0927817
0.0927703
0.0927738
0.0927628
0.0927602
0.0927499
0.0927434
0.092731
0.0927228
0.0927071
0.0926972
0.0926788
0.0926668
0.0926461
0.0926306
0.0926096
0.0925879
0.0925742
0.0925339
0.0936846
0.0936894
0.0936887
0.0936933
0.0936897
0.0936925
0.093687
0.0936874
0.0936811
0.0936779
0.0936706
0.0936654
0.0936556
0.0936494
0.0936365
0.0936294
0.0936139
0.0936051
0.0935877
0.0935768
0.093559
0.0935423
0.0935301
0.0934985
0.0945617
0.0945674
0.0945644
0.0945735
0.0945648
0.0945749
0.0945637
0.094571
0.0945612
0.0945627
0.0945552
0.0945527
0.0945445
0.0945407
0.0945301
0.0945255
0.094513
0.0945072
0.094493
0.0944854
0.094471
0.0944593
0.0944484
0.0944249
0.0954051
0.0954094
0.0954096
0.095414
0.0954124
0.0954154
0.0954129
0.0954141
0.0954112
0.0954099
0.0954065
0.0954042
0.0953987
0.0953964
0.0953883
0.095386
0.0953761
0.095373
0.0953616
0.0953575
0.0953459
0.0953381
0.0953301
0.0953134
0.0962139
0.0962194
0.0962173
0.0962256
0.0962196
0.0962289
0.0962211
0.096229
0.0962221
0.096226
0.0962212
0.0962221
0.0962174
0.0962174
0.0962112
0.0962111
0.0962036
0.0962032
0.0961943
0.0961934
0.0961843
0.0961807
0.0961744
0.0961643
0.0969902
0.0969941
0.0969945
0.0969997
0.0969982
0.0970033
0.0970013
0.0970048
0.0970035
0.0970048
0.0970039
0.0970045
0.0970024
0.0970035
0.0969995
0.0970014
0.096996
0.0969979
0.0969916
0.0969934
0.0969872
0.0969869
0.0969832
0.0969781
0.0977323
0.0977375
0.0977365
0.0977435
0.0977407
0.097748
0.0977444
0.0977512
0.0977481
0.0977529
0.0977512
0.0977544
0.097753
0.097756
0.0977535
0.0977572
0.097754
0.097758
0.0977538
0.0977585
0.0977541
0.0977577
0.0977557
0.0977556
0.0984436
0.0984471
0.098448
0.0984532
0.0984526
0.0984584
0.0984574
0.0984625
0.0984625
0.0984661
0.0984671
0.0984703
0.0984709
0.0984749
0.0984742
0.0984795
0.0984779
0.0984839
0.0984818
0.0984887
0.0984867
0.0984931
0.0984925
0.0984972
0.0991219
0.0991266
0.0991263
0.0991328
0.0991313
0.0991385
0.0991372
0.0991435
0.0991436
0.0991487
0.0991499
0.0991547
0.099156
0.0991615
0.0991621
0.0991688
0.099169
0.0991768
0.0991763
0.0991856
0.0991848
0.0991943
0.099195
0.0992039
0.099771
0.0997739
0.099776
0.0997794
0.0997819
0.0997855
0.099788
0.0997922
0.0997947
0.0997994
0.0998021
0.0998074
0.09981
0.0998164
0.0998183
0.0998264
0.0998278
0.0998372
0.0998383
0.0998493
0.0998504
0.0998624
0.0998635
0.0998767
0.100389
0.100393
0.100393
0.1004
0.100398
0.100407
0.100405
0.100413
0.100414
0.100421
0.100423
0.10043
0.100433
0.100441
0.100444
0.100453
0.100456
0.100466
0.100469
0.100482
0.100483
0.100498
0.1005
0.100517
0.100979
0.100981
0.100985
0.100986
0.100992
0.100992
0.101
0.101001
0.101007
0.101011
0.101016
0.101023
0.101027
0.101035
0.101039
0.101049
0.101053
0.101065
0.101069
0.101083
0.101086
0.101103
0.101105
0.101125
0.10154
0.101545
0.101544
0.101552
0.101549
0.10156
0.101557
0.101568
0.101567
0.101577
0.101579
0.101588
0.101592
0.101601
0.101606
0.101617
0.101622
0.101635
0.10164
0.101655
0.101659
0.101678
0.101681
0.101703
0.102076
0.102078
0.102082
0.102082
0.10209
0.102088
0.102099
0.102098
0.102107
0.10211
0.102118
0.102124
0.10213
0.10214
0.102146
0.102157
0.102163
0.102177
0.102182
0.102199
0.102204
0.102224
0.102228
0.102251
0.102584
0.102588
0.102588
0.102595
0.102593
0.102603
0.102601
0.102613
0.102612
0.102623
0.102626
0.102636
0.102641
0.102652
0.102658
0.102671
0.102677
0.102692
0.102698
0.102716
0.102721
0.102742
0.102748
0.102771
0.103069
0.10307
0.103074
0.103075
0.103082
0.103082
0.103091
0.103092
0.103102
0.103105
0.103114
0.103121
0.103128
0.103139
0.103146
0.103158
0.103165
0.103181
0.103187
0.103206
0.103212
0.103235
0.10324
0.103267
0.103529
0.103532
0.103532
0.103538
0.103538
0.103546
0.103547
0.103557
0.103559
0.103569
0.103573
0.103583
0.10359
0.103601
0.103608
0.103622
0.103629
0.103645
0.103653
0.103672
0.103679
0.103702
0.103708
0.103736
0.103967
0.103968
0.103971
0.103973
0.103978
0.10398
0.103987
0.103991
0.103999
0.104005
0.104012
0.104021
0.104028
0.10404
0.104048
0.104062
0.104069
0.104086
0.104094
0.104114
0.104121
0.104146
0.104152
0.10418
0.104381
0.104384
0.104385
0.10439
0.104391
0.104398
0.1044
0.104408
0.104413
0.104421
0.104428
0.104438
0.104445
0.104457
0.104465
0.104479
0.104487
0.104504
0.104513
0.104534
0.104541
0.104566
0.104571
0.104603
0.104776
0.104777
0.104781
0.104782
0.104788
0.10479
0.104797
0.104801
0.104808
0.104816
0.104823
0.104833
0.10484
0.104852
0.104861
0.104875
0.104884
0.104901
0.104909
0.104931
0.104939
0.104964
0.104971
0.105002
0.10515
0.105153
0.105153
0.105158
0.105159
0.105167
0.105169
0.105177
0.105182
0.10519
0.105197
0.105207
0.105215
0.105227
0.105236
0.105251
0.105259
0.105277
0.105286
0.105308
0.105316
0.105342
0.105348
0.105381
0.105506
0.105507
0.10551
0.105512
0.105517
0.105519
0.105526
0.105531
0.105538
0.105545
0.105553
0.105563
0.105571
0.105583
0.105592
0.105607
0.105615
0.105634
0.105642
0.105664
0.105673
0.105699
0.105705
0.105739
0.105843
0.105844
0.105846
0.105849
0.105853
0.105857
0.105862
0.105869
0.105874
0.105883
0.105889
0.1059
0.105908
0.10592
0.105929
0.105944
0.105953
0.105971