/*--------------------------------*- C++ -*----------------------------------*\
  =========                 |
  \\      /  F ield         | OpenFOAM: The Open Source CFD Toolbox
   \\    /   O peration     | Website:  https://openfoam.org
    \\  /    A nd           | Version:  10
     \\/     M anipulation  |
\*---------------------------------------------------------------------------*/
FoamFile
{
    format      ascii;
    class       volScalarField;
    location    "0.27";
    object      T;
}
// * * * * * * * * * * * * * * * * * * * * * * * * * * * * * * * * * * * * * //

dimensions      [0 0 0 1 0 0 0];

internalField   nonuniform List<scalar> 
4176
(
180.347
180.351
180.373
180.382
180.426
180.445
180.507
180.538
180.614
180.66
180.75
180.809
180.913
180.985
181.1
181.192
181.307
181.43
181.534
181.703
181.778
182.01
182.025
182.326
180.356
180.361
180.382
180.392
180.437
180.456
180.519
180.552
180.628
180.677
180.767
180.829
180.935
181.01
181.127
181.221
181.339
181.465
181.571
181.744
181.819
182.061
182.08
182.411
180.384
180.389
180.41
180.42
180.462
180.482
180.542
180.576
180.649
180.698
180.785
180.846
180.95
181.022
181.138
181.229
181.346
181.468
181.572
181.74
181.811
182.049
182.067
182.408
180.436
180.44
180.461
180.471
180.514
180.534
180.594
180.627
180.7
180.749
180.837
180.897
181.002
181.073
181.19
181.28
181.399
181.522
181.621
181.794
181.864
182.097
182.113
182.439
180.511
180.515
180.536
180.546
180.588
180.607
180.667
180.699
180.772
180.82
180.907
180.966
181.07
181.14
181.257
181.344
181.465
181.586
181.683
181.857
181.925
182.156
182.173
182.487
180.61
180.614
180.635
180.645
180.687
180.706
180.765
180.797
180.869
180.917
181.003
181.062
181.164
181.234
181.35
181.436
181.558
181.673
181.776
181.945
182.015
182.244
182.263
182.578
180.733
180.737
180.758
180.767
180.809
180.828
180.886
180.918
180.989
181.036
181.121
181.18
181.281
181.35
181.465
181.549
181.671
181.781
181.889
182.051
182.123
182.349
182.371
182.684
180.88
180.884
180.904
180.914
180.955
180.974
181.031
181.063
181.133
181.18
181.263
181.321
181.421
181.489
181.603
181.686
181.808
181.914
182.024
182.181
182.256
182.477
182.5
182.809
181.051
181.055
181.075
181.084
181.125
181.143
181.2
181.231
181.3
181.346
181.429
181.486
181.585
181.651
181.764
181.845
181.967
182.069
182.181
182.332
182.409
182.626
182.651
182.955
181.245
181.249
181.269
181.278
181.318
181.336
181.393
181.423
181.491
181.537
181.618
181.674
181.772
181.837
181.949
182.028
182.149
182.248
182.36
182.506
182.586
182.797
182.823
183.122
181.463
181.467
181.487
181.496
181.535
181.553
181.609
181.638
181.706
181.75
181.83
181.886
181.982
182.046
182.156
182.233
182.353
182.449
182.562
182.703
182.782
182.99
183.017
183.31
181.705
181.709
181.729
181.737
181.776
181.793
181.848
181.877
181.944
181.988
182.066
182.121
182.215
182.278
182.386
182.461
182.58
182.673
182.786
182.922
183.004
183.204
183.232
183.52
181.971
181.975
181.994
182.002
182.041
182.057
182.112
182.14
182.205
182.248
182.325
182.379
182.471
182.533
182.639
182.713
182.83
182.92
183.033
183.163
183.245
183.441
183.469
183.751
182.26
182.264
182.283
182.291
182.329
182.345
182.398
182.426
182.49
182.532
182.608
182.66
182.751
182.811
182.916
182.987
183.102
183.189
183.302
183.427
183.51
183.699
183.728
184.003
182.573
182.577
182.596
182.603
182.641
182.656
182.709
182.735
182.798
182.839
182.914
182.964
183.054
183.112
183.215
183.284
183.397
183.481
183.593
183.713
183.796
183.98
184.008
184.277
182.91
182.914
182.932
182.939
182.976
182.991
183.043
183.068
183.13
183.17
183.243
183.292
183.379
183.435
183.536
183.603
183.715
183.795
183.906
184.022
184.105
184.282
184.311
184.573
183.271
183.274
183.292
183.299
183.336
183.35
183.4
183.425
183.485
183.523
183.595
183.642
183.728
183.782
183.881
183.945
184.055
184.132
184.242
184.352
184.435
184.606
184.635
184.89
183.655
183.658
183.676
183.682
183.718
183.732
183.781
183.804
183.864
183.901
183.97
184.016
184.1
184.152
184.248
184.31
184.417
184.492
184.6
184.705
184.788
184.952
184.982
185.229
184.063
184.066
184.084
184.09
184.125
184.137
184.186
184.208
184.266
184.301
184.369
184.413
184.494
184.544
184.639
184.698
184.802
184.874
184.98
185.08
185.163
185.32
185.35
185.59
184.495
184.498
184.515
184.52
184.555
184.566
184.614
184.635
184.691
184.725
184.791
184.833
184.912
184.96
185.051
185.108
185.21
185.278
185.382
185.477
185.559
185.71
185.74
185.972
184.95
184.953
184.97
184.975
185.008
185.019
185.065
185.085
185.14
185.172
185.236
185.276
185.352
185.398
185.487
185.541
185.64
185.705
185.806
185.896
185.978
186.122
186.152
186.376
185.429
185.432
185.449
185.453
185.486
185.495
185.54
185.558
185.612
185.642
185.704
185.742
185.816
185.859
185.946
185.997
186.093
186.154
186.252
186.338
186.417
186.556
186.586
186.802
185.932
185.935
185.951
185.954
185.986
185.995
186.039
186.055
186.107
186.135
186.195
186.231
186.303
186.343
186.427
186.475
186.568
186.626
186.721
186.802
186.88
187.011
187.041
187.249
186.458
186.461
186.477
186.479
186.511
186.518
186.56
186.576
186.625
186.652
186.709
186.743
186.812
186.85
186.931
186.976
187.065
187.12
187.212
187.288
187.364
187.488
187.517
187.718
187.008
187.011
187.026
187.028
187.058
187.064
187.105
187.119
187.167
187.191
187.247
187.278
187.345
187.38
187.457
187.499
187.585
187.636
187.725
187.796
187.871
187.988
188.015
188.208
187.581
187.583
187.598
187.599
187.629
187.634
187.674
187.686
187.732
187.754
187.807
187.836
187.9
187.932
188.006
188.045
188.128
188.175
188.26
188.327
188.399
188.509
188.535
188.72
188.177
188.179
188.194
188.194
188.223
188.226
188.265
188.275
188.319
188.34
188.39
188.416
188.478
188.507
188.578
188.613
188.693
188.736
188.818
188.88
188.949
189.053
189.077
189.254
188.796
188.798
188.812
188.812
188.839
188.842
188.879
188.888
188.93
188.948
188.996
189.02
189.078
189.104
189.173
189.204
189.281
189.32
189.398
189.456
189.521
189.618
189.642
189.81
189.438
189.44
189.453
189.452
189.479
189.481
189.516
189.523
189.563
189.579
189.625
189.646
189.701
189.725
189.789
189.818
189.89
189.926
190
190.053
190.116
190.205
190.229
190.387
190.102
190.104
190.117
190.116
190.141
190.142
190.176
190.181
190.219
190.233
190.276
190.294
190.347
190.367
190.429
190.453
190.523
190.554
190.625
190.673
190.732
190.814
190.835
190.987
190.789
190.791
190.803
190.801
190.826
190.825
190.858
190.861
190.898
190.909
190.95
190.966
191.015
191.032
191.091
191.112
191.177
191.204
191.271
191.315
191.37
191.446
191.465
191.609
191.498
191.5
191.512
191.509
191.533
191.531
191.562
191.564
191.598
191.608
191.646
191.659
191.706
191.72
191.775
191.792
191.854
191.877
191.94
191.978
192.031
192.1
192.117
192.251
192.23
192.231
192.243
192.239
192.262
192.259
192.289
192.289
192.321
192.329
192.365
192.375
192.419
192.43
192.481
192.495
192.553
192.572
192.631
192.664
192.713
192.776
192.791
192.916
192.983
192.984
192.995
192.991
193.013
193.009
193.037
193.035
193.066
193.071
193.105
193.112
193.154
193.161
193.21
193.22
193.275
193.289
193.344
193.373
193.417
193.474
193.487
193.603
193.758
193.759
193.77
193.765
193.786
193.78
193.807
193.804
193.833
193.836
193.867
193.872
193.911
193.915
193.96
193.967
194.018
194.028
194.079
194.103
194.143
194.194
194.205
194.312
194.554
194.555
194.565
194.56
194.58
194.573
194.599
194.594
194.621
194.622
194.651
194.653
194.689
194.69
194.733
194.735
194.783
194.789
194.836
194.855
194.892
194.936
194.945
195.042
195.371
195.372
195.382
195.376
195.396
195.387
195.412
195.405
195.43
195.429
195.456
195.456
195.489
195.487
195.526
195.525
195.57
195.572
195.615
195.63
195.662
195.7
195.706
195.795
196.21
196.211
196.22
196.214
196.232
196.223
196.246
196.238
196.261
196.258
196.283
196.28
196.31
196.306
196.342
196.337
196.378
196.376
196.416
196.425
196.454
196.486
196.489
196.568
197.069
197.07
197.079
197.072
197.09
197.079
197.101
197.092
197.113
197.108
197.13
197.125
197.153
197.145
197.178
197.17
197.208
197.201
197.237
197.242
197.267
197.294
197.294
197.364
197.949
197.95
197.958
197.951
197.968
197.956
197.977
197.966
197.986
197.979
197.999
197.991
198.017
198.006
198.036
198.024
198.059
198.048
198.081
198.08
198.102
198.122
198.12
198.181
198.849
198.85
198.858
198.85
198.866
198.854
198.873
198.861
198.879
198.87
198.888
198.878
198.901
198.887
198.914
198.899
198.931
198.915
198.945
198.939
198.958
198.972
198.966
199.021
199.77
199.771
199.779
199.77
199.785
199.772
199.79
199.776
199.793
199.782
199.798
199.786
199.806
199.79
199.814
199.795
199.823
199.804
199.83
199.819
199.835
199.842
199.834
199.881
200.711
200.711
200.719
200.709
200.724
200.71
200.727
200.712
200.726
200.714
200.728
200.713
200.731
200.712
200.734
200.711
200.737
200.712
200.736
200.719
200.733
200.734
200.723
200.761
201.672
201.672
201.679
201.669
201.683
201.668
201.683
201.667
201.68
201.666
201.678
201.661
201.676
201.654
201.673
201.647
201.67
201.641
201.663
201.64
201.652
201.646
201.632
201.663
202.652
202.652
202.659
202.648
202.661
202.645
202.66
202.642
202.653
202.637
202.647
202.628
202.641
202.616
202.633
202.603
202.623
202.59
202.61
202.581
202.591
202.578
202.563
202.585
203.651
203.652
203.658
203.647
203.659
203.642
203.655
203.636
203.646
203.628
203.636
203.614
203.625
203.598
203.612
203.579
203.596
203.559
203.576
203.543
203.55
203.53
203.514
203.527
204.67
204.67
204.676
204.664
204.676
204.658
204.67
204.649
204.658
204.638
204.644
204.62
204.628
204.598
204.61
204.573
204.588
204.547
204.562
204.523
204.529
204.502
204.485
204.489
205.707
205.707
205.713
205.701
205.712
205.692
205.703
205.681
205.688
205.667
205.67
205.645
205.651
205.618
205.628
205.587
205.6
205.554
205.567
205.522
205.527
205.492
205.476
205.471
206.763
206.762
206.768
206.755
206.765
206.745
206.755
206.731
206.737
206.714
206.716
206.688
206.691
206.656
206.664
206.619
206.63
206.58
206.59
206.54
206.543
206.502
206.485
206.471
207.836
207.835
207.841
207.827
207.837
207.815
207.824
207.8
207.804
207.779
207.779
207.749
207.75
207.712
207.718
207.67
207.679
207.624
207.633
207.576
207.58
207.529
207.513
207.491
208.926
208.926
208.931
208.917
208.926
208.903
208.911
208.885
208.888
208.861
208.859
208.827
208.827
208.786
208.79
208.738
208.745
208.685
208.694
208.63
208.635
208.576
208.56
208.529
210.033
210.033
210.037
210.023
210.031
210.008
210.015
209.988
209.989
209.961
209.957
209.923
209.921
209.877
209.879
209.824
209.83
209.764
209.773
209.703
209.706
209.64
209.625
209.586
211.156
211.156
211.16
211.145
211.153
211.129
211.135
211.106
211.106
211.077
211.072
211.035
211.032
210.985
210.985
210.926
210.931
210.86
210.87
210.792
210.796
210.724
210.706
210.661
212.295
212.294
212.299
212.283
212.29
212.266
212.271
212.241
212.24
212.208
212.202
212.163
212.159
212.108
212.109
212.044
212.049
211.974
211.982
211.899
211.902
211.824
211.806
211.753
213.448
213.448
213.452
213.436
213.442
213.417
213.421
213.39
213.388
213.355
213.348
213.307
213.302
213.247
213.248
213.178
213.185
213.102
213.112
213.022
213.025
212.942
212.922
212.863
214.616
214.615
214.619
214.603
214.609
214.583
214.586
214.554
214.551
214.517
214.509
214.465
214.46
214.401
214.403
214.327
214.336
214.248
214.256
214.163
214.164
214.076
214.055
213.989
215.797
215.796
215.799
215.783
215.788
215.762
215.765
215.732
215.728
215.692
215.684
215.636
215.633
215.57
215.572
215.493
215.499
215.408
215.416
215.319
215.318
215.225
215.204
215.132
216.99
216.989
216.992
216.976
216.981
216.954
216.956
216.922
216.919
216.88
216.873
216.822
216.818
216.753
216.754
216.673
216.678
216.585
216.589
216.49
216.488
216.391
216.368
216.291
218.195
218.194
218.197
218.181
218.185
218.159
218.159
218.125
218.121
218.081
218.073
218.022
218.016
217.95
217.949
217.867
217.87
217.774
217.778
217.676
217.671
217.571
217.548
217.465
219.411
219.411
219.413
219.397
219.401
219.374
219.374
219.34
219.335
219.294
219.286
219.233
219.227
219.159
219.156
219.074
219.075
218.978
218.98
218.875
218.87
218.766
218.741
218.653
220.638
220.638
220.641
220.624
220.627
220.6
220.6
220.566
220.559
220.519
220.509
220.456
220.449
220.38
220.375
220.294
220.292
220.194
220.194
220.087
220.08
219.973
219.949
219.856
221.875
221.875
221.877
221.861
221.864
221.837
221.836
221.803
221.794
221.755
221.742
221.691
221.682
221.612
221.606
221.524
221.521
221.422
221.421
221.311
221.304
221.194
221.169
221.071
223.121
223.121
223.124
223.107
223.11
223.083
223.082
223.049
223.038
223.001
222.986
222.935
222.925
222.855
222.848
222.766
222.761
222.662
222.658
222.548
222.539
222.426
222.401
222.299
224.376
224.376
224.379
224.362
224.366
224.338
224.337
224.303
224.293
224.256
224.239
224.19
224.176
224.109
224.099
224.017
224.01
223.911
223.907
223.794
223.785
223.67
223.644
223.539
225.64
225.64
225.643
225.626
225.63
225.602
225.6
225.567
225.556
225.52
225.501
225.453
225.438
225.371
225.36
225.277
225.27
225.17
225.164
225.051
225.04
224.923
224.897
224.789
226.913
226.912
226.915
226.898
226.902
226.874
226.872
226.839
226.827
226.792
226.772
226.725
226.707
226.642
226.629
226.546
226.537
226.437
226.43
226.316
226.305
226.186
226.16
226.048
228.193
228.193
228.196
228.179
228.182
228.154
228.152
228.119
228.106
228.071
228.05
228.004
227.985
227.919
227.906
227.822
227.813
227.712
227.703
227.59
227.577
227.457
227.431
227.316
229.481
229.481
229.484
229.467
229.47
229.442
229.44
229.406
229.393
229.358
229.336
229.29
229.269
229.204
229.189
229.106
229.095
228.993
228.984
228.87
228.857
228.735
228.709
228.592
230.777
230.777
230.78
230.762
230.765
230.737
230.734
230.7
230.686
230.651
230.627
230.582
230.56
230.494
230.479
230.394
230.383
230.281
230.27
230.157
230.142
230.021
229.994
229.875
232.079
232.079
232.082
232.064
232.066
232.038
232.034
232
231.985
231.95
231.924
231.879
231.855
231.791
231.774
231.688
231.677
231.575
231.562
231.449
231.434
231.311
231.284
231.164
233.386
233.386
233.389
233.371
233.373
233.344
233.34
233.304
233.289
233.253
233.226
233.182
233.154
233.092
233.073
232.987
232.974
232.873
232.859
232.746
232.73
232.607
232.58
232.459
234.697
234.697
234.699
234.681
234.683
234.653
234.648
234.612
234.596
234.559
234.531
234.487
234.458
234.397
234.374
234.291
234.276
234.175
234.16
234.048
234.031
233.908
233.881
233.76
236.008
236.008
236.011
235.992
235.994
235.963
235.958
235.922
235.905
235.868
235.839
235.796
235.764
235.705
235.679
235.599
235.582
235.48
235.466
235.354
235.337
235.214
235.187
235.066
237.316
237.316
237.319
237.3
237.303
237.272
237.268
237.231
237.215
237.178
237.149
237.106
237.073
237.015
236.987
236.91
236.889
236.791
236.774
236.665
236.647
236.524
236.499
236.377
238.619
238.619
238.622
238.604
238.607
238.577
238.574
238.538
238.522
238.487
238.458
238.416
238.383
238.328
238.299
238.225
238.201
238.105
238.089
237.979
237.962
237.841
237.816
237.694
239.914
239.914
239.918
239.9
239.905
239.876
239.874
239.841
239.826
239.793
239.766
239.727
239.695
239.642
239.612
239.542
239.516
239.426
239.409
239.298
239.283
239.162
239.138
239.017
241.2
241.2
241.206
241.189
241.195
241.168
241.169
241.138
241.126
241.096
241.071
241.035
241.006
240.957
240.929
240.863
240.837
240.749
240.732
240.625
240.61
240.489
240.467
240.346
242.481
242.482
242.488
242.472
242.48
242.456
242.459
242.43
242.422
242.395
242.374
242.342
242.316
242.271
242.246
242.184
242.161
242.079
242.062
241.957
241.943
241.823
241.802
241.68
243.762
243.764
243.77
243.756
243.765
243.743
243.748
243.722
243.716
243.693
243.675
243.647
243.624
243.584
243.563
243.506
243.486
243.407
243.395
243.294
243.284
243.165
243.145
243.023
245.053
245.055
245.061
245.049
245.058
245.037
245.042
245.02
245.014
244.994
244.978
244.954
244.933
244.896
244.881
244.824
244.815
244.734
244.733
244.63
244.628
244.511
244.496
244.376
246.364
246.367
246.373
246.36
246.369
246.349
246.354
246.331
246.326
246.306
246.29
246.267
246.247
246.213
246.199
246.143
246.14
246.058
246.066
245.964
245.97
245.856
245.847
245.736
247.708
247.71
247.716
247.702
247.711
247.687
247.692
247.666
247.66
247.637
247.62
247.595
247.574
247.54
247.523
247.47
247.465
247.385
247.394
247.294
247.304
247.191
247.189
247.084
249.094
249.096
249.101
249.085
249.092
249.066
249.067
249.037
249.028
249.001
248.979
248.949
248.923
248.886
248.862
248.811
248.795
248.721
248.723
248.621
248.635
248.519
248.521
248.415
250.528
250.53
250.534
250.516
250.521
250.491
250.489
250.454
250.439
250.406
250.377
250.341
250.307
250.263
250.229
250.172
250.148
250.068
250.064
249.957
249.968
249.843
249.849
249.736
252.013
252.015
252.017
251.998
252
251.967
251.96
251.921
251.899
251.861
251.823
251.781
251.736
251.684
251.638
251.572
251.535
251.444
251.43
251.308
251.315
251.177
251.182
251.054
253.546
253.547
253.549
253.528
253.527
253.492
253.481
253.438
253.411
253.367
253.322
253.272
253.218
253.156
253.098
253.022
252.97
252.864
252.836
252.698
252.691
252.532
252.533
252.382
255.118
255.12
255.121
255.099
255.097
255.059
255.047
255
254.97
254.92
254.872
254.815
254.755
254.685
254.617
254.533
254.461
254.352
254.295
254.149
254.118
253.936
253.922
253.736
256.721
256.722
256.724
256.7
256.699
256.659
256.646
256.597
256.566
256.514
256.463
256.403
256.339
256.264
256.19
256.101
256.017
255.907
255.823
255.68
255.613
255.42
255.381
255.149
258.341
258.342
258.344
258.321
258.319
258.28
258.267
258.218
258.187
258.135
258.083
258.023
257.958
257.882
257.806
257.715
257.628
257.516
257.423
257.283
257.192
257.005
256.938
256.67
259.968
259.969
259.972
259.948
259.948
259.909
259.897
259.849
259.819
259.768
259.718
259.659
259.595
259.523
259.447
259.359
259.272
259.165
259.07
258.937
258.844
258.662
258.592
258.327
261.589
261.59
261.594
261.571
261.572
261.534
261.524
261.478
261.449
261.401
261.353
261.298
261.237
261.168
261.096
261.013
260.93
260.827
260.74
260.611
260.529
260.352
260.294
260.052
263.196
263.197
263.201
263.18
263.181
263.145
263.136
263.093
263.067
263.022
262.977
262.926
262.868
262.804
262.736
262.66
262.581
262.488
262.404
262.285
262.211
262.046
261.992
261.771
264.779
264.781
264.785
264.765
264.768
264.734
264.727
264.686
264.662
264.622
264.579
264.533
264.478
264.421
264.357
264.287
264.214
264.128
264.052
263.942
263.874
263.723
263.673
263.471
266.333
266.335
266.339
266.321
266.324
266.293
266.287
266.25
266.228
266.192
266.152
266.111
266.06
266.009
265.949
265.887
265.818
265.743
265.67
265.57
265.509
265.371
265.325
265.141
267.852
267.854
267.859
267.842
267.846
267.817
267.812
267.779
267.759
267.728
267.689
267.655
267.605
267.563
267.505
267.452
267.387
267.32
267.255
267.162
267.107
266.984
266.94
266.775
269.331
269.334
269.339
269.323
269.329
269.301
269.299
269.268
269.25
269.223
269.188
269.159
269.112
269.076
269.021
268.977
268.915
268.858
268.795
268.716
268.663
268.554
268.514
268.366
270.769
270.771
270.777
270.762
270.769
270.743
270.744
270.714
270.7
270.674
270.644
270.617
270.577
270.544
270.496
270.456
270.4
270.35
270.293
270.222
270.175
270.079
270.041
269.91
272.161
272.164
272.171
272.156
272.165
272.14
272.143
272.115
272.105
272.081
272.055
272.031
271.995
271.966
271.923
271.888
271.838
271.796
271.742
271.686
271.637
271.554
271.519
271.405
273.508
273.511
273.519
273.504
273.515
273.49
273.496
273.469
273.462
273.441
273.419
273.397
273.366
273.341
273.303
273.273
273.228
273.192
273.142
273.095
273.051
272.98
272.947
272.848
274.808
274.811
274.819
274.805
274.817
274.794
274.801
274.777
274.771
274.753
274.734
274.715
274.688
274.667
274.634
274.608
274.568
274.538
274.494
274.455
274.411
274.354
274.323
274.239
276.06
276.063
276.072
276.057
276.073
276.047
276.059
276.034
276.033
276.015
276
275.985
275.961
275.943
275.914
275.893
275.857
275.833
275.793
275.763
275.722
275.677
275.644
275.576
277.264
277.267
277.275
277.265
277.274
277.259
277.264
277.247
277.243
277.231
277.217
277.205
277.184
277.17
277.145
277.128
277.097
277.078
277.042
277.017
276.98
276.945
276.916
276.859
278.42
278.422
278.435
278.415
278.441
278.408
278.433
278.403
278.411
278.394
278.386
278.375
278.358
278.347
278.325
278.312
278.285
278.271
278.238
278.221
278.187
278.162
278.133
278.088
279.529
279.533
279.538
279.536
279.536
279.536
279.53
279.528
279.519
279.516
279.503
279.498
279.483
279.475
279.456
279.447
279.423
279.414
279.386
279.373
279.343
279.326
279.298
279.265
280.591
280.592
280.609
280.584
280.618
280.578
280.615
280.578
280.599
280.579
280.579
280.571
280.56
280.554
280.539
280.533
280.512
280.507
280.482
280.475
280.448
280.438
280.412
280.388
281.606
281.612
281.614
281.617
281.612
281.621
281.609
281.618
281.605
281.611
281.599
281.6
281.588
281.586
281.573
281.57
281.553
281.551
281.53
281.527
281.503
281.5
281.474
281.461
282.578
282.578
282.594
282.573
282.604
282.57
282.606
282.572
282.597
282.578
282.584
282.578
282.573
282.571
282.561
282.561
282.546
282.548
282.529
282.531
282.51
282.511
282.489
282.483
283.503
283.509
283.51
283.515
283.512
283.521
283.511
283.523
283.511
283.522
283.511
283.517
283.508
283.511
283.503
283.505
283.493
283.498
283.482
283.488
283.468
283.476
283.455
283.457
284.389
284.388
284.403
284.386
284.412
284.387
284.417
284.392
284.414
284.4
284.408
284.405
284.404
284.406
284.401
284.405
284.395
284.403
284.39
284.399
284.383
284.394
284.375
284.383
285.229
285.235
285.236
285.242
285.239
285.249
285.242
285.254
285.245
285.257
285.25
285.258
285.253
285.259
285.255
285.262
285.254
285.265
285.253
285.266
285.251
285.267
285.251
285.264
286.033
286.032
286.046
286.032
286.056
286.035
286.061
286.044
286.062
286.055
286.062
286.064
286.064
286.07
286.068
286.077
286.071
286.083
286.074
286.089
286.077
286.096
286.081
286.099
286.795
286.801
286.799
286.81
286.801
286.819
286.807
286.824
286.816
286.829
286.825
286.834
286.833
286.842
286.841
286.851
286.847
286.861
286.854
286.872
286.86
286.883
286.871
286.891
287.522
287.521
287.535
287.52
287.547
287.524
287.553
287.536
287.555
287.551
287.558
287.563
287.565
287.574
287.575
287.587
287.584
287.6
287.594
287.614
287.605
287.63
287.619
287.642
288.21
288.217
288.211
288.229
288.212
288.24
288.22
288.246
288.234
288.25
288.247
288.259
288.259
288.27
288.272
288.285
288.284
288.301
288.296
288.319
288.31
288.337
288.328
288.354
288.867
288.866
288.88
288.864
288.893
288.869
288.9
288.882
288.904
288.899
288.91
288.915
288.92
288.931
288.933
288.947
288.947
288.966
288.963
288.986
288.979
289.008
288.999
289.029
289.488
289.495
289.488
289.507
289.489
289.519
289.497
289.526
289.512
289.533
289.529
289.543
289.545
289.558
289.56
289.575
289.577
289.596
289.594
289.619
289.613
289.644
289.636
289.668
290.08
290.079
290.09
290.08
290.101
290.086
290.111
290.097
290.119
290.114
290.127
290.133
290.14
290.151
290.155
290.171
290.173
290.194
290.192
290.218
290.214
290.246
290.233
290.278
290.638
290.644
290.64
290.654
290.645
290.665
290.653
290.675
290.666
290.685
290.683
290.698
290.701
290.715
290.719
290.736
290.739
290.76
290.76
290.787
290.782
290.816
290.807
290.847
291.171
291.172
291.179
291.176
291.187
291.183
291.198
291.194
291.209
291.21
291.221
291.228
291.236
291.248
291.254
291.271
291.275
291.297
291.297
291.324
291.321
291.356
291.347
291.388
291.674
291.679
291.677
291.686
291.683
291.696
291.692
291.707
291.706
291.719
291.722
291.735
291.741
291.755
291.76
291.778
291.782
291.804
291.806
291.834
291.831
291.866
291.858
291.902
292.153
292.153
292.159
292.157
292.168
292.166
292.177
292.179
292.188
292.195
292.202
292.213
292.22
292.234
292.24
292.258
292.263
292.286
292.287
292.316
292.314
292.35
292.344
292.384
292.604
292.609
292.607
292.617
292.612
292.626
292.623
292.636
292.638
292.649
292.655
292.666
292.673
292.688
292.694
292.712
292.718
292.74
292.743
292.772
292.771
292.807
292.801
292.845
293.034
293.035
293.04
293.039
293.049
293.047
293.058
293.061
293.069
293.077
293.084
293.096
293.103
293.117
293.124
293.143
293.148
293.172
293.174
293.203
293.203
293.239
293.234
293.278
293.44
293.443
293.443
293.45
293.449
293.459
293.459
293.47
293.473
293.485
293.49
293.502
293.51
293.524
293.531
293.55
293.556
293.578
293.583
293.612
293.612
293.648
293.644
293.687
293.825
293.827
293.829
293.832
293.836
293.841
293.847
293.853
293.86
293.868
293.876
293.887
293.895
293.909
293.916
293.935
293.941
293.965
293.968
293.997
293.998
294.035
294.03
294.074
294.19
294.191
294.194
294.196
294.201
294.205
294.211
294.218
294.223
294.233
294.24
294.252
294.259
294.274
294.281
294.3
294.306
294.329
294.334
294.363
294.363
294.4
294.396
294.439
294.535
294.537
294.538
294.543
294.544
294.552
294.554
294.563
294.568
294.578
294.585
294.597
294.604
294.619
294.626
294.645
294.651
294.675
294.679
294.708
294.708
294.745
294.74
294.785
294.862
294.864
294.865
294.869
294.872
294.877
294.882
294.889
294.895
294.904
294.912
294.923
294.931
294.945
294.952
294.971
294.978
295.001
295.005
295.035
295.035
295.071
295.068
295.11
295.172
295.173
295.175
295.177
295.182
295.186
295.191
295.199
295.204
295.214
295.22
295.232
295.239
295.255
295.261
295.28
295.287
295.31
295.315
295.343
295.344
295.38
295.376
295.419
295.465
295.466
295.467
295.472
295.473
295.481
295.483
295.492
295.496
295.506
295.513
295.525
295.532
295.547
295.554
295.572
295.58
295.602
295.606
295.636
295.636
295.671
295.669
295.71
295.742
295.743
295.745
295.748
295.752
295.756
295.762
295.768
295.774
295.783
295.79
295.801
295.809
295.824
295.83
295.849
295.856
295.878
295.884
295.911
295.913
295.948
295.944
295.987
296.005
296.006
296.008
296.01
296.015
296.018
296.024
296.03
296.036
296.046
296.052
296.064
296.071
296.086
296.092
296.111
296.118
296.14
296.144
296.173
296.176
296.207
296.206
296.246
296.254
296.255
296.256
296.26
296.261
296.269
296.271
296.28
296.284
296.294
296.3
296.312
296.319
296.333
296.34
296.358
296.366
296.387
296.393
296.419
296.424
296.453
296.452
296.494
296.489
296.49
296.492
296.494
296.499
296.502
296.508
296.513
296.52
296.528
296.535
296.546
296.554
296.568
296.575
296.593
296.6
296.621
296.626
296.653
296.653
296.692
296.687
296.725
296.712
296.713
296.715
296.717
296.721
296.724
296.73
296.736
296.741
296.751
296.757
296.768
296.775
296.789
296.797
296.814
296.821
296.842
296.848
296.874
296.874
296.912
296.906
296.946
296.923
296.924
296.925
296.93
296.929
296.938
296.938
296.948
296.951
296.962
296.967
296.979
296.986
296.999
297.007
297.024
297.031
297.052
297.057
297.083
297.086
297.117
297.115
297.153
297.122
297.123
297.126
297.125
297.133
297.132
297.143
297.143
297.154
297.159
297.167
297.177
297.184
297.198
297.205
297.222
297.228
297.249
297.254
297.281
297.282
297.316
297.312
297.351
297.311
297.313
297.312
297.319
297.316
297.328
297.324
297.338
297.337
297.35
297.353
297.366
297.372
297.385
297.393
297.41
297.416
297.437
297.441
297.467
297.469
297.501
297.499
297.535
297.49
297.49
297.495
297.492
297.502
297.498
297.511
297.509
297.521
297.525
297.534
297.543
297.55
297.563
297.57
297.588
297.592
297.614
297.62
297.643
297.645
297.677
297.674
297.712
297.659
297.661
297.659
297.668
297.662
297.676
297.67
297.686
297.684
297.697
297.7
297.712
297.718
297.731
297.738
297.755
297.76
297.782
297.783
297.812
297.811
297.844
297.841
297.876
297.82
297.819
297.824
297.82
297.831
297.826
297.84
297.837
297.849
297.853
297.861
297.87
297.877
297.89
297.897
297.914
297.918
297.94
297.942
297.97
297.97
298
297.997
298.033
297.97
297.973
297.97
297.979
297.974
297.987
297.982
297.996
297.994
298.007
298.009
298.022
298.027
298.041
298.047
298.063
298.069
298.088
298.092
298.117
298.118
298.15
298.146
298.181
298.114
298.113
298.118
298.115
298.124
298.121
298.132
298.132
298.141
298.147
298.153
298.164
298.169
298.183
298.188
298.206
298.208
298.231
298.233
298.259
298.26
298.289
298.286
298.321
298.249
298.25
298.249
298.255
298.253
298.262
298.261
298.272
298.273
298.284
298.287
298.299
298.303
298.317
298.321
298.34
298.342
298.365
298.366
298.392
298.391
298.423
298.419
298.453
298.377
298.377
298.379
298.38
298.384
298.387
298.392
298.397
298.402
298.41
298.415
298.426
298.431
298.443
298.448
298.466
298.469
298.49
298.493
298.516
298.519
298.546
298.544
298.576
298.497
298.498
298.5
298.501
298.505
298.507
298.512
298.517
298.522
298.53
298.535
298.545
298.549
298.564
298.568
298.585
298.588
298.61
298.61
298.636
298.635
298.665
298.662
298.695
298.611
298.612
298.612
298.617
298.615
298.625
298.622
298.633
298.633
298.645
298.647
298.66
298.662
298.677
298.681
298.698
298.7
298.722
298.724
298.747
298.749
298.775
298.775
298.804
298.719
298.718
298.723
298.719
298.73
298.724
298.738
298.734
298.745
298.749
298.755
298.766
298.77
298.783
298.787
298.804
298.807
298.827
298.828
298.854
298.852
298.881
298.879
298.91
298.82
298.822
298.818
298.829
298.819
298.838
298.826
298.846
298.839
298.855
298.853
298.868
298.869
298.884
298.888
298.905
298.906
298.928
298.929
298.951
298.954
298.978
298.979
299.007
298.916
298.914
298.922
298.912
298.931
298.916
298.938
298.927
298.944
298.943
298.952
298.961
298.965
298.979
298.982
298.999
299.002
299.021
299.022
299.047
299.045
299.073
299.072
299.101
299.005
299.009
299.002
299.018
299.001
299.027
299.008
299.034
299.021
299.041
299.037
299.052
299.053
299.068
299.071
299.088
299.089
299.11
299.111
299.133
299.136
299.159
299.16
299.187
299.091
299.088
299.098
299.086
299.107
299.089
299.114
299.1
299.119
299.116
299.126
299.134
299.138
299.152
299.154
299.171
299.174
299.192
299.193
299.218
299.216
299.243
299.242
299.27
299.169
299.173
299.165
299.182
299.165
299.19
299.172
299.197
299.185
299.204
299.2
299.215
299.216
299.23
299.233
299.249
299.251
299.272
299.273
299.294
299.296
299.319
299.319
299.346
299.245
299.242
299.251
299.241
299.259
299.245
299.265
299.255
299.271
299.27
299.279
299.287
299.291
299.305
299.306
299.323
299.326
299.343
299.345
299.368
299.367
299.393
299.392
299.419
299.314
299.317
299.311
299.324
299.312
299.332
299.319
299.338
299.33
299.347
299.344
299.358
299.36
299.373
299.376
299.391
299.393
299.414
299.414
299.435
299.436
299.46
299.46
299.486
299.38
299.379
299.385