/*--------------------------------*- C++ -*----------------------------------*\
  =========                 |
  \\      /  F ield         | OpenFOAM: The Open Source CFD Toolbox
   \\    /   O peration     | Website:  https://openfoam.org
    \\  /    A nd           | Version:  10
     \\/     M anipulation  |
\*---------------------------------------------------------------------------*/
FoamFile
{
    format      ascii;
    class       volVectorField;
    location    "0.27";
    object      U;
}
// * * * * * * * * * * * * * * * * * * * * * * * * * * * * * * * * * * * * * //

dimensions      [0 1 -1 0 0 0 0];

internalField   nonuniform List<vector> 
4176
(
(497.488 -0.0142311 -4.52926e-09)
(497.474 0.0639219 1.43709e-09)
(497.449 0.00123651 -4.37577e-10)
(497.4 0.0907163 7.52242e-11)
(497.346 0.0507742 6.12905e-11)
(497.271 0.0899738 -4.41439e-10)
(497.18 0.125543 -4.98067e-10)
(497.087 0.0609736 -1.52957e-11)
(496.953 0.224783 3.3977e-10)
(496.848 0.00529516 4.29224e-10)
(496.672 0.343825 3.44974e-10)
(496.549 -0.0685255 4.04249e-10)
(496.338 0.469249 2.79433e-10)
(496.191 -0.138828 -8.9037e-11)
(495.956 0.567235 -3.04536e-10)
(495.773 -0.134915 -2.56812e-10)
(495.536 0.527897 -2.60804e-10)
(495.286 0.0244178 -7.05464e-11)
(495.072 0.334074 2.95294e-10)
(494.729 0.323666 2.0879e-10)
(494.575 -0.0174553 -1.03624e-10)
(494.097 0.772323 -1.74082e-10)
(494.067 -0.517382 4.7856e-11)
(493.443 1.44316 1.43936e-10)
(497.469 0.00484406 -4.52849e-09)
(497.455 0.114748 1.43765e-09)
(497.43 0.0762956 -4.37804e-10)
(497.379 0.203629 7.45724e-11)
(497.325 0.186033 6.13715e-11)
(497.247 0.264699 -4.41306e-10)
(497.156 0.321449 -4.98938e-10)
(497.059 0.296067 -1.52879e-11)
(496.924 0.48175 3.40427e-10)
(496.814 0.298419 4.29518e-10)
(496.635 0.662342 3.44673e-10)
(496.508 0.279295 4.04293e-10)
(496.293 0.84982 2.77895e-10)
(496.141 0.259047 -8.89905e-11)
(495.9 1.01192 -3.04431e-10)
(495.713 0.30276 -2.5639e-10)
(495.469 1.04166 -2.62003e-10)
(495.215 0.511463 -7.06072e-11)
(494.995 0.913609 2.94317e-10)
(494.646 0.855812 2.08397e-10)
(494.491 0.627762 -1.0361e-10)
(493.992 1.3317 -1.76444e-10)
(493.956 0.124406 4.86389e-11)
(493.269 1.99318 1.43516e-10)
(497.413 0.0231946 -4.53224e-09)
(497.398 0.161406 1.43665e-09)
(497.374 0.147477 -4.39864e-10)
(497.323 0.307974 7.56727e-11)
(497.272 0.313641 6.10687e-11)
(497.194 0.426888 -4.42192e-10)
(497.107 0.505574 -4.96524e-10)
(497.01 0.515297 -1.36088e-11)
(496.881 0.722471 3.42401e-10)
(496.771 0.573081 4.29899e-10)
(496.599 0.960124 3.43945e-10)
(496.473 0.606698 4.03625e-10)
(496.263 1.20561 2.79594e-10)
(496.116 0.634628 -8.89425e-11)
(495.876 1.42812 -3.04781e-10)
(495.697 0.71451 -2.55294e-10)
(495.454 1.52216 -2.64796e-10)
(495.208 0.966717 -7.21799e-11)
(494.993 1.45642 2.95055e-10)
(494.652 1.34447 2.07984e-10)
(494.505 1.24702 -1.04634e-10)
(494.015 1.88286 -1.73858e-10)
(493.981 0.838005 4.8918e-11)
(493.27 2.60933 1.44447e-10)
(497.308 0.0419299 -4.53044e-09)
(497.294 0.208914 1.44039e-09)
(497.27 0.219976 -4.40861e-10)
(497.219 0.414294 7.8838e-11)
(497.168 0.443612 6.03448e-11)
(497.09 0.592242 -4.46713e-10)
(497.003 0.693134 -4.96745e-10)
(496.907 0.738926 -1.62692e-11)
(496.777 0.967687 3.35659e-10)
(496.668 0.853392 4.3347e-10)
(496.494 1.26346 3.45085e-10)
(496.37 0.941056 4.02115e-10)
(496.157 1.56829 2.81226e-10)
(496.012 1.01882 -9.05356e-11)
(495.77 1.85299 -3.12025e-10)
(495.593 1.13599 -2.5666e-10)
(495.346 2.01659 -2.62452e-10)
(495.096 1.42724 -7.25004e-11)
(494.89 2.00859 2.97436e-10)
(494.54 1.84135 2.07385e-10)
(494.398 1.85762 -1.07512e-10)
(493.915 2.42072 -1.74751e-10)
(493.886 1.525 4.71291e-11)
(493.205 3.20608 1.34919e-10)
(497.157 0.0602617 -4.53217e-09)
(497.142 0.255437 1.44676e-09)
(497.119 0.290898 -4.37103e-10)
(497.068 0.51848 7.896e-11)
(497.018 0.570749 6.36536e-11)
(496.941 0.754407 -4.41483e-10)
(496.855 0.876607 -4.98919e-10)
(496.759 0.958469 -1.42558e-11)
(496.631 1.20756 3.41159e-10)
(496.523 1.12887 4.31527e-10)
(496.351 1.56025 3.45486e-10)
(496.229 1.26986 4.05195e-10)
(496.017 1.92356 2.77935e-10)
(495.876 1.39658 -9.15473e-11)
(495.633 2.2707 -3.10214e-10)
(495.461 1.55069 -2.593e-10)
(495.21 2.51191 -2.63617e-10)
(494.966 1.87041 -7.16857e-11)
(494.763 2.55367 2.92042e-10)
(494.41 2.33929 2.13174e-10)
(494.27 2.45206 -9.98611e-11)
(493.792 2.94651 -1.71866e-10)
(493.763 2.16765 5.07227e-11)
(493.102 3.76399 1.45688e-10)
(496.956 0.0785853 -4.54432e-09)
(496.942 0.301664 1.44437e-09)
(496.919 0.361665 -4.35648e-10)
(496.868 0.62208 7.44232e-11)
(496.819 0.697579 5.25169e-11)
(496.741 0.915715 -4.46802e-10)
(496.657 1.05965 -4.96818e-10)
(496.561 1.17696 -1.82524e-11)
(496.435 1.44686 3.41778e-10)
(496.327 1.40328 4.3711e-10)
(496.156 1.85616 3.45993e-10)
(496.034 1.59783 3.99734e-10)
(495.825 2.27722 2.75339e-10)
(495.684 1.77423 -8.92018e-11)
(495.442 2.68512 -3.13379e-10)
(495.274 1.96963 -2.56854e-10)
(495.017 3.00253 -2.53168e-10)
(494.786 2.31329 -6.87932e-11)
(494.57 3.10324 3.01938e-10)
(494.229 2.83616 2.15327e-10)
(494.084 3.04822 -1.04174e-10)
(493.61 3.47445 -1.82675e-10)
(493.575 2.81464 4.74725e-11)
(492.913 4.32096 1.45913e-10)
(496.707 0.0967308 -4.5438e-09)
(496.693 0.347227 1.44166e-09)
(496.671 0.431638 -4.51699e-10)
(496.62 0.724239 7.46058e-11)
(496.571 0.822952 6.72265e-11)
(496.494 1.07481 -4.46122e-10)
(496.411 1.24058 -5.08546e-10)
(496.316 1.39252 -1.37667e-11)
(496.191 1.68341 3.48416e-10)
(496.084 1.67418 4.32512e-10)
(495.916 2.14863 3.43445e-10)
(495.794 1.922 4.10957e-10)
(495.587 2.62648 2.91212e-10)
(495.448 2.14823 -8.73969e-11)
(495.207 3.09345 -3.09108e-10)
(495.043 2.38693 -2.53707e-10)
(494.784 3.48213 -2.62741e-10)
(494.564 2.75797 -7.44085e-11)
(494.337 3.65069 2.96518e-10)
(494.009 3.32118 2.12876e-10)
(493.859 3.64322 -1.05678e-10)
(493.392 4.0019 -1.82864e-10)
(493.353 3.47137 4.97656e-11)
(492.692 4.88324 1.50947e-10)
(496.41 0.114738 -4.55915e-09)
(496.396 0.392321 1.45195e-09)
(496.374 0.500988 -4.31358e-10)
(496.323 0.825376 7.81736e-11)
(496.275 0.947154 5.44019e-11)
(496.199 1.2323 -4.43459e-10)
(496.117 1.41977 -4.924e-10)
(496.022 1.60593 -1.50591e-11)
(495.899 1.91763 3.30307e-10)
(495.792 1.94247 4.30247e-10)
(495.626 2.43817 3.54573e-10)
(495.506 2.24328 4.05524e-10)
(495.3 2.97214 2.65727e-10)
(495.163 2.51927 -9.61664e-11)
(494.923 3.49728 -3.02226e-10)
(494.763 2.80172 -2.61943e-10)
(494.503 3.95435 -2.5922e-10)
(494.292 3.20027 -5.78094e-11)
(494.058 4.19346 3.0046e-10)
(493.742 3.80176 1.98194e-10)
(493.585 4.23635 -1.05963e-10)
(493.126 4.5245 -1.66837e-10)
(493.084 4.1228 4.72347e-11)
(492.43 5.43827 1.27733e-10)
(496.064 0.132564 -4.57065e-09)
(496.05 0.43686 1.43845e-09)
(496.028 0.569552 -4.53338e-10)
(495.978 0.925283 6.60508e-11)
(495.931 1.06989 5.43107e-11)
(495.855 1.38785 -4.52078e-10)
(495.774 1.59678 -5.08103e-10)
(495.68 1.81669 -1.82415e-11)
(495.559 2.14893 3.37047e-10)
(495.453 2.20747 4.27409e-10)
(495.289 2.72402 3.43015e-10)
(495.17 2.56079 4.04221e-10)
(494.966 3.31333 2.74212e-10)
(494.831 2.8863 -9.50302e-11)
(494.593 3.89568 -3.09089e-10)
(494.436 3.21268 -2.59025e-10)
(494.176 4.4181 -2.63629e-10)
(493.973 3.6396 -6.88042e-11)
(493.734 4.72941 2.9712e-10)
(493.43 4.27569 2.05082e-10)
(493.267 4.82693 -1.08034e-10)
(492.817 5.04236 -1.78006e-10)
(492.771 4.76982 4.89793e-11)
(492.126 5.98666 1.44089e-10)
(495.67 0.150205 -4.55414e-09)
(495.656 0.480851 1.46697e-09)
(495.635 0.637326 -4.34618e-10)
(495.585 1.02398 8.93055e-11)
(495.538 1.19117 7.28817e-11)
(495.463 1.5415 -4.35361e-10)
(495.383 1.7716 -4.9153e-10)
(495.29 2.02482 -8.82722e-13)
(495.17 2.37727 3.55617e-10)
(495.066 2.46915 4.44387e-10)
(494.903 3.00611 3.61584e-10)
(494.786 2.87441 4.20333e-10)
(494.584 3.64993 2.92833e-10)
(494.452 3.24909 -8.25213e-11)
(494.215 4.28854 -2.9566e-10)
(494.062 3.61951 -2.48488e-10)
(493.802 4.87372 -2.4991e-10)
(493.607 4.07516 -5.77627e-11)
(493.363 5.25782 3.11115e-10)
(493.071 4.74312 2.16675e-10)
(492.902 5.41317 -9.60153e-11)
(492.463 5.55385 -1.65938e-10)
(492.413 5.41037 5.84099e-11)
(491.778 6.5267 1.53257e-10)
(495.228 0.167635 -4.57446e-09)
(495.214 0.52424 1.45577e-09)
(495.192 0.704215 -4.44397e-10)
(495.143 1.12135 8.19364e-11)
(495.097 1.31084 6.60877e-11)
(495.022 1.69309 -4.43749e-10)
(494.944 1.94405 -4.96936e-10)
(494.852 2.23012 -2.60854e-12)
(494.733 2.6024 3.5412e-10)
(494.63 2.72722 4.42975e-10)
(494.469 3.28409 3.62171e-10)
(494.355 3.1837 4.231e-10)
(494.155 3.98148 2.95535e-10)
(494.025 3.60706 -8.09841e-11)
(493.79 4.67537 -2.91229e-10)
(493.641 4.02148 -2.42654e-10)
(493.381 5.32109 -2.42488e-10)
(493.193 4.50643 -5.14894e-11)
(492.946 5.77784 3.2169e-10)
(492.666 5.20412 2.27439e-10)
(492.491 5.99284 -1.07817e-10)
(492.064 6.05736 -1.99926e-10)
(492.01 6.04454 2.92098e-11)
(491.385 7.05793 1.22147e-10)
(494.736 0.18483 -4.58231e-09)
(494.722 0.566984 1.45874e-09)
(494.701 0.77014 -4.47809e-10)
(494.653 1.21731 7.66383e-11)
(494.608 1.42876 6.09579e-11)
(494.534 1.84249 -4.50114e-10)
(494.456 2.11397 -5.05423e-10)
(494.365 2.43246 -1.24606e-11)
(494.248 2.82416 3.44544e-10)
(494.147 2.98151 4.33848e-10)
(493.988 3.55775 3.51967e-10)
(493.875 3.48841 4.14141e-10)
(493.677 4.30769 2.84613e-10)
(493.551 3.9598 -9.08952e-11)
(493.317 5.05581 -3.06064e-10)
(493.172 4.418 -2.56538e-10)
(492.914 5.76025 -2.59686e-10)
(492.732 4.93305 -6.47711e-11)
(492.483 6.28894 3.0337e-10)
(492.214 5.65861 2.08981e-10)
(492.034 6.56397 -1.03015e-10)
(491.62 6.55121 -1.70704e-10)
(491.562 6.67172 5.51955e-11)
(490.948 7.5798 1.48666e-10)
(494.197 0.201765 -4.59056e-09)
(494.182 0.609024 1.45863e-09)
(494.162 0.835004 -4.54211e-10)
(494.114 1.31173 7.08651e-11)
(494.069 1.5448 5.25803e-11)
(493.996 1.98953 -4.62885e-10)
(493.92 2.28116 -5.20352e-10)
(493.83 2.63161 -2.89377e-11)
(493.715 3.04231 3.28138e-10)
(493.615 3.23178 4.15498e-10)
(493.458 3.82685 3.25985e-10)
(493.348 3.78826 3.88306e-10)
(493.152 4.62824 2.51725e-10)
(493.028 4.30688 -9.66601e-11)
(492.797 5.42939 -2.82461e-10)
(492.656 4.80836 -2.39406e-10)
(492.399 6.19107 -2.41648e-10)
(492.225 5.35461 -5.22617e-11)
(491.972 6.79038 3.16065e-10)
(491.715 6.10518 2.19311e-10)
(491.531 7.12654 -9.50112e-11)
(491.13 7.03531 -1.65618e-10)
(491.068 7.29009 6.05847e-11)
(490.467 8.09176 1.51847e-10)
(493.608 0.218415 -4.59141e-09)
(493.594 0.65031 1.48336e-09)
(493.574 0.898714 -4.55611e-10)
(493.526 1.40448 5.14753e-11)
(493.482 1.65877 4.9499e-11)
(493.41 2.13401 -4.54526e-10)
(493.335 2.44539 -4.99775e-10)
(493.247 2.82735 8.53955e-12)
(493.133 3.25662 3.48048e-10)
(493.035 3.47779 4.16458e-10)
(492.88 4.09112 3.39405e-10)
(492.772 4.08296 4.12065e-10)
(492.579 4.94285 2.94037e-10)
(492.458 4.64795 -7.77249e-11)
(492.229 5.79577 -3.15904e-10)
(492.093 5.19207 -2.80494e-10)
(491.838 6.61314 -2.7811e-10)
(491.67 5.77055 -7.07745e-11)
(491.416 7.28173 3.10494e-10)
(491.17 6.54355 2.24999e-10)
(490.982 7.67967 -1.07529e-10)
(490.593 7.50844 -1.94557e-10)
(490.53 7.89842 4.38154e-11)
(489.941 8.59328 1.49151e-10)
(492.97 0.234756 -4.61565e-09)
(492.956 0.690791 1.44523e-09)
(492.936 0.961184 -4.4731e-10)
(492.889 1.49545 1.08229e-10)
(492.846 1.77051 7.50859e-11)
(492.775 2.27574 -4.523e-10)
(492.702 2.60643 -5.20369e-10)
(492.615 3.01941 -3.71107e-11)
(492.503 3.46676 3.45922e-10)
(492.407 3.71921 4.59085e-10)
(492.254 4.35025 3.60634e-10)
(492.148 4.37219 4.06622e-10)
(491.958 5.25122 2.59673e-10)
(491.84 4.98266 -9.95693e-11)
(491.614 6.15461 -2.92135e-10)
(491.482 5.56865 -2.51537e-10)
(491.229 7.02601 -2.67958e-10)
(491.068 6.18012 -8.20365e-11)
(490.813 7.76236 2.70017e-10)
(490.578 6.97335 1.95861e-10)
(490.387 8.22306 -9.47409e-11)
(490.011 7.96982 -1.70385e-10)
(489.945 8.49543 4.40628e-11)
(489.369 9.08384 1.23917e-10)
(492.283 0.250768 -4.60993e-09)
(492.269 0.730422 1.49699e-09)
(492.25 1.02233 -4.54929e-10)
(492.203 1.58452 4.86122e-11)
(492.161 1.87987 4.75699e-11)
(492.091 2.41452 -4.53545e-10)
(492.02 2.76402 -4.93057e-10)
(491.934 3.20748 1.65361e-11)
(491.824 3.67242 3.50712e-10)
(491.73 3.95569 4.18924e-10)
(491.58 4.60387 3.46878e-10)
(491.477 4.65557 4.20828e-10)
(491.289 5.55301 3.04146e-10)
(491.175 5.31065 -1.03379e-10)
(490.951 6.50559 -3.48909e-10)
(490.824 5.93768 -2.77098e-10)
(490.573 7.42933 -2.68387e-10)
(490.418 6.58252 -5.70001e-11)
(490.163 8.23152 3.26184e-10)
(489.94 7.39434 2.02371e-10)
(489.745 8.75599 -1.33894e-10)
(489.383 8.41912 -1.83695e-10)
(489.314 9.08054 5.75363e-11)
(488.752 9.56272 1.61589e-10)
(491.546 0.26643 -4.63459e-09)
(491.532 0.769158 1.4619e-09)
(491.514 1.08208 -4.73853e-10)
(491.468 1.67158 4.49115e-11)
(491.427 1.98669 5.82271e-11)
(491.358 2.55015 -4.27824e-10)
(491.288 2.91791 -4.90102e-10)
(491.204 3.39128 -1.59569e-12)
(491.096 3.87325 3.48281e-10)
(491.004 4.18684 4.31013e-10)
(490.857 4.85156 3.36209e-10)
(490.757 4.93267 3.89666e-10)
(490.572 5.84778 2.84829e-10)
(490.461 5.63149 -7.30504e-11)
(490.24 6.84836 -2.98698e-10)
(490.118 6.29875 -2.53933e-10)
(489.869 7.82282 -2.64871e-10)
(489.721 6.9769 -7.32745e-11)
(489.467 8.68838 2.84279e-10)
(489.255 7.80618 1.79217e-10)
(489.056 9.27695 -1.45701e-10)
(488.71 8.857 -1.80568e-10)
(488.636 9.6542 7.55652e-11)
(488.089 10.0286 1.58451e-10)
(490.76 0.281716 -4.63732e-09)
(490.746 0.806945 1.48873e-09)
(490.728 1.14035 -4.40919e-10)
(490.683 1.75651 9.9657e-11)
(490.643 2.09081 8.1524e-11)
(490.575 2.68243 -4.33179e-10)
(490.507 3.06786 -4.83147e-10)
(490.425 3.57051 2.29322e-11)
(490.32 4.06889 3.89686e-10)
(490.23 4.41225 4.43905e-10)
(490.086 5.09289 3.20752e-10)
(489.988 5.20299 3.86699e-10)
(489.806 6.13507 2.52133e-10)
(489.7 5.94469 -1.25157e-10)
(489.482 7.18248 -3.41271e-10)
(489.364 6.65144 -2.79415e-10)
(489.118 8.20626 -2.82031e-10)
(488.977 7.36252 -7.65753e-11)
(488.723 9.13228 2.9772e-10)
(488.524 8.20856 2.07632e-10)
(488.321 9.78553 -1.02367e-10)
(487.99 9.28302 -1.66363e-10)
(487.911 10.2156 6.45554e-11)
(487.381 10.4811 1.62621e-10)
(489.923 0.296598 -4.65497e-09)
(489.91 0.843719 1.47857e-09)
(489.892 1.19702 -4.62408e-10)
(489.848 1.83917 7.35342e-11)
(489.809 2.19204 4.87633e-11)
(489.743 2.81115 -4.77494e-10)
(489.676 3.21361 -5.29921e-10)
(489.596 3.74489 -2.6749e-11)
(489.493 4.25901 3.32102e-10)
(489.406 4.63156 4.2055e-10)
(489.265 5.32741 3.3437e-10)
(489.171 5.46606 3.91605e-10)
(488.992 6.41435 2.4809e-10)
(488.89 6.24967 -1.33747e-10)
(488.675 7.50742 -3.5985e-10)
(488.563 6.9952 -3.02607e-10)
(488.32 8.57918 -2.69553e-10)
(488.186 7.73887 -3.55252e-11)
(487.933 9.56278 3.38003e-10)
(487.745 8.60109 2.33962e-10)
(487.54 10.2812 -8.17769e-11)
(487.223 9.69686 -1.55257e-10)
(487.141 10.7641 7.28913e-11)
(486.627 10.9197 1.66986e-10)
(489.037 0.311041 -4.68242e-09)
(489.024 0.879404 1.49308e-09)
(489.007 1.25198 -4.34263e-10)
(488.963 1.91939 7.85953e-11)
(488.926 2.2902 7.45457e-11)
(488.861 2.93608 -4.29353e-10)
(488.796 3.35489 -5.09187e-10)
(488.718 3.91413 -3.05213e-11)
(488.618 4.44328 3.51059e-10)
(488.533 4.84438 4.60603e-10)
(488.395 5.55472 3.48742e-10)
(488.304 5.72141 4.22033e-10)
(488.129 6.6851 2.98317e-10)
(488.031 6.54586 -1.14161e-10)
(487.821 7.82262 -3.15333e-10)
(487.713 7.32939 -2.43277e-10)
(487.474 8.94106 -2.74706e-10)
(487.347 8.10538 -9.7791e-11)
(487.096 9.97948 2.88839e-10)
(486.919 8.98334 2.07033e-10)
(486.711 10.7635 -1.35367e-10)
(486.41 10.0982 -1.83471e-10)
(486.324 11.2991 6.06191e-11)
(485.827 11.3439 1.30513e-10)
(488.1 0.325007 -4.67442e-09)
(488.087 0.913909 1.50828e-09)
(488.071 1.30508 -4.35741e-10)
(488.028 1.997 1.13254e-10)
(487.992 2.38505 9.27709e-11)
(487.928 3.05697 -4.68599e-10)
(487.866 3.49144 -5.56158e-10)
(487.79 4.07792 -3.91427e-11)
(487.692 4.62138 3.3399e-10)
(487.611 5.05038 4.30465e-10)
(487.476 5.77443 3.49693e-10)
(487.389 5.96859 4.1867e-10)
(487.218 6.94685 2.89333e-10)
(487.124 6.8327 -8.92462e-11)
(486.917 8.12747 -2.9748e-10)
(486.816 7.65335 -2.39577e-10)
(486.58 9.29128 -2.36861e-10)
(486.46 8.46137 -7.30841e-11)
(486.212 10.382 2.61192e-10)
(486.046 9.35495 1.74709e-10)
(485.836 11.2317 -1.35945e-10)
(485.55 10.4868 -1.96337e-10)
(485.46 11.8201 3.43066e-11)
(484.98 11.7533 1.39493e-10)
(487.113 0.338454 -4.70658e-09)
(487.1 0.947144 1.46471e-09)
(487.084 1.35618 -4.60456e-10)
(487.042 2.07179 1.13804e-10)
(487.008 2.47635 6.93513e-11)
(486.946 3.17354 -4.70219e-10)
(486.886 3.62293 -5.33643e-10)
(486.812 4.23594 4.85355e-12)
(486.717 4.79297 3.98317e-10)
(486.639 5.24921 4.69638e-10)
(486.507 5.98616 3.65348e-10)
(486.424 6.20721 4.05992e-10)
(486.257 7.19916 2.45428e-10)
(486.167 7.10969 -1.12555e-10)
(485.965 8.42144 -3.03565e-10)
(485.869 7.9664 -2.61947e-10)
(485.638 9.62922 -2.82244e-10)
(485.525 8.80601 -9.4454e-11)
(485.28 10.77 3.06914e-10)
(485.125 9.71555 2.30324e-10)
(484.914 11.6849 -1.02499e-10)
(484.644 10.8621 -1.88115e-10)
(484.549 12.3265 2.063e-11)
(484.087 12.1475 1.44388e-10)
(486.074 0.351346 -4.72291e-09)
(486.061 0.979021 1.46986e-09)
(486.046 1.40513 -4.6214e-10)
(486.006 2.14357 1.19654e-10)
(485.973 2.56386 7.93802e-11)
(485.913 3.28552 -4.66502e-10)
(485.855 3.74906 -5.34924e-10)
(485.783 4.38787 -4.46347e-11)
(485.692 4.95768 3.49867e-10)
(485.617 5.44049 4.76103e-10)
(485.489 6.18954 3.76564e-10)
(485.409 6.4369 4.16717e-10)
(485.246 7.44162 2.56072e-10)
(485.162 7.37637 -1.04163e-10)
(484.964 8.70403 -2.94318e-10)
(484.874 8.26796 -2.57882e-10)
(484.647 9.95423 -2.77628e-10)
(484.542 9.13844 -8.53544e-11)
(484.3 11.1432 3.18208e-10)
(484.155 10.0647 2.39611e-10)
(483.944 12.1223 -9.28415e-11)
(483.69 11.2236 -1.79595e-10)
(483.591 12.8177 3.55205e-11)
(483.148 12.5261 1.17347e-10)
(484.985 0.363651 -4.745e-09)
(484.972 1.00947 1.51533e-09)
(484.958 1.45183 -4.38527e-10)
(484.918 2.21218 7.63869e-11)
(484.887 2.64737 2.36573e-11)
(484.829 3.39263 -4.84276e-10)
(484.773 3.86953 -5.10553e-10)
(484.704 4.53336 -2.83391e-11)
(484.616 5.11516 3.56515e-10)
(484.544 5.62386 4.67584e-10)
(484.42 6.38418 3.51489e-10)
(484.345 6.65725 4.32833e-10)
(484.186 7.67383 3.14834e-10)
(484.107 7.63235 -1.09942e-10)
(483.914 8.97482 -3.64822e-10)
(483.83 8.55753 -2.82263e-10)
(483.608 10.2658 -2.62079e-10)
(483.51 9.45796 -8.05348e-11)
(483.272 11.501 3.13856e-10)
(483.138 10.4019 2.26217e-10)
(482.926 12.5428 -1.19637e-10)
(482.689 11.5705 -1.66039e-10)
(482.587 13.2927 8.66778e-11)
(482.163 12.8885 1.51032e-10)
(483.845 0.375345 -4.72899e-09)
(483.832 1.03843 1.54441e-09)
(483.819 1.49617 -4.24757e-10)
(483.78 2.27748 8.79892e-11)
(483.751 2.7267 2.88872e-11)
(483.694 3.49467 -4.8632e-10)
(483.641 3.98405 -5.17172e-10)
(483.575 4.67209 1.5528e-11)
(483.49 5.26505 3.95873e-10)
(483.422 5.79894 4.48356e-10)
(483.302 6.56968 3.25397e-10)
(483.23 6.86788 4.03074e-10)
(483.077 7.89541 2.77081e-10)
(483.002 7.87723 -1.00855e-10)
(482.814 9.23341 -3.05388e-10)
(482.737 8.8347 -2.33506e-10)
(482.519 10.5635 -2.73528e-10)
(482.429 9.76405 -9.9671e-11)
(482.196 11.8428 2.8723e-10)
(482.072 10.7264 1.98035e-10)
(481.86 12.9458 -1.03872e-10)
(481.64 11.902 -1.56748e-10)
(481.535 13.7503 9.24456e-11)
(481.131 13.234 1.5147e-10)
(482.653 0.386414 -4.73924e-09)
(482.641 1.06588 1.5193e-09)
(482.628 1.5381 -4.85665e-10)
(482.591 2.33939 1.00186e-10)
(482.563 2.80171 5.58058e-11)
(482.509 3.59144 -4.93952e-10)
(482.458 4.0924 -5.02107e-10)
(482.395 4.80378 -5.89869e-12)
(482.314 5.407 3.36668e-10)
(482.249 5.96533 4.66473e-10)
(482.133 6.74562 3.65681e-10)
(482.066 7.06835 4.04325e-10)
(481.917 8.1059 3.00136e-10)
(481.848 8.1106 -1.12202e-10)
(481.665 9.47941 -3.58069e-10)
(481.594 9.09905 -2.64623e-10)
(481.381 10.8469 -2.85304e-10)
(481.299 10.0562 -8.95653e-11)
(481.07 12.1683 3.17138e-10)
(480.958 11.0375 1.93438e-10)
(480.747 13.3307 -1.44197e-10)
(480.543 12.2172 -1.76927e-10)
(480.435 14.1891 3.28326e-11)
(480.051 13.5621 1.16667e-10)
(481.411 0.396847 -4.81386e-09)
(481.399 1.09178 1.49972e-09)
(481.387 1.57756 -4.87603e-10)
(481.35 2.39782 7.09574e-11)
(481.324 2.87231 5.5952e-11)
(481.272 3.68282 -4.7273e-10)
(481.224 4.19439 -5.14754e-10)
(481.164 4.92821 1.22113e-11)
(481.086 5.54072 3.84046e-10)
(481.025 6.12271 4.79546e-10)
(480.913 6.9116 4.01609e-10)
(480.851 7.25825 4.11186e-10)
(480.707 8.30488 2.71587e-10)
(480.643 8.33201 -1.18698e-10)
(480.466 9.7124 -3.36232e-10)
(480.401 9.3502 -2.7046e-10)
(480.194 11.1157 -2.68322e-10)
(480.12 10.334 -5.32723e-11)
(479.896 12.4771 3.30237e-10)
(479.794 11.3346 2.24164e-10)
(479.584 13.6968 -1.44947e-10)
(479.397 12.5159 -2.02768e-10)
(479.287 14.6087 3.34156e-11)
(478.923 13.8727 1.32757e-10)
(480.117 0.406632 -4.78931e-09)
(480.105 1.11611 1.55812e-09)
(480.094 1.61453 -4.3246e-10)
(480.058 2.45274 8.38467e-11)
(480.034 2.93842 2.17388e-11)
(479.984 3.7687 -5.04741e-10)
(479.939 4.2899 -5.33498e-10)
(479.881 5.04519 6.96588e-12)
(479.807 5.666 3.85772e-10)
(479.75 6.2708 4.93013e-10)
(479.643 7.0673 3.67586e-10)
(479.586 7.43718 3.8973e-10)
(479.446 8.49189 2.60127e-10)
(479.389 8.54101 -1.25287e-10)
(479.216 9.93192 -3.31791e-10)
(479.159 9.58769 -2.54871e-10)
(478.957 11.3695 -2.38888e-10)
(478.891 10.5971 -1.58022e-11)
(478.672 12.769 3.19801e-10)
(478.58 11.6166 1.72319e-10)
(478.374 14.0428 -1.33546e-10)
(478.203 12.7984 -1.82233e-10)
(478.09 15.0099 6.89249e-11)
(477.746 14.1661 1.8115e-10)
(478.771 0.415756 -4.79339e-09)
(478.76 1.13884 1.5315e-09)
(478.749 1.64895 -5.10045e-10)
(478.715 2.50406 7.79131e-11)
(478.693 2.99997 9.23742e-11)
(478.645 3.849 -4.69698e-10)
(478.602 4.37881 -5.46971e-10)
(478.548 5.15461 7.77102e-12)
(478.477 5.78267 3.51665e-10)
(478.424 6.40939 4.17533e-10)
(478.322 7.21243 3.68879e-10)
(478.269 7.60481 4.61012e-10)
(478.135 8.66655 2.85304e-10)
(478.083 8.73714 -1.37778e-10)
(477.917 10.1375 -3.27152e-10)
(477.866 9.81103 -2.33135e-10)
(477.67 11.6079 -2.64147e-10)
(477.613 10.845 -8.09828e-11)
(477.398 13.0437 3.33974e-10)
(477.318 11.8828 1.9943e-10)
(477.114 14.3678 -1.52908e-10)
(476.96 13.0644 -1.88049e-10)
(476.845 15.392 8.13292e-11)
(476.521 14.4413 1.54555e-10)
(477.374 0.424203 -4.87125e-09)
(477.363 1.15993 1.51051e-09)
(477.354 1.68078 -4.99876e-10)
(477.321 2.55173 6.55183e-11)
(477.3 3.05688 4.45068e-11)
(477.254 3.92363 -4.9693e-10)
(477.215 4.46105 -5.36553e-10)
(477.163 5.25637 -3.88041e-12)
(477.096 5.89062 3.65902e-10)
(477.047 6.53837 4.55799e-10)
(476.949 7.34682 3.76386e-10)
(476.901 7.76092 4.4463e-10)
(476.773 8.82853 2.98647e-10)
(476.727 8.92003 -1.0382e-10)
(476.566 10.3287 -3.22214e-10)
(476.522 10.0197 -2.5656e-10)
(476.333 11.8303 -2.58168e-10)
(476.284 11.0772 -4.70373e-11)
(476.075 13.3007 3.42082e-10)
(476.005 12.1329 2.32929e-10)
(475.804 14.671 -8.38566e-11)
(475.668 13.3126 -2.10536e-10)
(475.55 15.7547 1.96753e-11)
(475.248 14.6989 1.27193e-10)
(475.926 0.431957 -4.81432e-09)
(475.915 1.17935 1.58023e-09)
(475.906 1.70995 -4.59591e-10)
(475.875 2.59568 1.05781e-10)
(475.856 3.10907 7.54016e-11)
(475.812 3.99251 -4.73212e-10)
(475.775 4.53653 -5.19511e-10)
(475.727 5.3504 9.63652e-12)
(475.664 5.98978 3.74212e-10)
(475.618 6.65764 4.57675e-10)
(475.525 7.47036 3.71387e-10)
(475.482 7.90538 4.27761e-10)
(475.359 8.97762 2.73765e-10)
(475.319 9.08941 -1.28903e-10)
(475.164 10.5051 -3.62404e-10)
(475.128 10.2134 -3.04152e-10)
(474.944 12.0364 -3.10997e-10)
(474.904 11.2933 -3.51938e-11)
(474.702 13.5397 3.44144e-10)
(474.642 12.3665 2.22359e-10)
(474.445 14.9523 -9.70649e-11)
(474.325 13.5436 -1.71867e-10)
(474.205 16.0958 5.81615e-11)
(473.926 14.9365 1.56147e-10)
(474.426 0.439002 -4.85036e-09)
(474.415 1.19706 1.55863e-09)
(474.407 1.73642 -4.98984e-10)
(474.377 2.63582 1.0605e-10)
(474.36 3.15646 6.30828e-11)
(474.319 4.05555 -5.01895e-10)
(474.285 4.60515 -5.08472e-10)
(474.239 5.43661 4.08202e-12)
(474.18 6.08007 3.56874e-10)
(474.138 6.76716 4.85148e-10)
(474.05 7.583 3.79239e-10)
(474.012 8.03814 4.22983e-10)
(473.894 9.11372 3.13459e-10)
(473.86 9.24515 -1.11559e-10)
(473.711 10.6664 -3.5761e-10)
(473.683 10.3915 -2.57012e-10)
(473.505 12.2255 -2.78744e-10)
(473.474 11.4925 -8.17193e-11)
(473.277 13.7602 3.45947e-10)
(473.228 12.5829 2.11288e-10)
(473.037 15.2119 -1.37495e-10)
(472.932 13.7577 -1.60737e-10)
(472.81 16.4141 5.90006e-11)
(472.553 15.1532 1.33819e-10)
(472.874 0.445332 -4.92088e-09)
(472.864 1.21305 1.56506e-09)
(472.857 1.76015 -4.63143e-10)
(472.828 2.67213 6.57658e-11)
(472.813 3.19899 6.9556e-11)
(472.773 4.11268 -4.56904e-10)
(472.742 4.66683 -5.48852e-10)
(472.7 5.51492 1.14761e-11)
(472.644 6.16139 4.04498e-10)
(472.607 6.86685 4.48231e-10)
(472.523 7.68468 3.87131e-10)
(472.49 8.15918 4.75476e-10)
(472.377 9.23681 2.81107e-10)
(472.35 9.38723 -1.06412e-10)
(472.207 10.8126 -3.05548e-10)
(472.186 10.5541 -2.88261e-10)
(472.014 12.3973 -2.7287e-10)
(471.992 11.6744 -3.35782e-11)
(471.802 13.9615 3.1378e-10)
(471.764 12.7811 2.1764e-10)
(471.577 15.45 -8.40987e-11)
(471.488 13.9549 -1.9036e-10)
(471.365 16.7093 6.61776e-11)
(471.131 15.3495 1.81494e-10)
(471.271 0.450944 -4.90324e-09)
(471.26 1.22732 1.60906e-09)
(471.254 1.78116 -4.3301e-10)
(471.227 2.70459 1.0135e-10)
(471.213 3.23664 3.09523e-11)
(471.176 4.16386 -5.00222e-10)
(471.148 4.72153 -5.17797e-10)
(471.109 5.58524 3.91739e-11)
(471.057 6.23367 4.33188e-10)
(471.024 6.95663 4.83402e-10)
(470.944 7.77531 3.48248e-10)
(470.917 8.26845 4.31929e-10)
(470.809 9.34686 3.08841e-10)
(470.788 9.51568 -8.19891e-11)
(470.651 10.9436 -2.8658e-10)
(470.637 10.701 -2.70492e-10)
(470.472 12.5518 -3.22113e-10)
(470.459 11.8388 -7.59727e-11)
(470.275 14.1432 3.29342e-10)
(470.248 12.9604 2.30339e-10)
(470.067 15.6661 -6.39692e-11)
(469.992 14.1354 -1.79345e-10)
(469.868 16.9809 1.19737e-11)
(469.658 15.5245 1.34335e-10)
(469.615 0.455848 -4.98304e-09)
(469.605 1.23988 1.54116e-09)
(469.6 1.79946 -5.1975e-10)
(469.574 2.73322 5.2597e-11)
(469.562 3.26945 3.08906e-11)
(469.527 4.2091 -5.23437e-10)
(469.502 4.76922 -5.66155e-10)
(469.466 5.64756 -2.83339e-11)
(469.418 6.29686 3.47905e-10)
(469.389 7.03643 4.38332e-10)
(469.314 7.85481 3.49596e-10)
(469.291 8.36587 4.13738e-10)
(469.189 9.44379 2.61738e-10)
(469.174 9.63048 -1.47796e-10)
(469.043 11.0596 -3.77997e-10)
(469.036 10.8324 -3.09397e-10)
(468.878 12.689 -3.16115e-10)
(468.874 11.9855 -9.43352e-11)
(468.696 14.3051 2.8917e-10)
(468.681 13.1204 1.76134e-10)
(468.505 15.8595 -1.55625e-10)
(468.445 14.2985 -2.16256e-10)
(468.321 17.2282 1.93076e-11)
(468.134 15.6782 1.2292e-10)
(467.908 0.460054 -4.93837e-09)
(467.898 1.25076 1.58686e-09)
(467.894 1.81509 -5.09102e-10)
(467.869 2.75808 1.17536e-10)
(467.859 3.29745 7.10043e-11)
(467.826 4.24845 -5.04784e-10)
(467.804 4.80997 -5.00445e-10)
(467.771 5.7019 2.10304e-11)
(467.727 6.35093 3.77173e-10)
(467.701 7.1062 5.15373e-10)
(467.631 7.92309 4.06258e-10)
(467.614 8.45134 4.42167e-10)
(467.517 9.52749 3.38919e-10)
(467.508 9.73155 -9.64514e-11)
(467.383 11.1603 -3.4458e-10)
(467.384 10.9483 -2.97388e-10)
(467.231 12.8089 -3.24188e-10)
(467.236 12.1149 -5.63081e-11)
(467.065 14.4473 3.1257e-10)
(467.061 13.2609 1.76733e-10)
(466.891 16.0301 -1.06522e-10)
(466.846 14.4433 -1.92487e-10)
(466.723 17.4502 1.97271e-11)
(466.558 15.8102 1.66776e-10)
(466.149 0.463575 -4.95257e-09)
(466.14 1.25999 1.60198e-09)
(466.136 1.82811 -5.04979e-10)
(466.112 2.77922 1.25491e-10)
(466.104 3.32073 7.78269e-11)
(466.073 4.282 -5.00236e-10)
(466.053 4.84383 -4.95296e-10)
(466.024 5.74831 2.90445e-11)
(465.983 6.39595 3.85983e-10)
(465.962 7.16595 4.55503e-10)
(465.896 7.98012 3.45111e-10)
(465.884 8.52479 4.57479e-10)
(465.793 9.59783 2.83607e-10)
(465.79 9.81876 -1.50723e-10)
(465.671 11.2457 -3.32209e-10)
(465.679 11.0487 -2.85328e-10)
(465.533 12.9115 -3.1123e-10)
(465.547 12.227 -4.31248e-11)
(465.382 14.5702 3.29192e-10)
(465.389 13.3821 1.8986e-10)
(465.225 16.1781 -9.30985e-11)
(465.193 14.5681 -1.81058e-10)
(465.073 17.6452 4.12912e-11)
(464.932 15.9207 1.86401e-10)
(464.338 0.466421 -4.99288e-09)
(464.328 1.26759 1.65619e-09)
(464.326 1.83855 -4.80114e-10)
(464.303 2.79671 6.72807e-11)
(464.297 3.33936 7.76898e-11)
(464.268 4.30982 -4.44925e-10)
(464.251 4.87092 -5.2459e-10)
(464.224 5.78691 -1.96133e-11)
(464.187 6.43198 3.95017e-10)
(464.17 7.21576 5.20555e-10)
(464.109 8.02593 3.95983e-10)
(464.102 8.58619 4.24842e-10)
(464.016 9.65473 3.05692e-10)
(464.02 9.89196 -7.77451e-11)
(463.906 11.3155 -3.47982e-10)
(463.922 11.1333 -3.12695e-10)
(463.783 12.9967 -2.83451e-10)
(463.806 12.3218 -2.9743e-11)
(463.647 14.6737 3.31528e-10)
(463.664 13.4845 1.77782e-10)
(463.506 16.3045 -1.23232e-10)
(463.488 14.6722 -1.62918e-10)
(463.372 17.8118 4.91116e-11)
(463.253 16.0096 1.18226e-10)
(462.474 0.468599 -5.04261e-09)
(462.465 1.27358 1.59317e-09)
(462.463 1.84644 -5.16204e-10)
(462.441 2.81057 5.26465e-11)
(462.437 3.35338 1.56135e-11)
(462.41 4.33198 -5.56463e-10)
(462.396 4.8913 -5.33547e-10)
(462.372 5.81777 7.44402e-11)
(462.339 6.45914 4.46621e-10)
(462.326 7.25572 5.29978e-10)
(462.269 8.06061 4.26088e-10)
(462.267 8.63563 4.75122e-10)
(462.186 9.69819 3.13785e-10)
(462.197 9.9511 -1.12713e-10)
(462.089 11.3696 -3.56798e-10)
(462.113 11.202 -3.00346e-10)
(461.979 13.0641 -3.13731e-10)
(462.012 12.399 -9.49145e-11)
(461.859 14.7577 2.82008e-10)
(461.888 13.568 1.58982e-10)
(461.735 16.4093 -1.17112e-10)
(461.731 14.7564 -1.31564e-10)
(461.618 17.9501 1.08858e-10)
(461.522 16.076 1.94978e-10)
(460.558 0.470109 -5.09335e-09)
(460.549 1.27796 1.60862e-09)
(460.548 1.8518 -4.84407e-10)
(460.527 2.82081 4.56062e-11)
(460.525 3.36283 3.59577e-11)
(460.5 4.34851 -5.07432e-10)
(460.488 4.90502 -5.28533e-10)
(460.467 5.84097 3.94794e-11)
(460.438 6.47749 3.63864e-10)
(460.428 7.28595 4.75263e-10)
(460.376 8.08426 4.06364e-10)
(460.379 8.67322 4.13939e-10)
(460.304 9.72828 2.78338e-10)
(460.32 9.99624 -1.20636e-10)
(460.219 11.408 -3.36676e-10)
(460.25 11.2546 -2.54132e-10)
(460.123 13.1134 -3.07321e-10)
(460.165 12.4583 -6.16697e-11)
(460.019 14.8218 3.5082e-10)
(460.059 13.6321 1.72297e-10)
(459.912 16.4925 -1.48366e-10)
(459.922 14.8209 -1.8983e-10)
(459.812 18.0609 7.20035e-11)
(459.736 16.1205 1.82875e-10)
(458.589 0.47095 -5.04569e-09)
(458.58 1.28073 1.64025e-09)
(458.58 1.85461 -5.07464e-10)
(458.56 2.82744 6.09252e-11)
(458.559 3.3677 2.19158e-11)
(458.537 4.35942 -4.87639e-10)