/*--------------------------------*- C++ -*----------------------------------*\
  =========                 |
  \\      /  F ield         | OpenFOAM: The Open Source CFD Toolbox
   \\    /   O peration     | Website:  https://openfoam.org
    \\  /    A nd           | Version:  10
     \\/     M anipulation  |
\*---------------------------------------------------------------------------*/
FoamFile
{
    format      ascii;
    class       volScalarField;
    location    "0.06";
    object      Ma;
}
// * * * * * * * * * * * * * * * * * * * * * * * * * * * * * * * * * * * * * //

dimensions      [0 0 0 0 0 0 0];

internalField   nonuniform List<scalar> 
4176
(
1.13189
1.1325
1.13252
1.1325
1.13237
1.13228
1.13204
1.13192
1.13157
1.13141
1.13097
1.13077
1.13023
1.12997
1.12939
1.12899
1.12842
1.12784
1.12734
1.1265
1.12617
1.12498
1.12497
1.12372
1.11448
1.1151
1.11512
1.11511
1.11495
1.11487
1.1146
1.11448
1.1141
1.11394
1.11346
1.11325
1.11268
1.1124
1.11178
1.11135
1.11076
1.11013
1.10961
1.1087
1.10834
1.10705
1.107
1.10554
1.12262
1.12326
1.12327
1.12326
1.1231
1.12302
1.12273
1.12262
1.12221
1.12206
1.12155
1.12135
1.12074
1.12046
1.11982
1.11938
1.11878
1.11811
1.11759
1.11666
1.11627
1.11494
1.11483
1.11321
1.12928
1.12992
1.12994
1.12992
1.12975
1.12967
1.12938
1.12925
1.12884
1.12868
1.12815
1.12795
1.12732
1.12704
1.12637
1.12593
1.1253
1.12464
1.12409
1.12316
1.12276
1.12143
1.12132
1.11971
1.14009
1.14073
1.14075
1.14072
1.14057
1.14046
1.14018
1.14002
1.13963
1.13943
1.13891
1.13868
1.13805
1.13776
1.13704
1.13663
1.13593
1.1353
1.1347
1.13377
1.13335
1.13202
1.13192
1.13036
1.15191
1.15254
1.15256
1.15252
1.15236
1.15225
1.15196
1.1518
1.15139
1.15119
1.15066
1.15041
1.14976
1.14946
1.14872
1.14831
1.14757
1.14694
1.1463
1.14536
1.14491
1.14355
1.14343
1.14182
1.16699
1.16761
1.16763
1.16759
1.16743
1.1673
1.16701
1.16683
1.16642
1.1662
1.16565
1.16539
1.16472
1.16441
1.16364
1.16322
1.16244
1.1618
1.16113
1.16017
1.15969
1.1583
1.15816
1.15651
1.1828
1.18341
1.18342
1.18337
1.1832
1.18307
1.18277
1.18258
1.18216
1.18192
1.18136
1.18108
1.18039
1.18006
1.17927
1.17884
1.17802
1.17738
1.17666
1.17569
1.17517
1.17375
1.17359
1.17187
1.20142
1.20201
1.20202
1.20197
1.2018
1.20165
1.20135
1.20114
1.2007
1.20045
1.19987
1.19957
1.19886
1.19851
1.19769
1.19725
1.19639
1.19574
1.19497
1.19399
1.19344
1.19199
1.19181
1.19005
1.22027
1.22084
1.22084
1.22078
1.2206
1.22045
1.22013
1.21992
1.21947
1.2192
1.21861
1.21828
1.21756
1.21718
1.21634
1.21587
1.21498
1.21432
1.21351
1.21251
1.21192
1.21044
1.21024
1.20841
1.2413
1.24186
1.24186
1.24179
1.24161
1.24144
1.24112
1.24089
1.24042
1.24013
1.23953
1.23918
1.23844
1.23804
1.23717
1.23668
1.23575
1.23508
1.23422
1.23322
1.23259
1.23108
1.23086
1.229
1.26188
1.26241
1.2624
1.26233
1.26214
1.26196
1.26163
1.26138
1.26091
1.2606
1.25998
1.25962
1.25886
1.25843
1.25754
1.25704
1.25607
1.25539
1.25449
1.25347
1.25281
1.25128
1.25103
1.24909
1.28387
1.28438
1.28437
1.28429
1.28409
1.28391
1.28357
1.28331
1.28282
1.28251
1.28186
1.28149
1.2807
1.28026
1.27935
1.27883
1.27783
1.27714
1.2762
1.27517
1.27448
1.27293
1.27266
1.2707
1.30464
1.30511
1.30509
1.30501
1.3048
1.30462
1.30426
1.304
1.30349
1.30317
1.30251
1.30213
1.30132
1.30087
1.29994
1.2994
1.29838
1.29768
1.29671
1.29567
1.29495
1.29337
1.29308
1.29106
1.32606
1.32652
1.3265
1.32641
1.32619
1.32601
1.32564
1.32538
1.32485
1.32453
1.32384
1.32347
1.32263
1.32218
1.32122
1.32067
1.31964
1.31892
1.31793
1.31688
1.31614
1.31456
1.31425
1.31223
1.34559
1.34602
1.34598
1.3459
1.34567
1.34549
1.3451
1.34486
1.34429
1.344
1.34327
1.34292
1.34203
1.34161
1.34061
1.34008
1.33901
1.33831
1.3373
1.33624
1.33548
1.33389
1.33357
1.33149
1.36521
1.36563
1.36558
1.36551
1.36526
1.3651
1.36467
1.36446
1.36386
1.36359
1.36282
1.36251
1.36157
1.36119
1.36013
1.35964
1.35854
1.35784
1.35682
1.35576
1.35499
1.35341
1.35307
1.35101
1.3825
1.38289
1.38284
1.38277
1.38251
1.38235
1.38192
1.38171
1.38109
1.38085
1.38005
1.37976
1.37879
1.37845
1.37735
1.37689
1.37575
1.37508
1.37405
1.37299
1.37221
1.37064
1.37028
1.3682
1.39955
1.39993
1.39988
1.39981
1.39955
1.39939
1.39896
1.39875
1.39814
1.39789
1.39709
1.39681
1.39583
1.3955
1.3944
1.39395
1.3928
1.39214
1.39111
1.39006
1.38927
1.38773
1.38737
1.38533
1.4141
1.41445
1.41441
1.41431
1.41408
1.4139
1.4135
1.41326
1.41268
1.41241
1.41164
1.41134
1.41039
1.41005
1.40896
1.40852
1.40738
1.40674
1.40568
1.40467
1.40387
1.40235
1.40198
1.39993
1.4283
1.42864
1.42859
1.4285
1.42827
1.42809
1.4277
1.42745
1.4269
1.42661
1.42588
1.42555
1.42465
1.42428
1.42324
1.42278
1.42166
1.42104
1.41997
1.419
1.41821
1.41672
1.41635
1.41436
1.44
1.44031
1.44027
1.44017
1.43996
1.43976
1.4394
1.43914
1.43862
1.43831
1.43762
1.43727
1.43641
1.43603
1.43502
1.43457
1.43347
1.43288
1.4318
1.43089
1.43007
1.42863
1.42824
1.42626
1.45137
1.45167
1.45163
1.45154
1.45133
1.45114
1.45078
1.45053
1.45002
1.44972
1.44905
1.44871
1.44787
1.4475
1.44651
1.44607
1.445
1.44443
1.44336
1.4425
1.44168
1.44029
1.43991
1.43799
1.46038
1.46066
1.46062
1.46052
1.46032
1.46013
1.45979
1.45954
1.45905
1.45875
1.45811
1.45778
1.45697
1.4566
1.45565
1.45523
1.45417
1.45363
1.45257
1.45177
1.45093
1.4496
1.44921
1.44731
1.46913
1.4694
1.46936
1.46927
1.46908
1.4689
1.46857
1.46833
1.46785
1.46757
1.46694
1.46663
1.46584
1.46549
1.46457
1.46416
1.46314
1.46262
1.46159
1.46084
1.46
1.45874
1.45836
1.45654
1.47571
1.47596
1.47592
1.47583
1.47564
1.47547
1.47515
1.47492
1.47446
1.47419
1.47359
1.47328
1.47253
1.4722
1.4713
1.47093
1.46992
1.46945
1.46843
1.46773
1.46689
1.46568
1.46531
1.46353
1.48214
1.48238
1.48234
1.48225
1.48207
1.48191
1.4816
1.48138
1.48094
1.48068
1.4801
1.47982
1.47909
1.47878
1.47791
1.47756
1.47659
1.47614
1.47516
1.4745
1.47367
1.47255
1.47218
1.4705
1.48658
1.48679
1.48676
1.48667
1.4865
1.48634
1.48605
1.48584
1.48542
1.48517
1.48461
1.48435
1.48364
1.48336
1.48252
1.4822
1.48126
1.48085
1.47989
1.47929
1.47847
1.47741
1.47704
1.47541
1.49086
1.49108
1.49104
1.49096
1.49079
1.49064
1.49036
1.49016
1.48976
1.48953
1.48899
1.48875
1.48807
1.48781
1.48701
1.48672
1.48581
1.48544
1.48452
1.48397
1.48317
1.4822
1.48184
1.48028
1.49342
1.49362
1.49358
1.4935
1.49335
1.4932
1.49293
1.49274
1.49235
1.49214
1.49162
1.4914
1.49074
1.49051
1.48973
1.48947
1.48859
1.48826
1.48737
1.48686
1.48608
1.48518
1.48483
1.48335
1.49583
1.49601
1.49598
1.49591
1.49576
1.49563
1.49538
1.49522
1.49486
1.49467
1.49417
1.49397
1.49334
1.49313
1.49237
1.49214
1.4913
1.491
1.49015
1.48969
1.48894
1.4881
1.48777
1.48636
1.49689
1.49706
1.49704
1.49697
1.49684
1.49672
1.49649
1.49635
1.49601
1.49585
1.49539
1.49523
1.49464
1.49446
1.49374
1.49354
1.49272
1.49244
1.4916
1.49117
1.49044
1.48966
1.48932
1.48798
1.49715
1.49732
1.49729
1.49723
1.4971
1.49699
1.49678
1.49664
1.49632
1.49618
1.49574
1.4956
1.49505
1.49491
1.49424
1.49409
1.49334
1.49314
1.49236
1.492
1.49132
1.49064
1.49033
1.48908
1.49658
1.49674
1.49672
1.49666
1.49655
1.49645
1.49625
1.49613
1.49584
1.49572
1.49531
1.4952
1.49468
1.49457
1.49394
1.49383
1.49311
1.49294
1.4922
1.49188
1.49123
1.49061
1.49031
1.48915
1.49537
1.49552
1.49551
1.49546
1.49535
1.49526
1.49508
1.49498
1.4947
1.4946
1.49422
1.49413
1.49364
1.49357
1.49296
1.49289
1.49221
1.49209
1.49139
1.49113
1.49053
1.48998
1.48971
1.48863
1.49365
1.49379
1.49378
1.49373
1.49363
1.49356
1.49339
1.4933
1.49304
1.49296
1.4926
1.49253
1.49206
1.49201
1.49143
1.49139
1.49073
1.49065
1.48998
1.48976
1.48919
1.4887
1.48843
1.48745
1.49115
1.49128
1.49127
1.49123
1.49114
1.49108
1.49093
1.49086
1.49063
1.49057
1.49024
1.49021
1.48978
1.48977
1.48924
1.48925
1.48864
1.48861
1.48799
1.48785
1.48733
1.48691
1.48668
1.48579
1.48814
1.48828
1.48827
1.48823
1.48815
1.4881
1.48796
1.4879
1.48769
1.48765
1.48734
1.48733
1.48692
1.48694
1.48643
1.48646
1.48588
1.4859
1.48531
1.48521
1.48472
1.48437
1.48416
1.48337
1.48452
1.48464
1.48463
1.4846
1.48453
1.48449
1.48437
1.48434
1.48415
1.48414
1.48386
1.48388
1.48351
1.48357
1.4831
1.48319
1.48265
1.48271
1.48216
1.48212
1.48166
1.48137
1.48119
1.48048
1.48032
1.48043
1.48043
1.4804
1.48035
1.48031
1.4802
1.48018
1.48001
1.48001
1.47976
1.4798
1.47946
1.47954
1.47911
1.47923
1.47873
1.47884
1.47833
1.47835
1.47794
1.47772
1.47759
1.47698
1.47567
1.47577
1.47577
1.47575
1.47571
1.47569
1.47559
1.47559
1.47543
1.47546
1.47523
1.47531
1.47499
1.47511
1.47471
1.47487
1.47439
1.47455
1.47407
1.47413
1.47375
1.47358
1.47347
1.47293
1.47041
1.47051
1.47051
1.4705
1.47046
1.47045
1.47037
1.47038
1.47025
1.4703
1.47009
1.47019
1.46991
1.47007
1.4697
1.46991
1.46947
1.46969
1.46925
1.46939
1.46905
1.46897
1.46889
1.46844
1.46477
1.46487
1.46488
1.46487
1.46484
1.46484
1.46477
1.4648
1.46468
1.46475
1.46456
1.46468
1.46442
1.46461
1.46426
1.4645
1.46409
1.46435
1.46393
1.46412
1.4638
1.46378
1.46374
1.46336
1.45861
1.45869
1.4587
1.4587
1.45868
1.45869
1.45864
1.45868
1.45859
1.45868
1.45852
1.45868
1.45844
1.45867
1.45836
1.45864
1.45827
1.45858
1.4582
1.45846
1.45817
1.45823
1.45821
1.45792
1.45202
1.45211
1.45212
1.45212
1.45211
1.45213
1.45209
1.45215
1.45207
1.45218
1.45204
1.45221
1.452
1.45225
1.45196
1.45229
1.45194
1.4523
1.45194
1.45226
1.45199
1.45213
1.45213
1.45194
1.44504
1.44512
1.44513
1.44514
1.44514
1.44517
1.44514
1.44522
1.44516
1.44529
1.44517
1.44538
1.44519
1.44548
1.44522
1.44558
1.44526
1.44567
1.44534
1.44572
1.44546
1.44568
1.44567
1.44557
1.4376
1.43767
1.43769
1.4377
1.43771
1.43775
1.43773
1.43782
1.43778
1.43793
1.43783
1.43806
1.4379
1.43822
1.43799
1.43839
1.4381
1.43856
1.43826
1.43871
1.43847
1.43878
1.43878
1.43879
1.42984
1.42991
1.42993
1.42994
1.42996
1.43001
1.43001
1.43011
1.43008
1.43025
1.43018
1.43043
1.43029
1.43064
1.43043
1.43087
1.4306
1.43111
1.43081
1.43132
1.4311
1.43148
1.43147
1.43157
1.42164
1.4217
1.42172
1.42174
1.42177
1.42182
1.42184
1.42196
1.42195
1.42214
1.42209
1.42237
1.42225
1.42264
1.42246
1.42294
1.4227
1.42326
1.42299
1.42358
1.42336
1.42384
1.42384
1.42403
1.41313
1.41319
1.41322
1.41324
1.41327
1.41334
1.41337
1.41349
1.4135
1.4137
1.41367
1.41397
1.41388
1.41429
1.41413
1.41465
1.41442
1.41503
1.41477
1.41543
1.4152
1.41577
1.41578
1.41605
1.40426
1.40431
1.40434
1.40437
1.40441
1.40449
1.40453
1.40467
1.40469
1.40492
1.40491
1.40523
1.40516
1.40561
1.40547
1.40604
1.40583
1.4065
1.40625
1.40698
1.40676
1.4074
1.40741
1.40777
1.39505
1.39511
1.39514
1.39517
1.39522
1.3953
1.39535
1.3955
1.39554
1.39578
1.39579
1.39614
1.39608
1.39656
1.39644
1.39705
1.39685
1.39759
1.39733
1.39814
1.39793
1.39865
1.39868
1.39912
1.38557
1.38561
1.38565
1.38569
1.38574
1.38583
1.38589
1.38606
1.38611
1.38637
1.38639
1.38677
1.38673
1.38724
1.38713
1.38779
1.38759
1.38839
1.38814
1.389
1.38881
1.38958
1.38962
1.39013
1.37574
1.37578
1.37582
1.37586
1.37592
1.37602
1.3761
1.37627
1.37634
1.37662
1.37665
1.37706
1.37703
1.37758
1.37747
1.37819
1.37799
1.37885
1.37862
1.37953
1.37937
1.3802
1.38026
1.38085
1.36567
1.36571
1.36575
1.36579
1.36586
1.36596
1.36605
1.36624
1.36632
1.36661
1.36665
1.36709
1.36706
1.36766
1.36754
1.36831
1.36812
1.36901
1.3688
1.36975
1.36961
1.37049
1.37057
1.37123
1.3553
1.35534
1.35538
1.35542
1.3555
1.35561
1.35571
1.35591
1.356
1.35631
1.35636
1.35683
1.35681
1.35745
1.35734
1.35814
1.35798
1.35891
1.35873
1.35971
1.3596
1.36053
1.36062
1.36135
1.34469
1.34472
1.34476
1.34481
1.34489
1.34501
1.34512
1.34532
1.34542
1.34576
1.34581
1.34631
1.34629
1.34695
1.34686
1.34769
1.34755
1.3485
1.34834
1.34937
1.34927
1.35026
1.35036
1.35116
1.33384
1.33386
1.33391
1.33396
1.33405
1.33417
1.33429
1.3345
1.33461
1.33497
1.33502
1.33554
1.33554
1.33622
1.33616
1.337
1.33689
1.33786
1.33773
1.33879
1.33871
1.33974
1.33985
1.34071
1.32274
1.32276
1.32282
1.32286
1.32296
1.32308
1.32321
1.32343
1.32354
1.32391
1.32398
1.32451
1.32453
1.32523
1.32518
1.32605
1.32595
1.32696
1.32685
1.32794
1.32788
1.32896
1.32909
1.33001
1.31145
1.31147
1.31152
1.31157
1.31168
1.3118
1.31194
1.31215
1.31229
1.31266
1.31275
1.31329
1.31332
1.31403
1.314
1.31488
1.31481
1.31582
1.31574
1.31685
1.31681
1.31793
1.31806
1.31903
1.29994
1.29995
1.3
1.30006
1.30016
1.30029
1.30044
1.30065
1.30082
1.30117
1.30129
1.30183
1.30188
1.3026
1.3026
1.30348
1.30343
1.30447
1.30441
1.30555
1.30553
1.30668
1.30682
1.30785
1.28825
1.28826
1.28831
1.28837
1.28847
1.2886
1.28876
1.28897
1.28915
1.2895
1.28964
1.29017
1.29024
1.29097
1.29098
1.29188
1.29184
1.2929
1.29285
1.29401
1.29401
1.29519
1.29534
1.29642
1.27637
1.27638
1.27643
1.27649
1.2766
1.27673
1.27689
1.27711
1.2773
1.27764
1.27781
1.27833
1.27843
1.27915
1.27918
1.28009
1.28008
1.28114
1.28111
1.28229
1.2823
1.28351
1.28367
1.28479
1.26432
1.26433
1.26438
1.26444
1.26455
1.26468
1.26484
1.26506
1.26526
1.2656
1.26579
1.26629
1.26642
1.26714
1.26719
1.2681
1.2681
1.26918
1.26916
1.27036
1.27039
1.27163
1.27179
1.27296
1.25212
1.25213
1.25218
1.25224
1.25235
1.25248
1.25265
1.25287
1.25308
1.25341
1.25361
1.25411
1.25426
1.25497
1.25504
1.25595
1.25597
1.25705
1.25705
1.25826
1.2583
1.25956
1.25973
1.26093
1.23976
1.23976
1.23981
1.23987
1.23998
1.24011
1.24029
1.2405
1.24072
1.24105
1.24127
1.24176
1.24193
1.24263
1.24273
1.24364
1.24367
1.24476
1.24477
1.246
1.24605
1.24733
1.24751
1.24874
1.22726
1.22726
1.22731
1.22737
1.22748
1.22761
1.22779
1.22801
1.22823
1.22855
1.22879
1.22927
1.22946
1.23015
1.23026
1.23117
1.23122
1.23231
1.23233
1.23357
1.23363
1.23493
1.23511
1.23637
1.21462
1.21461
1.21466
1.21472
1.21484
1.21497
1.21515
1.21537
1.21559
1.21592
1.21617
1.21665
1.21685
1.21754
1.21767
1.21858
1.21863
1.21974
1.21977
1.22102
1.22108
1.2224
1.22258
1.22386
1.20184
1.20183
1.20188
1.20194
1.20206
1.20219
1.20237
1.2026
1.20283
1.20315
1.20341
1.20389
1.20411
1.20479
1.20493
1.20584
1.20591
1.20702
1.20706
1.20832
1.20839
1.20972
1.2099
1.21121
1.18894
1.18893
1.18898
1.18904
1.18916
1.1893
1.18948
1.18971
1.18995
1.19028
1.19055
1.19102
1.19126
1.19193
1.19209
1.193
1.19308
1.1942
1.19424
1.1955
1.19558
1.19692
1.19711
1.19843
1.17591
1.1759
1.17595
1.17601
1.17614
1.17628
1.17647
1.1767
1.17695
1.17728
1.17756
1.17803
1.17829
1.17896
1.17914
1.18005
1.18014
1.18126
1.18131
1.18258
1.18266
1.18401
1.1842
1.18554
1.16279
1.16278
1.16283
1.1629
1.16302
1.16317
1.16337
1.1636
1.16386
1.1642
1.16449
1.16496
1.16523
1.16589
1.1661
1.16699
1.1671
1.16822
1.16828
1.16955
1.16963
1.17099
1.17117
1.17252
1.14959
1.14958
1.14963
1.1497
1.14983
1.14998
1.15018
1.15042
1.15068
1.15102
1.15133
1.15179
1.15209
1.15274
1.15297
1.15385
1.15398
1.15509
1.15515
1.15642
1.15652
1.15787
1.15806
1.15941
1.13635
1.13633
1.13638
1.13645
1.13657
1.13673
1.13693
1.13717
1.13743
1.13778
1.13808
1.13854
1.13886
1.13949
1.13975
1.1406
1.14076
1.14185
1.14193
1.1432
1.14329
1.14465
1.14483
1.14619
1.12309
1.12307
1.12312
1.12318
1.12331
1.12345
1.12365
1.12389
1.12415
1.12448
1.12479
1.12524
1.12556
1.12618
1.12645
1.12728
1.12746
1.12853
1.12863
1.12989
1.12998
1.13133
1.13151
1.13287
1.10984
1.10982
1.10986
1.10992
1.11004
1.11017
1.11036
1.11058
1.11083
1.11115
1.11144
1.11188
1.11219
1.11279
1.11307
1.11387
1.11407
1.11511
1.11522
1.11647
1.11656
1.11791
1.11808
1.11944
1.09664
1.09661
1.09664
1.09669
1.09679
1.09691
1.09708
1.09728
1.0975
1.0978
1.09807
1.09848
1.09878
1.09934
1.09961
1.10038
1.10059
1.10159
1.10171
1.10294
1.10303
1.10438
1.10454
1.1059
1.08344
1.08341
1.08343
1.08347
1.08355
1.08366
1.0838
1.08398
1.08417
1.08444
1.08468
1.08505
1.08532
1.08585
1.0861
1.08682
1.08702
1.08798
1.0881
1.0893
1.08937
1.09074
1.09088
1.09225
1.07021
1.07018
1.0702
1.07022
1.07029
1.07037
1.0705
1.07065
1.07082
1.07105
1.07127
1.0716
1.07184
1.07232
1.07253
1.07321
1.07337
1.07429
1.07437
1.07556
1.07559
1.07695
1.07708
1.07847
1.05687
1.05682
1.05685
1.05685
1.05693
1.05698
1.05711
1.05723
1.0574
1.05759
1.05779
1.05809
1.0583
1.05875
1.05891
1.05958
1.05965
1.06059
1.06057
1.06175
1.06171
1.06305
1.06314
1.0645
1.04328
1.04323
1.04326
1.04326
1.04334
1.04339
1.04352
1.04363
1.0438
1.04399
1.04419
1.04446
1.04467
1.04509
1.04522
1.0459
1.04589
1.04685
1.04674
1.04792
1.0478
1.04911
1.04913
1.05041
1.02932
1.02927
1.02929
1.02931
1.02939
1.02947
1.0296
1.02974
1.02992
1.03013
1.03034
1.03064
1.03086
1.03127
1.03144
1.03208
1.0321
1.03303
1.0329
1.03408
1.03389
1.0352
1.03515
1.03637
1.01483
1.01479
1.01482
1.01485
1.01495
1.01506
1.01522
1.0154
1.01562
1.01588
1.01613
1.01647
1.01675
1.01719
1.01744
1.01806
1.01817
1.01908
1.01898
1.02019
1.01998
1.02133
1.02122
1.02246
0.999716
0.999671
0.999719
0.99977
0.999901
1.00004
1.00025
1.00048
1.00076
1.00108
1.00141
1.00182
1.00218
1.00269
1.00305
1.00372
1.00394
1.00491
1.00488
1.00616
1.00596
1.00741
1.00727
1.00859
0.983913
0.983864
0.983932
0.983999
0.984163
0.98434
0.984599
0.98488
0.985231
0.985612
0.986044
0.986527
0.987015
0.987615
0.988105
0.988893
0.989231
0.990336
0.990416
0.991846
0.991706
0.993315
0.993174
0.99467
0.967403
0.967356
0.967431
0.967522
0.967706
0.967923
0.968219
0.968556
0.968963
0.96942
0.969929
0.970507
0.971102
0.971812
0.972447
0.973347
0.973891
0.975116
0.975395
0.97701
0.977021
0.978867
0.978785
0.980555
0.950231
0.95019
0.950265
0.950376
0.950572
0.95082
0.951141
0.951524
0.951968
0.95249
0.953051
0.953717
0.954385
0.955204
0.95596
0.95695
0.957733
0.959003
0.959617
0.961323
0.961631
0.963752
0.963831
0.966021
0.932482
0.932444
0.932518
0.932638
0.932842
0.933105
0.933443
0.933849
0.934319
0.934875
0.935474
0.936186
0.936909
0.93779
0.938628
0.939696
0.940622
0.941934
0.942856
0.944551
0.945275
0.947542
0.947919
0.950661
0.914263
0.914226
0.914297
0.914419
0.914624
0.91489
0.915233
0.915645
0.916124
0.916688
0.917302
0.918027
0.918774
0.919674
0.920549
0.921644
0.922631
0.923973
0.925027
0.926703
0.927726
0.92996
0.93066
0.933846
0.895701
0.895661
0.895729
0.895846
0.896047
0.896306
0.896644
0.897047
0.897521
0.898074
0.898684
0.899396
0.90014
0.901024
0.901899
0.902974
0.903966
0.905286
0.906345
0.908
0.909037
0.911237
0.911986
0.915177
0.876914
0.876869
0.876933
0.877041
0.877234
0.877479
0.877805
0.878189
0.878649
0.879177
0.87977
0.880449
0.881174
0.882017
0.882869
0.883896
0.88486
0.88612
0.887131
0.888735
0.889665
0.891826
0.892452
0.895391
0.858014
0.857964
0.858022
0.858118
0.8583
0.858527
0.858837
0.859195
0.859635
0.860127
0.860696
0.861331
0.862026
0.862815
0.86363
0.864591
0.865513
0.86669
0.867648
0.86916
0.870012
0.872054
0.872626
0.875355
0.839099
0.839041
0.839096
0.839176
0.839349
0.839551
0.839847
0.840171
0.840591
0.841039
0.841583
0.842162
0.842828
0.843549
0.844326
0.84521
0.846083
0.847168
0.848071
0.849478
0.850265
0.85216
0.852696
0.855224
0.820246
0.820181
0.820236
0.820292
0.820465
0.82063
0.820922
0.821197
0.821609
0.821995
0.822529
0.823031
0.823682
0.824315
0.825069
0.825858
0.826689
0.827676
0.82852
0.829823
0.830551
0.832293
0.8328
0.835124
0.80153
0.801459
0.801514
0.801548
0.801717
0.801848
0.802132
0.80236
0.802762
0.803085
0.803609
0.80403
0.804671
0.805204
0.805945
0.806623
0.807428
0.808305
0.809095
0.810285
0.810967
0.812548
0.81303
0.815152
0.783004
0.78293
0.782975
0.783002
0.783148
0.783269
0.783519
0.783729
0.78409
0.784384
0.784862
0.78524
0.785834
0.786305
0.787002
0.787593
0.788358
0.789127
0.789881
0.790943
0.791584
0.793005
0.793465
0.795384
0.764717
0.764642
0.764673
0.764699
0.764816
0.764934
0.765142
0.765345
0.765652
0.765934
0.766346
0.766704
0.767225
0.767664
0.768286
0.768824
0.769523
0.770201
0.770922
0.771842
0.772454
0.773718
0.774159
0.775881
0.746708
0.746631
0.746653
0.746673
0.74677
0.746875
0.747054
0.747238
0.747505
0.747763
0.748123
0.748452
0.748911
0.749311
0.749866
0.750349
0.750985
0.751578
0.752258
0.753031
0.753628
0.754735
0.755159
0.756685
0.729001
0.728924
0.728937
0.728949
0.729029
0.729119
0.729273
0.729434
0.729668
0.729896
0.730214
0.730507
0.730914
0.731269
0.731766
0.73219
0.732768
0.733281
0.733913
0.734562
0.735146
0.736094
0.736502
0.737838
0.711634
0.711556
0.711561
0.711566
0.711631
0.711705
0.711837
0.711974
0.712177
0.712374
0.712654
0.712907
0.713267
0.713574
0.714018
0.714381
0.714904
0.715337
0.715918
0.716458
0.717026
0.717813
0.718208
0.71936
0.694611
0.694532
0.694532
0.694528
0.69458
0.694638
0.69475
0.694864
0.69504
0.695207
0.695452
0.695667
0.695986
0.696246
0.696642
0.696947
0.697417
0.697777
0.698307
0.698748
0.699291
0.699926
0.700312
0.701282
0.677965
0.677886
0.677879
0.677868
0.677907
0.67795
0.678042
0.678133
0.678282
0.678418
0.67863
0.678805
0.679084
0.679296
0.679646
0.679894
0.680315
0.680604
0.681085
0.681436
0.681942
0.682438
0.682818
0.683621
0.661692
0.661614
0.661602
0.661583
0.661611
0.66164
0.661715
0.661785
0.661911
0.662019
0.662201
0.662341
0.662584
0.662751
0.66306
0.663252
0.663627
0.663848
0.664282
0.664547
0.665012
0.665377
0.665749
0.666389
0.645815
0.645737
0.64572
0.645695
0.645712
0.645726
0.645783
0.645832
0.645934
0.646012
0.646164
0.646268
0.646475
0.646598
0.646866
0.647006
0.647337
0.647495
0.647883
0.648071
0.648495
0.648752
0.649116
0.649607
0.630332
0.630255
0.630234
0.630202
0.63021
0.630212
0.630254
0.630284
0.630366
0.630419
0.630546
0.630617
0.630793
0.630875
0.631106
0.631195
0.631484
0.631578
0.631924
0.632032
0.632414
0.632569
0.632923
0.633257
0.615251
0.615175
0.61515
0.615112
0.61511
0.615099
0.615127
0.615136
0.615198
0.615224
0.615324
0.615361
0.615506
0.615548
0.615744
0.615786
0.616038
0.616076
0.616382
0.616422
0.616767
0.616836
0.617173
0.617373
0.600577
0.600502
0.600474
0.600431
0.600421
0.600399
0.600414
0.600406
0.60045
0.600454
0.600531
0.600539
0.600656
0.600661
0.600824
0.600819
0.601034
0.601014
0.601283
0.601252
0.601562
0.601543
0.601854
0.601921
0.586304
0.58623
0.586199
0.586151
0.586133
0.586099
0.586101
0.586076
0.586102
0.586082
0.586137
0.586115
0.586205
0.586174
0.586307
0.58626
0.586442
0.586372
0.586606
0.586514
0.586791
0.586696
0.586983
0.586939
0.572442
0.57237
0.572336
0.572284
0.572259
0.572216
0.572207
0.572166
0.572177
0.572136
0.572171
0.572122
0.572187
0.572122
0.572225
0.572136
0.572285
0.572163
0.572363
0.572208
0.572452
0.572277
0.572537
0.572386
0.558978
0.558907
0.558871
0.558814
0.558784
0.55873
0.558711
0.558656
0.558652
0.558589
0.558606
0.558531
0.558573
0.558478
0.558555
0.558429
0.558549
0.558383
0.558552
0.558341
0.558556
0.55831
0.558549
0.558302
0.545919
0.54585
0.545812
0.545752
0.545715
0.545653
0.545624
0.545555
0.545537
0.545456
0.545455
0.545355
0.545376
0.545249
0.545302
0.545137
0.545231
0.545019
0.545161
0.544895
0.545085
0.544769
0.54499
0.544651
0.533256
0.53319
0.53315
0.533086
0.533045
0.532974
0.532937
0.532855
0.532825
0.532726
0.53271
0.532587
0.53259
0.532436
0.532467
0.53227
0.532339
0.532086
0.532203
0.531886
0.532053
0.531673
0.531879
0.531453
0.520983
0.520918
0.520877
0.52081
0.520764
0.520686
0.52064
0.520546
0.520505
0.520389
0.520358
0.520214
0.5202
0.520018
0.520029
0.519799
0.519846
0.519555
0.519651
0.519288
0.519435
0.518998
0.519192
0.518689
0.509102
0.509039
0.508997
0.508928
0.508877
0.508793
0.50874
0.508634
0.508583
0.508452
0.508408
0.508244
0.508214
0.508008
0.508001
0.507742
0.507769
0.507442
0.507516
0.507108
0.507237
0.506743
0.506926
0.50635
0.497597
0.497537
0.497493
0.497422
0.497368
0.497277
0.497217
0.497102
0.497041
0.496896
0.49684
0.496657
0.496612
0.496383
0.49636
0.496072
0.496082
0.495722
0.495778
0.495331
0.495444
0.494901
0.495074
0.494434
0.486466
0.486408
0.486364
0.48629
0.486233
0.486136
0.48607
0.485945
0.485876
0.485717
0.48565
0.48545
0.485393
0.485143
0.485104
0.484792
0.484785
0.484394
0.484434
0.48395
0.484049
0.483459
0.483623
0.482924
0.475711
0.475655
0.47561
0.475535
0.475474
0.475372
0.475301
0.475167
0.47509
0.474919
0.474841
0.474625
0.474554
0.474284
0.47423
0.473893
0.47387
0.47345
0.473473
0.472953
0.473038
0.472404
0.472561
0.471806
0.465298
0.465245
0.465199
0.465122
0.465059
0.464952
0.464876
0.464734
0.464649
0.464467
0.46438
0.46415
0.464068
0.463781
0.463715
0.463358
0.463322
0.462878
0.462888
0.46234
0.462413
0.461742
0.461891
0.461085
0.455262
0.45521
0.455164
0.455086
0.45502
0.454909
0.454827
0.454678
0.454586
0.454393
0.454296
0.454052
0.453958
0.453653
0.453572
0.453193
0.453141
0.45267
0.452664
0.452083
0.452142
0.451432
0.451573
0.450722
0.445542
0.445493
0.445446
0.445367
0.445298
0.445183
0.445097
0.444942
0.444843
0.444642
0.444536
0.444281
0.444178
0.44386
0.443768
0.443374
0.443309
0.442821
0.442803
0.4422
0.442249
0.441509
0.441642
0.440747
0.436187
0.43614
0.436093
0.436013
0.435941
0.435823
0.435732
0.43557
0.435464
0.435254
0.435139
0.434872
0.434756
0.434423
0.434317
0.433904
0.433824
0.433313
0.433279
0.432648
0.432682
0.431911
0.432036
0.431104
0.427135
0.42709
0.427042
0.426962
0.426888
0.426767
0.426672
0.426505
0.426393
0.426176
0.426053
0.425778
0.425653
0.425309
0.425193
0.424768
0.424677
0.424151
0.424105
0.423457
0.423479
0.422683
0.422798
0.421829
0.418424
0.418381
0.418333
0.418253
0.418176
0.418052
0.417952
0.417781
0.417661
0.417438
0.417305
0.417021
0.416884
0.416529
0.416399
0.41596
0.415854
0.415311
0.41525
0.414581
0.414589
0.413768
0.413874
0.412874
0.41001
0.409969
0.40992
0.40984
0.409761
0.409635
0.40953
0.409356
0.40923
0.409002
0.408861
0.408571
0.408424
0.408062
0.407922
0.407472
0.407355
0.4068
0.406727
0.406043
0.40604
0.4052
0.405296
0.404266
0.401911
0.401872
0.401823
0.401742
0.40166
0.401533
0.401423
0.401246
0.401112
0.40088
0.400729
0.400434
0.400275
0.399905
0.399752
0.399293
0.399163
0.398595
0.398511
0.397811
0.397798
0.396939
0.397028
0.395977
0.394099
0.394062
0.394012
0.393931
0.393847
0.393719
0.393605
0.393426
0.393285
0.39305
0.392891
0.392591
0.392422
0.392048
0.391883
0.391418
0.391276
0.390699
0.390604
0.389891
0.389871
0.388995
0.389079
0.38801
0.386585
0.386549
0.386499
0.386418
0.386331
0.386202
0.386082
0.385902
0.385753
0.385517
0.385346
0.385045
0.384863
0.384485
0.384306
0.383836
0.383681
0.383097
0.38299
0.382267
0.382237
0.381349
0.381427
0.380345
0.379336
0.379302
0.379251
0.379171
0.379081
0.378953
0.378827
0.378647
0.378491
0.378254
0.378073
0.377771
0.377577
0.377199
0.377006
0.376535
0.376364
0.375778
0.375656
0.374928
0.374886
0.373989
0.374059
0.372965
0.372377
0.372345
0.372293
0.372213
0.37212
0.371992
0.371861
0.371681
0.371515
0.371279
0.371086
0.370785
0.370577
0.370199
0.369991
0.369519
0.369332
0.368745
0.368607
0.367877
0.367821
0.366918
0.366978
0.365875
0.365656
0.365625
0.365572
0.365493
0.365397
0.36527
0.365133
0.364954
0.36478
0.364545
0.364342
0.364043
0.36382
0.363446
0.363221
0.362753
0.362548
0.361963
0.361807
0.361078
0.361006
0.3601
0.360149
0.359037
0.359222
0.359193
0.359139
0.359061
0.358962
0.358835
0.358692
0.358515
0.358332
0.358099
0.357883
0.357588
0.35735
0.356979
0.356736
0.356273
0.356049
0.355469
0.355293
0.354567
0.354477
0.353571
0.353607
0.352489
0.352996
0.352968
0.352914
0.352837
0.352734
0.352609
0.35246
0.352284
0.352093
0.351863
0.351635
0.351344
0.351092
0.350726
0.350466
0.350009
0.349766
0.349192
0.348997
0.348276
0.348167
0.347264
0.347286
0.346164
0.347053
0.347026
0.346971
0.346894
0.346789
0.346665
0.34651
0.346336
0.346136
0.345909
0.34567
0.345383
0.345116
0.344756
0.344479
0.344028
0.343766
0.343199
0.342984
0.342269
0.342143
0.341242
0.341251
0.340126
0.341293
0.341267
0.341212
0.341136
0.341028
0.340905
0.340745
0.340574
0.340365
0.340142
0.339892
0.339609
0.339329
0.338975
0.338682
0.338239
0.337958
0.337399
0.337165
0.336458
0.336314
0.335417
0.335414
0.334288
0.335806
0.335781
0.335725
0.33565
0.335539
0.335418
0.335253
0.335083
0.334868
0.334648
0.334388
0.334109
0.333817
0.333468
0.333161
0.332724
0.332427
0.331875
0.331625
0.330923
0.330765
0.329871
0.329859
0.328731
0.330487
0.330462
0.330405
0.330332
0.330219
0.330098
0.329929
0.329761
0.32954
0.329322
0.329055
0.32878
0.328477
0.328133
0.327814
0.327382
0.327073
0.326527
0.326264
0.325567
0.325397
0.324506
0.324487
0.32336
0.325419
0.325395
0.325338
0.325265
0.32515
0.32503
0.324859
0.324692
0.324467
0.324249
0.323977
0.323703
0.323394
0.323052
0.322726
0.322296
0.321979
0.321435
0.321164
0.32047
0.320293
0.319402
0.31938
0.318253
0.320512
0.320489
0.320432
0.320359
0.320244
0.320123
0.319951
0.319783
0.319557
0.319338
0.319064
0.318789
0.318479
0.318134
0.317807
0.317375
0.317057
0.31651
0.316239
0.31554
0.315367
0.31447
0.314449
0.313323
0.315839
0.315817
0.31576
0.315686
0.315572
0.31545
0.315279
0.315108
0.314884
0.314661
0.314391
0.314109
0.313805
0.313452
0.313132
0.312688
0.312382
0.31182
0.311564
0.310848
0.310692
0.309783
0.309767
0.308643
0.311316
0.311294
0.311238
0.311164
0.311051
0.310926
0.31076
0.310583
0.310366
0.310133
0.309875
0.309578
0.309291
0.308918
0.30862
0.308151
0.307873
0.307281
0.307058
0.306313
0.306182
0.305257
0.30525
0.304128
0.307009
0.306987
0.306933
0.306855
0.306749
0.306616
0.306461
0.306269
0.306072
0.305816
0.305585
0.305257
0.305006
0.304594
0.304341
0.303828
0.303596
0.302961
0.302779
0.302001
0.301896
0.300956
0.30096
0.299839
0.302853
0.302828
0.30278
0.302694
0.302602
0.302451
0.30232
0.302101
0.301938
0.301644
0.301458
0.301083
0.300886
0.30042
0.300224
0.299658
0.299479
0.2988
0.298659
0.297852
0.297772
0.296819
0.296832
0.295712
0.298892
0.298866
0.298824
0.298728
0.298652
0.29848
0.298378
0.298126
0.298004
0.297667
0.297532
0.297106
0.296965
0.296446
0.296307
0.295691
0.295562
0.294845
0.29474
0.293909
0.293851
0.292889
0.29291
0.291792
0.295077
0.29505
0.295011
0.294912
0.294843
0.294663
0.294576
0.294307
0.29421
0.293846
0.293748
0.293285
0.293189
0.292627
0.292536
0.29188
0.291794
0.291045
0.290972
0.290123
0.290084
0.289116
0.289145
0.288031
0.291451
0.291426
0.291386
0.29129
0.291219
0.291045
0.290955
0.290691
0.290596
0.290231
0.290142
0.289671
0.289593
0.289016
0.28895
0.288273
0.288217
0.287447
0.2874
0.28654
0.286515
0.285546
0.285579
0.284473
0.287959
0.287935
0.287892
0.287804
0.287726
0.287564
0.287464
0.287216
0.287108
0.286762
0.28666
0.286208
0.28612
0.285558
0.285488
0.28482
0.284767
0.283999
0.283961
0.283101
0.283083
0.282119
0.282155
0.281056
0.284651
0.284629
0.284584
0.284502
0.284417
0.284268
0.284157
0.283928
0.283804
0.283482
0.283362
0.282936
0.282829
0.282295
0.282208
0.281564
0.281499
0.28075
0.280708
0.279857