/*--------------------------------*- C++ -*----------------------------------*\
  =========                 |
  \\      /  F ield         | OpenFOAM: The Open Source CFD Toolbox
   \\    /   O peration     | Website:  https://openfoam.org
    \\  /    A nd           | Version:  10
     \\/     M anipulation  |
\*---------------------------------------------------------------------------*/
FoamFile
{
    format      ascii;
    class       volScalarField;
    location    "0.06";
    object      p;
}
// * * * * * * * * * * * * * * * * * * * * * * * * * * * * * * * * * * * * * //

dimensions      [1 -1 -2 0 0 0 0];

internalField   nonuniform List<scalar> 
4176
(
3417.04
3417.15
3417.48
3417.8
3418.48
3419.01
3420.04
3420.8
3422.16
3423.21
3424.85
3426.28
3428.11
3430.03
3431.88
3434.54
3436.16
3439.76
3441.06
3445.7
3446.51
3452.24
3452.36
3458.51
3384.48
3384.57
3384.93
3385.21
3385.97
3386.45
3387.58
3388.3
3389.77
3390.8
3392.55
3393.98
3395.91
3397.85
3399.78
3402.54
3404.16
3407.95
3409.23
3414.08
3415.04
3421.11
3421.62
3429.11
3371.06
3371.16
3371.52
3371.82
3372.6
3373.09
3374.26
3374.98
3376.53
3377.52
3379.4
3380.76
3382.85
3384.78
3386.74
3389.61
3391.22
3395.08
3396.39
3401.24
3402.25
3408.31
3408.89
3416.54
3343.04
3343.14
3343.47
3343.84
3344.55
3345.16
3346.24
3347.11
3348.55
3349.72
3351.5
3353.03
3355.08
3357.06
3359.23
3361.89
3363.83
3367.5
3369.02
3373.82
3374.88
3380.87
3381.37
3388.6
3307.32
3307.43
3307.76
3308.14
3308.86
3309.5
3310.59
3311.51
3312.96
3314.18
3315.99
3317.57
3319.67
3321.67
3323.95
3326.58
3328.69
3332.29
3334.01
3338.75
3339.91
3345.96
3346.48
3353.71
3264.02
3264.12
3264.46
3264.86
3265.59
3266.25
3267.37
3268.31
3269.8
3271.05
3272.91
3274.52
3276.7
3278.72
3281.09
3283.72
3285.94
3289.58
3291.34
3296.2
3297.45
3303.57
3304.17
3311.65
3214.48
3214.58
3214.93
3215.34
3216.08
3216.77
3217.91
3218.88
3220.41
3221.7
3223.6
3225.25
3227.49
3229.56
3232.01
3234.64
3237.01
3240.6
3242.55
3247.37
3248.76
3254.92
3255.6
3263.18
3159.6
3159.7
3160.05
3160.47
3161.23
3161.94
3163.1
3164.11
3165.67
3166.99
3168.95
3170.64
3172.94
3175.04
3177.59
3180.22
3182.73
3186.29
3188.41
3193.2
3194.73
3200.92
3201.67
3209.35
3100.8
3100.9
3101.26
3101.69
3102.46
3103.2
3104.39
3105.42
3107.02
3108.38
3110.38
3112.11
3114.46
3116.61
3119.23
3121.87
3124.52
3128.04
3130.32
3135.09
3136.74
3142.96
3143.79
3151.55
3039.21
3039.3
3039.66
3040.11
3040.9
3041.65
3042.87
3043.93
3045.56
3046.94
3048.99
3050.75
3053.16
3055.34
3058.03
3060.7
3063.45
3066.95
3069.38
3074.11
3075.9
3082.12
3083.02
3090.84
2976.45
2976.55
2976.91
2977.37
2978.17
2978.94
2980.18
2981.26
2982.93
2984.33
2986.42
2988.2
2990.67
2992.87
2995.62
2998.3
3001.16
3004.63
3007.19
3011.88
3013.78
3020
3020.97
3028.84
2913.71
2913.8
2914.18
2914.63
2915.45
2916.23
2917.49
2918.58
2920.28
2921.7
2923.83
2925.62
2928.13
2930.34
2933.15
2935.83
2938.78
2942.22
2944.88
2949.53
2951.53
2957.72
2958.76
2966.64
2852.53
2852.62
2853
2853.46
2854.29
2855.08
2856.36
2857.45
2859.18
2860.6
2862.77
2864.55
2867.11
2869.31
2872.16
2874.84
2877.84
2881.25
2884
2888.59
2890.67
2896.83
2897.93
2905.8
2793.85
2793.94
2794.32
2794.78
2795.62
2796.4
2797.71
2798.78
2800.55
2801.94
2804.16
2805.9
2808.52
2810.68
2813.58
2816.23
2819.28
2822.63
2825.46
2829.99
2832.13
2838.22
2839.38
2847.2
2738.8
2738.89
2739.28
2739.73
2740.59
2741.34
2742.69
2743.72
2745.54
2746.86
2749.16
2750.81
2753.52
2755.59
2758.56
2761.15
2764.23
2767.51
2770.38
2774.86
2777.04
2783.05
2784.26
2792
2687.89
2687.97
2688.37
2688.79
2689.69
2690.39
2691.8
2692.74
2694.66
2695.84
2698.28
2699.76
2702.62
2704.51
2707.61
2710.06
2713.21
2716.4
2719.29
2723.69
2725.91
2731.8
2733.06
2740.69
2641.73
2641.81
2642.23
2642.62
2643.55
2644.19
2645.65
2646.51
2648.49
2649.58
2652.08
2653.44
2656.4
2658.11
2661.35
2663.6
2666.86
2669.94
2672.82
2677.12
2679.38
2685.14
2686.43
2693.93
2600.41
2600.49
2600.9
2601.29
2602.21
2602.85
2604.28
2605.13
2607.09
2608.15
2610.64
2611.94
2614.9
2616.52
2619.79
2621.91
2625.22
2628.16
2631.06
2635.25
2637.53
2643.12
2644.44
2651.77
2564.12
2564.21
2564.6
2565.02
2565.86
2566.56
2567.89
2568.8
2570.66
2571.76
2574.15
2575.47
2578.34
2579.94
2583.14
2585.21
2588.48
2591.3
2594.25
2598.29
2600.57
2605.98
2607.32
2614.47
2532.66
2532.76
2533.12
2533.56
2534.35
2535.08
2536.32
2537.28
2539.01
2540.19
2542.41
2543.82
2546.51
2548.18
2551.22
2553.29
2556.47
2559.17
2562.19
2565.99
2568.29
2573.52
2574.89
2581.83
2505.97
2506.07
2506.42
2506.86
2507.61
2508.34
2509.52
2510.49
2512.12
2513.32
2515.43
2516.86
2519.42
2521.1
2524.02
2526.05
2529.15
2531.73
2534.76
2538.34
2540.67
2545.69
2547.08
2553.81
2483.71
2483.81
2484.14
2484.58
2485.3
2486.01
2487.14
2488.1
2489.66
2490.85
2492.87
2494.28
2496.73
2498.39
2501.2
2503.17
2506.2
2508.66
2511.66
2515
2517.38
2522.19
2523.6
2530.09
2465.68
2465.79
2466.11
2466.53
2467.22
2467.92
2469
2469.93
2471.43
2472.58
2474.52
2475.89
2478.25
2479.86
2482.58
2484.47
2487.42
2489.76
2492.72
2495.84
2498.27
2502.8
2504.24
2510.5
2451.54
2451.65
2451.96
2452.37
2453.04
2453.71
2454.75
2455.65
2457.08
2458.2
2460.05
2461.37
2463.64
2465.18
2467.81
2469.62
2472.49
2474.69
2477.62
2480.51
2482.97
2487.24
2488.69
2494.69
2441.07
2441.18
2441.47
2441.87
2442.51
2443.16
2444.15
2445.02
2446.4
2447.46
2449.24
2450.5
2452.68
2454.15
2456.68
2458.39
2461.17
2463.25
2466.11
2468.82
2471.28
2475.3
2476.74
2482.47
2433.96
2434.07
2434.36
2434.75
2435.36
2435.98
2436.93
2437.76
2439.07
2440.09
2441.79
2442.99
2445.08
2446.46
2448.9
2450.51
2453.2
2455.14
2457.93
2460.45
2462.92
2466.68
2468.1
2473.56
2430.04
2430.16
2430.43
2430.8
2431.38
2431.97
2432.88
2433.66
2434.92
2435.87
2437.5
2438.62
2440.63
2441.92
2444.26
2445.77
2448.36
2450.17
2452.87
2455.21
2457.68
2461.15
2462.6
2467.76
2429.1
2429.21
2429.47
2429.82
2430.37
2430.92
2431.78
2432.52
2433.71
2434.61
2436.16
2437.21
2439.12
2440.32
2442.56
2443.95
2446.45
2448.11
2450.72
2452.87
2455.31
2458.5
2459.97
2464.82
2431.1
2431.2
2431.45
2431.78
2432.31
2432.84
2433.66
2434.35
2435.48
2436.31
2437.78
2438.75
2440.57
2441.68
2443.82
2445.09
2447.48
2448.99
2451.5
2453.46
2455.83
2458.74
2460.19
2464.76
2435.52
2435.63
2435.86
2436.18
2436.67
2437.16
2437.93
2438.58
2439.67
2440.45
2441.85
2442.73
2444.47
2445.47
2447.52
2448.67
2450.96
2452.34
2454.76
2456.54
2458.83
2461.46
2462.91
2467.11
2442.66
2442.76
2442.98
2443.27
2443.73
2444.18
2444.89
2445.46
2446.45
2447.14
2448.46
2449.27
2450.92
2451.83
2453.79
2454.82
2457.01
2458.24
2460.56
2462.16
2464.39
2466.76
2468.19
2472.12
2451.69
2451.79
2451.99
2452.26
2452.68
2453.09
2453.75
2454.26
2455.18
2455.79
2457
2457.69
2459.21
2459.99
2461.82
2462.72
2464.82
2465.93
2468.18
2469.62
2471.8
2473.92
2475.37
2478.99
2464.07
2464.17
2464.36
2464.61
2465
2465.38
2465.99
2466.47
2467.34
2467.89
2469.04
2469.66
2471.1
2471.77
2473.5
2474.24
2476.2
2477.09
2479.18
2480.4
2482.46
2484.29
2485.69
2489.01
2478.55
2478.64
2478.81
2479.04
2479.39
2479.72
2480.28
2480.68
2481.47
2481.92
2482.96
2483.46
2484.77
2485.29
2486.87
2487.44
2489.24
2489.96
2491.93
2492.94
2494.86
2496.43
2497.8
2500.73
2494.81
2494.91
2495.06
2495.27
2495.6
2495.89
2496.41
2496.76
2497.49
2497.89
2498.86
2499.28
2500.53
2500.97
2502.47
2502.95
2504.68
2505.25
2507.12
2507.94
2509.76
2511.1
2512.44
2515.04
2512.91
2513
2513.14
2513.33
2513.62
2513.88
2514.34
2514.64
2515.3
2515.63
2516.52
2516.86
2518.01
2518.34
2519.75
2520.08
2521.71
2522.12
2523.87
2524.49
2526.21
2527.29
2528.6
2530.82
2533.11
2533.2
2533.32
2533.49
2533.74
2533.96
2534.37
2534.61
2535.2
2535.44
2536.25
2536.47
2537.52
2537.72
2539.01
2539.19
2540.69
2540.92
2542.55
2542.95
2544.55
2545.36
2546.6
2548.46
2555.17
2555.26
2555.37
2555.52
2555.74
2555.92
2556.27
2556.46
2556.98
2557.14
2557.86
2557.99
2558.94
2559.02
2560.2
2560.24
2561.63
2561.68
2563.21
2563.42
2564.92
2565.5
2566.65
2568.15
2579.15
2579.24
2579.34
2579.46
2579.65
2579.79
2580.09
2580.22
2580.67
2580.76
2581.39
2581.42
2582.27
2582.23
2583.3
2583.18
2584.46
2584.33
2585.74
2585.73
2587.12
2587.45
2588.51
2589.63
2604.97
2605.06
2605.14
2605.24
2605.4
2605.5
2605.75
2605.82
2606.2
2606.21
2606.76
2606.69
2607.44
2607.27
2608.23
2607.96
2609.13
2608.81
2610.11
2609.88
2611.17
2611.25
2612.23
2613
2632.61
2632.69
2632.76
2632.84
2632.97
2633.03
2633.23
2633.24
2633.55
2633.49
2633.96
2633.79
2634.44
2634.14
2635
2634.57
2635.63
2635.12
2636.31
2635.85
2637.02
2636.83
2637.73
2638.18
2662.04
2662.12
2662.17
2662.23
2662.32
2662.34
2662.49
2662.45
2662.69
2662.55
2662.93
2662.66
2663.22
2662.8
2663.56
2662.97
2663.92
2663.22
2664.3
2663.6
2664.68
2664.2
2665
2665.14
2693.24
2693.32
2693.36
2693.4
2693.45
2693.44
2693.54
2693.43
2693.61
2693.39
2693.69
2693.32
2693.78
2693.23
2693.89
2693.14
2693.99
2693.08
2694.08
2693.12
2694.13
2693.34
2694.06
2693.83
2726.2
2726.27
2726.3
2726.32
2726.34
2726.28
2726.33
2726.17
2726.27
2725.97
2726.19
2725.72
2726.09
2725.41
2725.96
2725.06
2725.81
2724.7
2725.61
2724.4
2725.34
2724.23
2724.91
2724.29
2760.9
2760.97
2760.98
2760.98
2760.97
2760.87
2760.86
2760.64
2760.68
2760.3
2760.44
2759.86
2760.13
2759.32
2759.78
2758.71
2759.36
2758.05
2758.87
2757.4
2758.29
2756.85
2757.52
2756.5
2797.33
2797.41
2797.4
2797.38
2797.33
2797.19
2797.13
2796.85
2796.82
2796.36
2796.41
2795.73
2795.91
2794.97
2795.32
2794.09
2794.65
2793.12
2793.87
2792.13
2792.96
2791.18
2791.88
2790.41
2835.49
2835.56
2835.54
2835.5
2835.41
2835.24
2835.12
2834.79
2834.68
2834.15
2834.11
2833.33
2833.41
2832.33
2832.59
2831.18
2831.65
2829.91
2830.58
2828.56
2829.36
2827.21
2827.94
2826.05
2875.37
2875.44
2875.4
2875.34
2875.21
2875
2874.83
2874.44
2874.27
2873.65
2873.53
2872.63
2872.62
2871.41
2871.57
2869.99
2870.37
2868.4
2869.01
2866.69
2867.49
2864.94
2865.69
2863.39
2916.95
2917.02
2916.97
2916.88
2916.72
2916.48
2916.25
2915.8
2915.56
2914.85
2914.65
2913.65
2913.55
2912.2
2912.26
2910.5
2910.8
2908.59
2909.15
2906.51
2907.35
2904.37
2905.14
2902.44
2960.24
2960.31
2960.24
2960.14
2959.94
2959.66
2959.38
2958.87
2958.55
2957.77
2957.48
2956.37
2956.19
2954.69
2954.67
2952.71
2952.94
2950.48
2951.02
2948.03
2948.88
2945.55
2946.28
2943.19
3005.23
3005.3
3005.21
3005.09
3004.86
3004.54
3004.2
3003.63
3003.25
3002.38
3002.02
3000.8
3000.53
2998.87
2998.78
2996.62
2996.8
2994.07
2994.61
2991.26
2992.09
2988.43
2989.12
2985.64
3051.91
3051.98
3051.88
3051.73
3051.47
3051.11
3050.72
3050.09
3049.64
3048.69
3048.25
3046.91
3046.57
3044.75
3044.6
3042.21
3042.38
3039.33
3039.89
3036.22
3036.99
3033.02
3033.66
3029.8
3100.28
3100.34
3100.23
3100.06
3099.76
3099.37
3098.92
3098.24
3097.72
3096.68
3096.18
3094.71
3094.31
3092.31
3092.13
3089.49
3089.67
3086.3
3086.84
3082.91
3083.59
3079.33
3079.9
3075.67
3150.32
3150.37
3150.25
3150.06
3149.73
3149.3
3148.8
3148.06
3147.48
3146.35
3145.79
3144.18
3143.75
3141.53
3141.37
3138.44
3138.63
3135.02
3135.46
3131.29
3131.88
3127.33
3127.85
3123.25
3202.01
3202.07
3201.93
3201.73
3201.36
3200.9
3200.35
3199.55
3198.91
3197.69
3197.09
3195.31
3194.89
3192.43
3192.28
3189.12
3189.23
3185.43
3185.76
3181.38
3181.87
3177.04
3177.49
3172.53
3255.35
3255.42
3255.26
3255.05
3254.64
3254.16
3253.55
3252.7
3252.01
3250.67
3250.07
3248.09
3247.69
3245.03
3244.82
3241.51
3241.51
3237.54
3237.76
3233.16
3233.55
3228.45
3228.84
3223.52
3310.33
3310.41
3310.22
3310.01
3309.56
3309.05
3308.38
3307.48
3306.78
3305.29
3304.69
3302.57
3302.09
3299.33
3299.01
3295.57
3295.45
3291.32
3291.43
3286.63
3286.92
3281.55
3281.88
3276.22
3366.93
3367.01
3366.78
3366.6
3366.07
3365.58
3364.85
3363.89
3363.15
3361.59
3360.91
3358.71
3358.14
3355.27
3354.85
3351.29
3351.06
3346.77
3346.77
3341.77
3341.97
3336.35
3336.62
3330.61
3425.12
3425.21
3424.97
3424.78
3424.2
3423.71
3422.89
3421.95
3421.11
3419.51
3418.75
3416.47
3415.82
3412.85
3412.34
3408.65
3408.32
3403.89
3403.77
3398.59
3398.7
3392.83
3393.04
3386.7
3484.89
3484.98
3484.74
3484.52
3483.94
3483.4
3482.54
3481.61
3480.63
3479.04
3478.19
3475.85
3475.12
3472.06
3471.45
3467.65
3467.21
3462.65
3462.43
3457.07
3457.08
3450.98
3451.13
3444.48
3546.21
3546.31
3546.06
3545.82
3545.24
3544.67
3543.77
3542.82
3541.72
3540.19
3539.18
3536.82
3536.01
3532.86
3532.16
3528.27
3527.73
3523.04
3522.72
3517.19
3517.11
3510.79
3510.88
3503.93
3609.08
3609.17
3608.92
3608.67
3608.07
3607.48
3606.55
3605.58
3604.39
3602.89
3601.72
3599.41
3598.45
3595.26
3594.48
3590.49
3589.85
3585.04
3584.62
3578.94
3578.78
3572.24
3572.28
3565.03
3673.45
3673.54
3673.3
3673.03
3672.42
3671.81
3670.85
3669.86
3668.61
3667.11
3665.82
3663.55
3662.42
3659.23
3658.35
3654.28
3653.55
3648.63
3648.12
3642.3
3642.05
3635.32
3635.3
3627.78
3739.32
3739.42
3739.17
3738.89
3738.27
3737.64
3736.65
3735.64
3734.35
3732.85
3731.45
3729.2
3727.94
3724.76
3723.75
3719.61
3718.8
3713.78
3713.19
3707.23
3706.91
3699.99
3699.91
3692.15
3806.66
3806.77
3806.52
3806.24
3805.6
3804.96
3803.95
3802.92
3801.58
3800.09
3798.59
3796.36
3794.97
3791.8
3790.66
3786.48
3785.59
3780.48
3779.8
3773.71
3773.31
3766.23
3766.1
3758.09
3875.48
3875.59
3875.33
3875.05
3874.4
3873.75
3872.72
3871.68
3870.29
3868.79
3867.21
3864.99
3863.49
3860.32
3859.06
3854.85
3853.87
3848.67
3847.92
3841.71
3841.24
3834
3833.82
3825.59
3945.75
3945.87
3945.61
3945.33
3944.66
3944.01
3942.95
3941.89
3940.46
3938.94
3937.29
3935.07
3933.47
3930.29
3928.94
3924.68
3923.62
3918.33
3917.51
3911.19
3910.65
3903.27
3903.03
3894.6
4017.48
4017.6
4017.33
4017.05
4016.37
4015.7
4014.61
4013.53
4012.07
4010.53
4008.79
4006.57
4004.87
4001.68
4000.23
3995.93
3994.8
3989.41
3988.53
3982.1
3981.5
3973.99
3973.71
3965.1
4090.65
4090.78
4090.5
4090.21
4089.51
4088.82
4087.69
4086.59
4085.07
4083.51
4081.69
4079.46
4077.66
4074.46
4072.91
4068.57
4067.36
4061.89
4060.94
4054.42
4053.75
4046.12
4045.8
4037.02
4165.24
4165.37
4165.08
4164.78
4164.05
4163.33
4162.16
4161.02
4159.45
4157.85
4155.95
4153.71
4151.79
4148.58
4146.93
4142.55
4141.26
4135.72
4134.71
4128.1
4127.37
4119.63
4119.27
4110.35
4241.18
4241.32
4241.02
4240.69
4239.94
4239.18
4237.97
4236.79
4235.15
4233.51
4231.52
4229.28
4227.22
4224.03
4222.23
4217.84
4216.45
4210.86
4209.79
4203.11
4202.33
4194.49
4194.08
4185.04
4318.38
4318.52
4318.21
4317.87
4317.09
4316.3
4315.05
4313.82
4312.12
4310.43
4308.37
4306.1
4303.91
4300.74
4298.79
4294.43
4292.91
4287.28
4286.17
4279.42
4278.58
4270.67
4270.22
4261.07
4396.68
4396.82
4396.51
4396.15
4395.36
4394.55
4393.27
4392.01
4390.27
4388.54
4386.42
4384.14
4381.83
4378.69
4376.58
4372.27
4370.61
4364.99
4363.8
4357
4356.12
4348.15
4347.68
4338.44
4475.89
4476.04
4475.74
4475.38
4474.6
4473.78
4472.51
4471.23
4469.49
4467.75
4465.6
4463.32
4460.93
4457.84
4455.57
4451.36
4449.53
4443.98
4442.69
4435.86
4434.95
4426.94
4426.46
4417.15
4555.8
4555.96
4555.68
4555.35
4554.6
4553.81
4552.58
4551.35
4549.64
4547.94
4545.81
4543.57
4541.16
4538.15
4535.78
4531.68
4529.69
4524.24
4522.84
4516.01
4515.09
4507.03
4506.57
4497.21
4636.26
4636.43
4636.2
4635.9
4635.22
4634.51
4633.36
4632.21
4630.6
4629
4626.95
4624.81
4622.45
4619.56
4617.17
4613.22
4611.12
4605.82
4604.29
4597.53
4596.57
4588.45
4588.02
4578.62
4717.22
4717.41
4717.23
4717
4716.4
4715.79
4714.76
4713.75
4712.27
4710.82
4708.91
4706.95
4704.71
4701.99
4699.68
4695.94
4693.81
4688.72
4687.13
4680.4
4679.48
4671.27
4670.86
4661.39
4798.83
4799.05
4798.91
4798.76
4798.25
4797.76
4796.85
4795.99
4794.67
4793.41
4791.67
4789.92
4787.86
4785.36
4783.22
4779.71
4777.7
4772.84
4771.31
4764.71
4763.87
4755.58
4755.19
4745.56
4881.48
4881.74
4881.61
4881.56
4881.08
4880.71
4879.87
4879.18
4877.96
4876.89
4875.3
4873.77
4871.88
4869.61
4867.73
4864.39
4862.7
4857.95
4856.77
4850.23
4849.71
4841.43
4841.13
4831.35
4965.79
4966.12
4965.93
4966
4965.42
4965.24
4964.27
4963.82
4962.5
4961.67
4960.06
4958.73
4956.93
4954.81
4953.28
4949.77
4948.84
4943.7
4943.34
4936.63
4936.67
4928.53
4928.54
4919.12
5052.62
5052.93
5052.79
5052.74
5052.25
5051.89
5051.02
5050.36
5049.13
5048.14
5046.57
5045.21
5043.37
5041.42
5039.81
5036.37
5035.64
5030.56
5030.46
5023.81
5024.27
5016.24
5016.71
5007.9
5142.87
5143.16
5142.99
5142.84
5142.26
5141.74
5140.74
5139.87
5138.47
5137.26
5135.5
5133.92
5131.88
5129.84
5127.81
5124.69
5123.45
5118.55
5118.43
5111.7
5112.42
5104.22
5105.05
5096.32
5237.37
5237.64
5237.39
5237.13
5236.38
5235.65
5234.39
5233.22
5231.49
5229.92
5227.76
5225.78
5223.3
5220.88
5218.31
5215.04
5213.16
5208.21
5207.7
5200.64
5201.45
5192.78
5193.88
5184.76
5336.72
5337.02
5336.61
5336.28
5335.28
5334.34
5332.73
5331.24
5329.04
5327.04
5324.3
5321.81
5318.66
5315.64
5312.31
5308.46
5305.84
5300.2
5299.2
5291.36
5291.99
5282.49
5283.71
5273.78
5441.24
5441.55
5441.05
5440.59
5439.4
5438.21
5436.28
5434.45
5431.76
5429.34
5425.91
5422.94
5418.88
5415.28
5410.99
5406.17
5402.76
5395.91
5394.09
5385.04
5385.04
5374.26
5375.32
5364.05
5550.9
5551.18
5550.68
5550.03
5548.76
5547.29
5545.19
5542.95
5540.01
5537
5533.24
5529.49
5524.95
5520.44
5515.26
5509.87
5504.63
5497.31
5493.82
5483.49
5482.17
5469.58
5469.97
5456.56
5665.31
5665.56
5665.05
5664.32
5662.96
5661.34
5659.08
5656.61
5653.42
5650.09
5645.99
5641.79
5636.78
5631.67
5625.81
5619.69
5613.22
5605.64
5599.52
5589.14
5585.3
5570.88
5569.8
5553.15
5783.83
5784.06
5783.57
5782.79
5781.4
5779.71
5777.37
5774.79
5771.48
5767.99
5763.71
5759.27
5754
5748.57
5742.32
5735.78
5728.69
5720.65
5713.15
5702.81
5696.05
5681.46
5677.83
5657.32
5905.68
5905.92
5905.44
5904.68
5903.29
5901.61
5899.26
5896.68
5893.35
5889.84
5885.53
5881.06
5875.73
5870.24
5863.9
5857.27
5850.01
5841.87
5834.02
5823.73
5815.91
5801.84
5796.32
5773.94
6030.01
6030.29
6029.83
6029.11
6027.76
6026.14
6023.84
6021.34
6018.08
6014.67
6010.42
6006.08
6000.83
5995.49
5989.26
5982.8
5975.67
5967.73
5960.17
5949.91
5942.92
5928.64
5924.22
5903.68
6156
6156.3
6155.88
6155.23
6153.93
6152.42
6150.21
6147.84
6144.7
6141.47
6137.37
6133.24
6128.18
6123.1
6117.1
6110.97
6104.11
6096.57
6089.39
6079.57
6073.16
6059.45
6055.43
6036.3
6282.83
6283.18
6282.79
6282.22
6281.01
6279.62
6277.52
6275.33
6272.33
6269.33
6265.42
6261.59
6256.76
6252.02
6246.31
6240.57
6234.07
6227.03
6220.25
6211.03
6205.09
6192.23
6188.46
6170.63
6409.81
6410.22
6409.84
6409.4
6408.23
6407.02
6405.01
6403.07
6400.19
6397.5
6393.74
6390.3
6385.66
6381.38
6375.94
6370.68
6364.55
6358.07
6351.71
6343.1
6337.63
6325.69
6322.14
6305.62
6536.34
6536.8
6536.4
6536.15
6534.93
6534.02
6531.99
6530.43
6527.54
6525.34
6521.58
6518.72
6514.11
6510.49
6505.15
6500.56
6494.71
6488.84
6482.95
6474.95
6469.88
6458.93
6455.58
6440.39
6661.86
6662.34
6661.97
6661.82
6660.7
6659.94
6658.03
6656.71
6653.96
6652.1
6648.5
6646.09
6641.64
6638.6
6633.4
6629.53
6623.84
6618.69
6613.18
6605.91
6601.18
6591.25
6588.09
6574.23
6785.88
6786.38
6786.11
6785.94
6785.04
6784.27
6782.69
6781.36
6779.05
6777.21
6774.1
6771.77
6767.86
6765.01
6760.35
6756.82
6751.62
6747.07
6741.8
6735.38
6730.98
6722.06
6719.09
6706.53
6908.02
6908.52
6908.33
6908.2
6907.46
6906.74
6905.4
6904.16
6902.17
6900.45
6897.75
6895.57
6892.15
6889.48
6885.36
6882.13
6877.44
6873.41
6868.47
6862.99
6858.8
6850.86
6848.08
6836.81
7027.94
7028.44
7028.31
7028.22
7027.61
7026.99
7025.83
7024.74
7023
7021.45
7019.09
7017.12
7014.1
7011.71
7008.04
7005.16
7000.94
6997.4
6992.84
6988.24
6984.21
6977.26
6974.66
6964.66
7145.34
7145.84
7145.77
7145.73
7145.22
7144.71
7143.71
7142.77
7141.25
7139.91
7137.83
7136.1
7133.44
7131.34
7128.09
7125.58
7121.79
7118.75
7114.61
7110.7
7106.84
7100.94
7098.52
7089.74
7259.96
7260.47
7260.44
7260.46
7260.04
7259.64
7258.79
7258
7256.69
7255.54
7253.73
7252.26
7249.92
7248.12
7245.25
7243.11
7239.74
7237.16
7233.44
7230.17
7226.53
7221.61
7219.36
7211.76
7371.63
7372.14
7372.15
7372.21
7371.89
7371.58
7370.87
7370.23
7369.11
7368.16
7366.59
7365.36
7363.33
7361.82
7359.3
7357.52
7354.55
7352.41
7349.1
7346.4
7343.07
7339.08
7336.92
7330.48
7480.16
7480.66
7480.71
7480.82
7480.58
7480.37
7479.79
7479.29
7478.35
7477.59
7476.25
7475.25
7473.5
7472.28
7470.1
7468.65
7466.06
7464.33
7461.41
7459.23
7456.26
7453.11
7451.08
7445.69
7585.43
7585.92
7586
7586.16
7585.99
7585.87
7585.41
7585.05
7584.27
7583.69
7582.57
7581.79
7580.31
7579.36
7577.49
7576.37
7574.12
7572.79
7570.25
7568.56
7565.94
7563.53
7561.65
7557.22
7687.33
7687.82
7687.93
7688.12
7688.03
7687.99
7687.64
7687.41
7686.78
7686.37
7685.45
7684.89
7683.65
7682.96
7681.38
7680.57
7678.65
7677.69
7675.51
7674.28
7672.02
7670.21
7668.47
7665.01
7785.81
7786.29
7786.42
7786.65
7786.62
7786.65
7786.41
7786.29
7785.81
7785.56
7784.82
7784.46
7783.45
7783
7781.69
7781.16
7779.55
7778.94
7777.09
7776.29
7774.36
7773.12
7771.53
7768.97
7880.81
7881.27
7881.43
7881.69
7881.72
7881.82
7881.67
7881.66
7881.32
7881.21
7880.65
7880.47
7879.67
7879.44
7878.38
7878.13
7876.8
7876.52
7874.96
7874.56
7872.93
7872.18
7870.83
7869.07
7972.3
7972.76
7972.93
7973.21
7973.29
7973.46
7973.4
7973.49
7973.27
7973.3
7972.89
7972.89
7972.28
7972.27
7971.44
7971.44
7970.37
7970.39
7969.12
7969.08
7967.73
7967.44
7966.31
7965.29
8060.29
8060.73
8060.92
8061.23
8061.36
8061.58
8061.6
8061.78
8061.67
8061.82
8061.57
8061.72
8061.3
8061.47
8060.86
8061.09
8060.27
8060.56
8059.56
8059.86
8058.78
8058.93
8058.03
8057.63
8144.79
8145.21
8145.42
8145.74
8145.91
8146.19
8146.28
8146.54
8146.54
8146.8
8146.68
8146.97
8146.72
8147.07
8146.65
8147.1
8146.5
8147.05
8146.29
8146.91
8146.07
8146.63
8145.94
8146.11
8225.82
8226.23
8226.45
8226.79
8227
8227.32
8227.48
8227.81
8227.9
8228.27
8228.27
8228.69
8228.58
8229.1
8228.86
8229.49
8229.1
8229.88
8229.34
8230.25
8229.62
8230.56
8230.04
8230.74
8303.45
8303.84
8304.07
8304.42
8304.66
8305.02
8305.23
8305.64
8305.8
8306.27
8306.37
8306.92
8306.94
8307.6
8307.52
8308.34
8308.12
8309.12
8308.76
8309.94
8309.5
8310.78
8310.4
8311.57
8377.71
8378.09
8378.32
8378.69
8378.95
8379.35
8379.61
8380.07
8380.31
8380.86
8381.06
8381.71
8381.86
8382.65
8382.71
8383.68
8383.62
8384.81
8384.62
8386.04
8385.75
8387.35
8387.08
8388.69
8448.69
8449.04
8449.28
8449.66
8449.94
8450.38
8450.68
8451.2
8451.5
8452.12
8452.4
8453.15
8453.4
8454.31
8454.49
8455.61
8455.69
8457.05
8457.01
8458.64
8458.49
8460.36
8460.18
8462.17
8516.45
8516.79
8517.03
8517.41
8517.72
8518.18
8518.52
8519.08
8519.44
8520.12
8520.48
8521.31
8521.65
8522.67
8522.96
8524.2
8524.4
8525.92
8526
8527.82
8527.79
8529.91
8529.81
8532.14
8581.08
8581.41
8581.65
8582.03
8582.36
8582.84
8583.21
8583.81
8584.22
8584.96
8585.39
8586.29
8586.71
8587.82
8588.21
8589.56
8589.87
8591.52
8591.72
8593.7
8593.77
8596.1
8596.08
8598.69
8642.68
8642.99
8643.23
8643.62
8643.95
8644.45
8644.85
8645.49
8645.94
8646.73
8647.21
8648.18
8648.68
8649.86
8650.33
8651.78
8652.19
8653.95
8654.25
8656.38
8656.53
8659.06
8659.09
8661.96
8701.33
8701.62
8701.86
8702.25
8702.59
8703.11
8703.53
8704.2
8704.69
8705.52
8706.05
8707.08
8707.63
8708.89
8709.43
8710.97
8711.46
8713.32
8713.7
8715.96
8716.2
8718.89
8718.95
8722.09
8757.14
8757.41
8757.65
8758.04
8758.39
8758.92
8759.37
8760.06
8760.57
8761.44
8762.02
8763.09
8763.7
8765.02
8765.62
8767.23
8767.79
8769.74
8770.2
8772.56
8772.87
8775.7
8775.82
8779.15
8810.19
8810.45
8810.68
8811.07
8811.43
8811.97
8812.43
8813.14
8813.68
8814.58
8815.19
8816.31
8816.96
8818.34
8819
8820.67
8821.29
8823.32
8823.85
8826.3
8826.67
8829.63
8829.79
8833.28
8860.6
8860.84
8861.08
8861.46
8861.83
8862.37
8862.84
8863.57
8864.13
8865.06
8865.7
8866.86
8867.55
8868.96
8869.67
8871.39
8872.07
8874.16
8874.75
8877.28
8877.7
8880.76
8880.96
8884.6
8908.45
8908.68
8908.91
8909.29
8909.66
8910.21
8910.69
8911.43
8912.01
8912.96
8913.63
8914.81
8915.54
8916.99
8917.74
8919.51
8920.23
8922.38
8923.01
8925.62
8926.09
8929.23
8929.47
8933.23
8953.86
8954.08
8954.3
8954.68
8955.05
8955.6
8956.09
8956.84
8957.44
8958.41
8959.09
8960.3
8961.05
8962.53
8963.31
8965.12
8965.88
8968.07
8968.75
8971.4
8971.92
8975.13
8975.41
8979.26
8996.91
8997.11
8997.34
8997.71
8998.08
8998.63
8999.13
8999.89
9000.49
9001.47
9002.17
9003.4
9004.17
9005.68
9006.48
9008.32
9009.11
9011.34
9012.05
9014.75
9015.31
9018.57
9018.88
9022.82
9037.72
9037.91
9038.12
9038.49
9038.85
9039.41
9039.91
9040.67
9041.28
9042.28
9042.99
9044.23
9045.01
9046.54
9047.36
9049.23
9050.03
9052.29
9053.02
9055.75
9056.33
9059.64
9059.97
9063.97
9076.36
9076.53
9076.75
9077.1
9077.47
9078.02
9078.52
9079.29
9079.91
9080.91
9081.62
9082.88
9083.67
9085.22
9086.04
9087.93
9088.74
9091.03
9091.76
9094.53
9095.11
9098.45
9098.78
9102.81
9112.94
9113.1
9113.31
9113.66
9114.02
9114.58
9115.07
9115.84
9116.46
9117.47
9118.18
9119.45
9120.24
9121.8
9122.62
9124.53
9125.34
9127.65
9128.38
9131.18
9131.74
9135.12
9135.43
9139.47
9147.54
9147.69
9147.9
9148.24
9148.6
9149.15
9149.65
9150.42
9151.03
9152.04
9152.75
9154.03
9154.81
9156.39
9157.21
9159.13
9159.93
9162.26
9162.98
9165.79
9166.35
9169.74
9170.04
9174.08
9180.26
9180.41
9180.61
9180.94
9181.3
9181.84
9182.34
9183.1
9183.71
9184.72
9185.44
9186.71
9187.5
9189.07
9189.89
9191.81
9192.62
9194.95
9195.67
9198.48
9199.04
9202.42
9202.73
9206.76
9211.18
9211.32
9211.51
9211.84
9212.19
9212.73
9213.22
9213.98
9214.59
9215.6
9216.3
9217.58
9218.36
9219.94
9220.75
9222.67
9223.48
9225.8
9226.52
9229.33
9229.89
9233.26
9233.57
9237.59
9240.39
9240.52
9240.71
9241.03
9241.38
9241.91
9242.39
9243.15
9243.75
9244.76
9245.46
9246.73
9247.51
9249.08
9249.89
9251.8
9252.61
9254.92
9255.64
9258.43
9259
9262.35
9262.66
9266.67
9267.95
9268.07
9268.25
9268.57
9268.91
9269.44
9269.92
9270.67
9271.27
9272.27
9272.96
9274.23
9275
9276.56
9277.37
9279.27
9280.07
9282.37
9283.1
9285.87
9286.43
9289.77
9290.08
9294.07
9293.96
9294.08
9294.26
9294.57
9294.9
9295.43
9295.9
9296.65
9297.23
9298.23
9298.91
9300.17
9300.93
9302.49
9303.29
9305.18
9305.97
9308.26
9308.98
9311.73
9312.3
9315.6
9315.92
9319.88
9318.47
9318.58
9318.76
9319.06
9319.39
9319.91
9320.37
9321.11
9321.69
9322.68
9323.35
9324.61
9325.35
9326.91
9327.69
9329.57
9330.36
9332.63
9333.34
9336.07
9336.63
9339.91
9340.23
9344.16
9341.58
9341.68
9341.85
9342.16
9342.47
9342.99
9343.44
9344.18
9344.74
9345.73
9346.39
9347.64
9348.37
9349.91
9350.68
9352.56
9353.32
9355.58
9356.28
9358.99
9359.54
9362.8
9363.11
9367
9363.32
9363.42
9363.58
9363.88
9364.19
9364.7
9365.14
9365.88
9366.43
9367.41
9368.05
9369.3
9370.01
9371.55
9372.29
9374.16
9374.91
9377.15
9377.83
9380.53
9381.06
9384.3
9384.59
9388.45
9383.78
9383.88
9384.04
9384.33
9384.63
9385.14
9385.57
9386.3
9386.83
9387.81
9388.43
9389.68
9390.37
9391.91
9392.62
9394.49
9395.2
9397.44
9398.1
9400.78
9401.29
9404.5
9404.78
9408.6
9403.01
9403.1
9403.25
9403.54
9403.83
9404.34
9404.75
9405.48
9406
9406.98
9407.57
9408.82
9409.48
9411.02
9411.7
9413.57
9414.25
9416.49
9417.1
9419.78
9420.25
9423.45
9423.7
9427.48
9421.07
9421.16
9421.3
9421.59
9421.87
9422.38
9422.77
9423.51
9424
9424.98
9425.55
9426.81
9427.42
9428.98
9429.62
9431.5
9432.12
9434.38
9434.93
9437.62
9438.04
9441.23
9441.45
9445.18
9438
9438.09
9438.23
9438.52
9438.79
9439.29
9439.67
9440.41
9440.87
9441.86
9442.39
9443.67
9444.23
9445.81
9446.39
9448.31
9448.85
9451.15
9451.61
9454.34
9454.68
9457.87
9458.06
9461.74
9453.88
9453.96
9454.1
9454.39
9454.64
9455.15
9455.5
9456.25
9456.68
9457.7
9458.17
9459.49
9459.97
9461.61
9462.09
9464.08
9464.51
9466.87
9467.23
9470
9470.27
9473.45
9473.62
9477.24
9468.74
9468.82
9468.94
9469.24
9469.47
9470
9470.3
9471.09
9471.45
9472.53
9472.91
9474.3
9474.67
9476.39
9476.75
9478.81
9479.15
9481.56
9481.86
9484.62
9484.86
9488.02
9488.16
9491.74
9482.62
9482.71
9482.81
9483.13
9483.32
9483.89
9484.13
9484.97
9485.26
9486.38
9486.69
9488.13
9488.43
9490.19
9490.49
9492.57
9492.86
9495.27
9495.52
9498.28
9498.49
9501.62
9501.75
9505.29
9495.57
9495.65
9495.76
9496.07
9496.26
9496.82
9497.06
9497.9
9498.16
9499.29
9499.56
9501.02
9501.27
9503.06
9503.3
9505.4
9505.63
9508.05
9508.27
9511.01
9511.2
9514.3
9514.41
9517.91
9507.65
9507.72
9507.84
9508.12
9508.35
9508.86
9509.14
9509.91
9510.21
9511.29
9511.58
9513.01
9513.24
9515.03
9515.25
9517.35
9517.53
9519.96
9520.14
9522.87
9523.03
9526.1
9526.21
9529.65
9518.87
9518.94
9519.07
9519.33
9519.57
9520.04
9520.36
9521.08
9521.42
9522.44
9522.77
9524.13
9524.42
9526.13
9526.36
9528.42
9528.61
9531.02
9531.17
9533.88
9534.03
9537.06
9537.16
9540.55
9529.3
9529.36
9529.5
9529.74
9529.99
9530.43
9530.78
9531.45
9531.83
9532.79
9533.17
9534.45
9534.79
9536.43
9536.7
9538.7
9538.9
9541.25
9541.42
9544.1
9544.23
9547.23
9547.32
9550.66
9538.95
9539.01
9539.14
9539.37
9539.64
9540.04
9540.41
9541.04
9541.46
9542.36
9542.79
9544
9544.38
9545.95
9546.26
9548.19
9548.43
9550.74
9550.89
9553.54
9553.66
9556.62
9556.71
9560.01
9547.86
9547.92
9548.05
9548.27
9548.54
9548.93
9549.32
9549.9
9550.36
9551.2
9551.66
9552.82
9553.24
9554.74
9555.09
9556.96
9557.22
9559.46
9559.65
9562.25
9562.38
9565.29
9565.38
9568.63
9556.05
9556.11
9556.24
9556.46
9556.73
9557.1
9557.5
9558.06
9558.53
9559.34
9559.83
9560.93
9561.38
9562.83
9563.21
9565.02
9565.31
9567.5
9567.7
9570.24
9570.39
9573.26
9573.34
9576.56
9563.57
9563.62
9563.76
9563.97
9564.25
9564.6
9565.01
9565.54
9566.03
9566.8
9567.31
9568.37
9568.85
9570.25
9570.65
9572.42
9572.73
9574.87
9575.08
9577.59
9577.73
9580.56
9580.65
9583.82
9570.43
9570.49
9570.62
9570.83
9571.1
9571.45
9571.86
9572.38
9572.88
9573.61
9574.15
9575.16
9575.66
9577.02
9577.44
9579.17
9579.49
9581.59
9581.82
9584.27
9584.44
9587.22
9587.31
9590.44
9576.67
9576.73
9576.86
9577.07
9577.34
9577.68
9578.09
9578.59
9579.1
9579.81
9580.36
9581.34
9581.86
9583.18
9583.61
9585.3
9585.63
9587.7
9587.93
9590.35
9590.52
9593.27
9593.36
9596.45
9582.32
9582.37
9582.5
9582.7
9582.98
9583.32
9583.72
9584.21
9584.73
9585.41
9585.97
9586.92
9587.46
9588.73
9589.19
9590.84
9591.18
9593.22
9593.45
9595.84
9596.01
9598.73
9598.81
9601.87
9587.38
9587.44
9587.57
9587.77
9588.03
9588.37
9588.77
9589.25
9589.77
9590.43
9591.01
9591.92
9592.48
9593.72
9594.19
9595.81
9596.16
9598.16
9598.4
9600.77
9600.92
9603.62
9603.7
9606.73
9591.89
9591.94
9592.07
9592.27
9592.53
9592.87
9593.27
9593.74
9594.26
9594.9
9595.49
9596.37
9596.94
9598.15
9598.63
9600.21
9600.58
9602.55
9602.79
9605.13
9605.28
9607.95
9608.04
9611.04