/*--------------------------------*- C++ -*----------------------------------*\
  =========                 |
  \\      /  F ield         | OpenFOAM: The Open Source CFD Toolbox
   \\    /   O peration     | Website:  https://openfoam.org
    \\  /    A nd           | Version:  10
     \\/     M anipulation  |
\*---------------------------------------------------------------------------*/
FoamFile
{
    format      ascii;
    class       surfaceScalarField;
    location    "0.06";
    object      phi;
}
// * * * * * * * * * * * * * * * * * * * * * * * * * * * * * * * * * * * * * //

dimensions      [1 0 -1 0 0 0 0];

internalField   nonuniform List<scalar> 
8154
(
-1.56875e-08
-5.09025e-08
-9.65544e-08
-1.72276e-07
-2.34624e-07
-3.40962e-07
-4.30494e-07
-5.74636e-07
-7.10102e-07
-9.06258e-07
-1.10073e-06
-1.34112e-06
-1.60348e-06
-1.90817e-06
-2.25343e-06
-2.58612e-06
-3.08264e-06
-3.47073e-06
-4.07452e-06
-4.42364e-06
-4.87084e-06
-4.84785e-06
-3.82888e-06
-0.000297587
-0.000893693
2.77901e-09
-0.00148975
1.67615e-08
-0.00208585
3.79538e-08
-0.002682
8.36199e-08
-0.00327822
1.46746e-07
-0.00387446
2.29193e-07
-0.00447092
3.41545e-07
-0.0050672
4.4461e-07
-0.0056641
6.05678e-07
-0.00626032
7.11154e-07
-0.00685793
9.29114e-07
-0.00745393
1.03782e-06
-0.00805247
1.30145e-06
-0.0086481
1.57956e-06
-0.00924786
1.75778e-06
-0.00984287
2.15929e-06
-0.010444
2.43527e-06
-0.0110387
2.68683e-06
-0.0116408
3.00092e-06
-0.0122362
3.05776e-06
-0.0128385
3.06629e-06
-0.0134365
2.61361e-06
-0.0140449
1.87349e-06
-0.000297656
-0.000893913
-6.07063e-09
-0.00149012
-1.72924e-08
-0.00208637
-4.45116e-08
-0.00268267
-4.63233e-08
-0.00327906
-8.76501e-08
-0.00387545
-5.23933e-08
-0.00447208
-1.12119e-07
-0.00506855
-3.10684e-08
-0.00566558
-1.23248e-07
-0.00626205
7.66777e-09
-0.00685974
-1.02128e-07
-0.00745603
7.20914e-08
-0.00805479
4.64332e-08
-0.00865045
1.17051e-07
-0.00925066
5.02017e-07
-0.00984564
4.30979e-07
-0.0104471
1.01511e-06
-0.0110419
1.08833e-06
-0.0116441
1.56057e-06
-0.0122396
1.88736e-06
-0.0128417
2.24725e-06
-0.0134395
2.37091e-06
-0.0140473
2.10938e-06
-0.000297659
-0.000893932
-2.08703e-08
-0.00149014
-8.59777e-08
-0.00208644
-1.86346e-07
-0.00268271
-3.28487e-07
-0.00327919
-4.81311e-07
-0.0038755
-6.82035e-07
-0.00447231
-8.74715e-07
-0.00506863
-1.13277e-06
-0.00566594
-1.36561e-06
-0.0062622
-1.6761e-06
-0.00686025
-1.93389e-06
-0.00745637
-2.25607e-06
-0.00805528
-2.51673e-06
-0.00865128
-2.74637e-06
-0.00925114
-3.00667e-06
-0.0098468
-3.11969e-06
-0.0104479
-3.22551e-06
-0.0110431
-3.31096e-06
-0.0116454
-3.11903e-06
-0.0122409
-3.04052e-06
-0.0128429
-2.73633e-06
-0.0134403
-2.13721e-06
-0.0140465
-1.38437e-06
-0.000297569
-0.000893657
-2.44594e-08
-0.00148969
-1.03052e-07
-0.0020858
-2.28167e-07
-0.00268191
-3.99566e-07
-0.0032782
-5.96793e-07
-0.00387438
-8.38303e-07
-0.00447099
-1.09178e-06
-0.00506721
-1.40025e-06
-0.00566434
-1.70586e-06
-0.00626052
-2.07388e-06
-0.00685842
-2.40814e-06
-0.00745447
-2.79264e-06
-0.00805332
-3.11252e-06
-0.00864916
-3.4192e-06
-0.00924908
-3.6973e-06
-0.00984461
-3.8572e-06
-0.0104457
-4.05917e-06
-0.0110411
-4.00023e-06
-0.0116432
-4.1677e-06
-0.0122388
-3.86258e-06
-0.0128411
-3.49665e-06
-0.0134386
-2.84798e-06
-0.0140455
-1.93296e-06
-0.000297403
-0.000893146
-2.30571e-08
-0.00148884
-9.99635e-08
-0.00208461
-2.24414e-07
-0.00268039
-3.90154e-07
-0.00327635
-5.86522e-07
-0.00387223
-8.14033e-07
-0.00446851
-1.06587e-06
-0.00506446
-1.34855e-06
-0.00566127
-1.64953e-06
-0.00625722
-1.97712e-06
-0.00685483
-2.29752e-06
-0.00745067
-2.62848e-06
-0.0080493
-2.90826e-06
-0.0086449
-3.16343e-06
-0.0092447
-3.32504e-06
-0.00983994
-3.44402e-06
-0.0104411
-3.38816e-06
-0.011036
-3.37799e-06
-0.0116385
-3.07223e-06
-0.0122339
-2.8396e-06
-0.0128363
-2.37773e-06
-0.0134338
-1.71905e-06
-0.0140416
-9.57295e-07
-0.000297144
-0.000892352
-2.49656e-08
-0.00148751
-1.10205e-07
-0.00208276
-2.48527e-07
-0.00267802
-4.3394e-07
-0.00327346
-6.53576e-07
-0.00386884
-9.10684e-07
-0.00446463
-1.19316e-06
-0.0050601
-1.51422e-06
-0.00565644
-1.85019e-06
-0.00625195
-2.22245e-06
-0.00684911
-2.5792e-06
-0.00744455
-2.95827e-06
-0.00804277
-3.27307e-06
-0.00863801
-3.57297e-06
-0.00923742
-3.7612e-06
-0.0098324
-3.88998e-06
-0.0104332
-3.88214e-06
-0.011028
-3.82948e-06
-0.01163
-3.6028e-06
-0.0122252
-3.28256e-06
-0.0128275
-2.79032e-06
-0.0134246
-2.05264e-06
-0.0140323
-1.19857e-06
-0.000296805
-0.000891309
-2.59002e-08
-0.00148577
-1.16302e-07
-0.00208032
-2.63437e-07
-0.0026749
-4.61134e-07
-0.00326966
-6.95681e-07
-0.00386438
-9.71553e-07
-0.0044595
-1.27407e-06
-0.00505434
-1.61949e-06
-0.00565004
-1.97797e-06
-0.00624495
-2.37785e-06
-0.00684149
-2.75725e-06
-0.0074364
-3.1666e-06
-0.00803403
-3.50266e-06
-0.00862877
-3.83124e-06
-0.00922765
-4.03491e-06
-0.00982218
-4.1779e-06
-0.0104225
-4.17934e-06
-0.0110169
-4.11347e-06
-0.0116185
-3.90443e-06
-0.0122132
-3.54638e-06
-0.0128153
-3.03178e-06
-0.0134119
-2.23499e-06
-0.0140194
-1.32613e-06
-0.000296369
-0.000889974
-2.6094e-08
-0.00148355
-1.1868e-07
-0.0020772
-2.6973e-07
-0.00267091
-4.72941e-07
-0.00326479
-7.1419e-07
-0.00385866
-9.99072e-07
-0.00445291
-1.3112e-06
-0.00504694
-1.6685e-06
-0.00564178
-2.03706e-06
-0.00623593
-2.44926e-06
-0.00683165
-2.83749e-06
-0.00742584
-3.26036e-06
-0.00802268
-3.60515e-06
-0.00861676
-3.94849e-06
-0.00921491
-4.15804e-06
-0.00980882
-4.31131e-06
-0.0104084
-4.3069e-06
-0.0110022
-4.24277e-06
-0.0116033
-4.02868e-06
-0.0121975
-3.67159e-06
-0.0127991
-3.1349e-06
-0.0133951
-2.31549e-06
-0.0140023
-1.37696e-06
-0.00029586
-0.000888416
-2.5248e-08
-0.00148095
-1.16682e-07
-0.00207356
-2.66218e-07
-0.00266624
-4.67243e-07
-0.00325909
-7.06056e-07
-0.00385196
-9.88882e-07
-0.00444519
-1.29886e-06
-0.00503826
-1.6543e-06
-0.0056321
-2.01917e-06
-0.00622535
-2.42768e-06
-0.00682008
-2.80916e-06
-0.00741342
-3.22874e-06
-0.00800931
-3.56719e-06
-0.0086026
-3.91042e-06
-0.00919987
-4.11108e-06
-0.00979301
-4.27376e-06
-0.0103918
-4.26158e-06
-0.0109849
-4.20013e-06
-0.0115852
-3.98271e-06
-0.0121787
-3.60897e-06
-0.0127798
-3.10412e-06
-0.013375
-2.29132e-06
-0.0139817
-1.36916e-06
-0.000295272
-0.000886615
-2.37187e-08
-0.00147794
-1.11046e-07
-0.00206935
-2.54109e-07
-0.00266085
-4.46271e-07
-0.0032525
-6.74154e-07
-0.00384422
-9.45323e-07
-0.00443626
-1.24203e-06
-0.00502822
-1.58373e-06
-0.00562089
-1.93242e-06
-0.00621307
-2.32362e-06
-0.00680665
-2.6852e-06
-0.00739899
-3.08637e-06
-0.00799376
-3.40674e-06
-0.00858611
-3.73827e-06
-0.0091823
-3.92817e-06
-0.00977457
-4.08849e-06
-0.0103724
-4.06976e-06
-0.0109646
-4.01547e-06
-0.0115641
-3.80427e-06
-0.0121566
-3.49562e-06
-0.0127571
-2.97531e-06
-0.0133512
-2.20325e-06
-0.0139573
-1.32049e-06
-0.000294632
-0.000884658
-2.12033e-08
-0.00147468
-1.01319e-07
-0.00206477
-2.32825e-07
-0.00265498
-4.08981e-07
-0.00324533
-6.17272e-07
-0.00383579
-8.66381e-07
-0.00442654
-1.13811e-06
-0.00501728
-1.4533e-06
-0.00560867
-1.7726e-06
-0.00619969
-2.1333e-06
-0.006792
-2.46119e-06
-0.00738323
-2.83057e-06
-0.00797676
-3.11905e-06
-0.00856806
-3.42642e-06
-0.00916306
-3.59774e-06
-0.00975434
-3.74596e-06
-0.010351
-3.7261e-06
-0.0109422
-3.68377e-06
-0.0115408
-3.48464e-06
-0.0121323
-3.19252e-06
-0.012732
-2.73811e-06
-0.0133251
-2.02981e-06
-0.0139303
-1.2216e-06
-0.000293939
-0.000882545
-1.81238e-08
-0.00147115
-8.84486e-08
-0.00205984
-2.04031e-07
-0.00264864
-3.58348e-07
-0.00323759
-5.39752e-07
-0.00382668
-7.58179e-07
-0.00441603
-9.94814e-07
-0.00500545
-1.2727e-06
-0.00559545
-1.55101e-06
-0.0061852
-1.87106e-06
-0.00677613
-2.15378e-06
-0.00736615
-2.48297e-06
-0.00795832
-2.72799e-06
-0.00854847
-3.00306e-06
-0.00914215
-3.14727e-06
-0.00973233
-3.27813e-06
-0.0103278
-3.25606e-06
-0.0109179
-3.23262e-06
-0.0115153
-3.05437e-06
-0.0121057
-2.80549e-06
-0.0127045
-2.4087e-06
-0.0132963
-1.79654e-06
-0.0139007
-1.08541e-06
-0.000293225
-0.000880367
-1.41741e-08
-0.00146752
-7.23064e-08
-0.00205475
-1.67524e-07
-0.00264211
-2.94739e-07
-0.00322961
-4.41677e-07
-0.00381728
-6.22133e-07
-0.00440519
-8.12343e-07
-0.00499323
-1.04503e-06
-0.00558179
-1.26675e-06
-0.00617023
-1.54208e-06
-0.00675971
-1.76085e-06
-0.00734849
-2.05259e-06
-0.00793922
-2.23404e-06
-0.00852817
-2.47993e-06
-0.00912048
-2.5856e-06
-0.00970947
-2.70591e-06
-0.0103036
-2.66881e-06
-0.0108926
-2.65968e-06
-0.0114888
-2.51654e-06
-0.012078
-2.31221e-06
-0.0126758
-1.98609e-06
-0.0132664
-1.48748e-06
-0.0138697
-9.03274e-07
-0.000292491
-0.00087813
-9.7727e-09
-0.00146378
-5.41974e-08
-0.00204952
-1.24613e-07
-0.0026354
-2.22192e-07
-0.0032214
-3.26867e-07
-0.00380762
-4.66493e-07
-0.00439404
-5.98646e-07
-0.00498067
-7.84484e-07
-0.00556772
-9.32801e-07
-0.00615482
-1.16572e-06
-0.00674278
-1.29931e-06
-0.00733028
-1.56535e-06
-0.0079195
-1.65587e-06
-0.00850722
-1.89471e-06
-0.00909808
-1.92555e-06
-0.00968584
-2.05616e-06
-0.0102786
-1.99717e-06
-0.0108663
-1.98395e-06
-0.0114613
-1.8338e-06
-0.0120493
-1.7402e-06
-0.0126459
-1.49447e-06
-0.0132352
-1.13487e-06
-0.0138374
-6.92991e-07
-0.000291766
-0.000875919
-5.12973e-09
-0.00146009
-3.41825e-08
-0.00204434
-7.62023e-08
-0.00262877
-1.40583e-07
-0.00321328
-2.00291e-07
-0.00379807
-2.86742e-07
-0.00438298
-3.6761e-07
-0.00496826
-4.76187e-07
-0.00555375
-5.77955e-07
-0.00613957
-7.07204e-07
-0.00672594
-8.13156e-07
-0.00731225
-9.72267e-07
-0.00789987
-1.04005e-06
-0.00848643
-1.22997e-06
-0.00907576
-1.18708e-06
-0.00966232
-1.36532e-06
-0.0102537
-1.27398e-06
-0.0108402
-1.25228e-06
-0.0114338
-1.14479e-06
-0.0120206
-1.12206e-06
-0.012616
-9.49981e-07
-0.013204
-7.28102e-07
-0.0138049
-4.49451e-07
-0.000291047
-0.000873731
3.97573e-10
-0.00145645
-1.00261e-08
-0.00203922
-2.88033e-08
-0.00262221
-4.34276e-08
-0.00320524
-7.25334e-08
-0.00378862
-8.18758e-08
-0.00437204
-1.25478e-07
-0.00495594
-1.39096e-07
-0.00553993
-1.97249e-07
-0.00612441
-2.18215e-07
-0.00670926
-2.87613e-07
-0.0072943
-3.20998e-07
-0.00788034
-3.90801e-07
-0.00846578
-4.35554e-07
-0.00905344
-4.62017e-07
-0.00963891
-5.03877e-07
-0.0102288
-4.47912e-07
-0.010814
-5.20357e-07
-0.0114063
-4.33723e-07
-0.0119918
-4.53996e-07
-0.012586
-3.56744e-07
-0.0131727
-2.91828e-07
-0.0137723
-1.88979e-07
-0.000290359
-0.000871639
6.09493e-09
-0.00145295
1.47766e-08
-0.00203433
2.21168e-08
-0.0026159
5.38584e-08
-0.00319756
6.55173e-08
-0.00377952
1.24825e-07
-0.00436159
1.35529e-07
-0.00494406
2.01394e-07
-0.00552673
2.11471e-07
-0.00610978
2.70467e-07
-0.00669331
2.76914e-07
-0.00727694
3.1802e-07
-0.00786165
3.20062e-07
-0.00844573
3.4053e-07
-0.00903199
3.3809e-07
-0.00961628
3.85036e-07
-0.0102047
3.89802e-07
-0.0107887
2.58276e-07
-0.0113796
3.65465e-07
-0.011964
2.83659e-07
-0.0125568
2.74987e-07
-0.0131422
1.69105e-07
-0.0137405
8.26895e-08
-0.000289696
-0.000869624
1.18515e-08
-0.00144958
3.73245e-08
-0.00202963
7.94427e-08
-0.00260982
1.43652e-07
-0.00319017
2.19222e-07
-0.00377073
3.20055e-07
-0.00435152
4.14877e-07
-0.00493258
5.34841e-07
-0.00551398
6.2675e-07
-0.00609564
7.71515e-07
-0.00667788
8.22611e-07
-0.00726014
9.89122e-07
-0.00784355
9.91405e-07
-0.00842628
1.13261e-06
-0.00901126
1.15165e-06
-0.00959418
1.21718e-06
-0.0101812
1.27047e-06
-0.0107642
1.18644e-06
-0.0113537
1.29168e-06
-0.0119368
1.03709e-06
-0.0125282
8.90574e-07
-0.0131124
6.06972e-07
-0.0137093
3.41989e-07
-0.000289075
-0.000867738
1.76733e-08
-0.00144642
6.09834e-08
-0.00202522
1.34984e-07
-0.00260413
2.35862e-07
-0.00318324
3.71957e-07
-0.0037625
5.1858e-07
-0.00434209
7.01453e-07
-0.0049218
8.69109e-07
-0.00550205
1.07021e-06
-0.0060823
1.24385e-06
-0.00666345
1.4315e-06
-0.00724426
1.59272e-06
-0.00782661
1.74549e-06
-0.00840788
1.86747e-06
-0.00899174
2.00112e-06
-0.00957334
2.04294e-06
-0.010159
2.1301e-06
-0.010741
2.06421e-06
-0.0113289
2.0218e-06
-0.0119109
1.67082e-06
-0.012501
1.45605e-06
-0.0130839
1.03023e-06
-0.0136795
5.9542e-07
-0.000288488
-0.000865952
2.31504e-08
-0.00144344
8.41888e-08
-0.00202104
1.86877e-07
-0.00259876
3.28034e-07
-0.00317666
5.11705e-07
-0.00375473
7.1918e-07
-0.00433311
9.65008e-07
-0.00491161
1.20563e-06
-0.00549066
1.48401e-06
-0.00606969
1.72566e-06
-0.00664966
2.00085e-06
-0.00722922
2.21133e-06
-0.00781038
2.44932e-06
-0.00839043
2.60198e-06
-0.00897303
2.78921e-06
-0.00955346
2.8563e-06
-0.0101378
2.95724e-06
-0.0107187
2.89808e-06
-0.0113051
2.78188e-06
-0.011886
2.36036e-06
-0.0124748
2.05513e-06
-0.0130566
1.46733e-06
-0.0136507
8.52632e-07
-0.000287948
-0.000864309
2.84204e-08
-0.0014407
1.06001e-07
-0.00201719
2.35296e-07
-0.00259381
4.14287e-07
-0.0031706
6.42779e-07
-0.00374756
9.07454e-07
-0.00432481
1.21202e-06
-0.00490222
1.52611e-06
-0.00548012
1.87035e-06
-0.00605806
2.19234e-06
-0.00663685
2.53208e-06
-0.00721533
2.81582e-06
-0.00779528
3.10617e-06
-0.00837425
3.31321e-06
-0.00895562
3.529e-06
-0.00953497
3.62304e-06
-0.010118
3.72093e-06
-0.0106978
3.63367e-06
-0.0112828
3.5123e-06
-0.0118628
3.08472e-06
-0.0124502
2.72028e-06
-0.0130309
1.91504e-06
-0.0136235
1.10619e-06
-0.000287441
-0.000862768
3.3221e-08
-0.00143813
1.25968e-07
-0.00201358
2.79918e-07
-0.00258916
4.9351e-07
-0.00316491
7.63977e-07
-0.00374083
1.08168e-06
-0.00431702
1.4426e-06
-0.00489338
1.82473e-06
-0.0054702
2.23356e-06
-0.00604708
2.63075e-06
-0.00662478
3.03441e-06
-0.00720219
3.38891e-06
-0.00778102
3.73135e-06
-0.00835892
3.99148e-06
-0.00893912
4.23517e-06
-0.00951742
4.35286e-06
-0.0100993
4.44579e-06
-0.010678
4.33866e-06
-0.0112617
4.17649e-06
-0.0118407
3.7069e-06
-0.0124267
3.25181e-06
-0.0130063
2.3194e-06
-0.0135975
1.34635e-06
-0.000286979
-0.000861361
3.74054e-08
-0.00143578
1.43506e-07
-0.00201028
3.19566e-07
-0.00258492
5.64e-07
-0.00315971
8.72821e-07
-0.00373467
1.23735e-06
-0.00430989
1.65004e-06
-0.00488529
2.09178e-06
-0.00546111
2.56057e-06
-0.00603701
3.02397e-06
-0.00661369
3.48885e-06
-0.00719011
3.90689e-06
-0.00776788
4.30164e-06
-0.00834477
4.61039e-06
-0.00892388
4.88439e-06
-0.00950117
5.02356e-06
-0.0100819
5.11218e-06
-0.0106596
4.98532e-06
-0.011242
4.7682e-06
-0.0118201
4.25502e-06
-0.0124047
3.69132e-06
-0.0129833
2.70097e-06
-0.0135731
1.58166e-06
-0.000286546
-0.000860043
4.10075e-08
-0.00143357
1.59214e-07
-0.00200719
3.55516e-07
-0.00258094
6.2803e-07
-0.00315483
9.71594e-07
-0.00372889
1.37801e-06
-0.0043032
1.83675e-06
-0.00487768
2.33084e-06
-0.00545257
2.8526e-06
-0.00602753
3.37421e-06
-0.00660323
3.89385e-06
-0.00717871
4.36902e-06
-0.00775546
4.81205e-06
-0.0083314
5.16647e-06
-0.00890945
5.47103e-06
-0.00948577
5.63315e-06
-0.0100654
5.72295e-06
-0.0106421
5.5774e-06
-0.0112233
5.30744e-06
-0.0118005
4.73435e-06
-0.0123838
4.09671e-06
-0.0129614
3.00657e-06
-0.0135497
1.77227e-06
-0.000286153
-0.000858848
4.40855e-08
-0.00143158
1.73565e-07
-0.00200439
3.88044e-07
-0.00257732
6.85086e-07
-0.0031504
1.0588e-06
-0.00372364
1.50092e-06
-0.0042971
1.99892e-06
-0.00487074
2.53673e-06
-0.00544477
3.10336e-06
-0.00601887
3.67361e-06
-0.00659368
4.23968e-06
-0.00716825
4.76319e-06
-0.00774408
5.24694e-06
-0.0083191
5.64082e-06
-0.00889616
5.97122e-06
-0.00947156
6.15645e-06
-0.0100501
6.24953e-06
-0.0106259
6.10069e-06
-0.011206
5.8065e-06
-0.0117823
5.15663e-06
-0.0123644
4.42828e-06
-0.012941
3.15008e-06
-0.0135278
1.85935e-06
-0.000285789
-0.00085774
4.79416e-08
-0.00142972
1.88905e-07
-0.00200178
4.20912e-07
-0.00257396
7.41909e-07
-0.00314627
1.14535e-06
-0.00371874
1.62258e-06
-0.00429142
2.15944e-06
-0.00486425
2.74034e-06
-0.00543747
3.35235e-06
-0.00601074
3.97116e-06
-0.00658469
4.5857e-06
-0.00715842
5.15827e-06
-0.00773334
5.687e-06
-0.00830749
6.12219e-06
-0.00888359
6.48432e-06
-0.0094581
6.69587e-06
-0.0100356
6.80088e-06
-0.0106105
6.65996e-06
-0.0111895
6.35343e-06
-0.011765
5.67635e-06
-0.0123457
4.8681e-06
-0.0129216
3.49129e-06
-0.013507
2.05462e-06
-0.000285465
-0.000856748
5.22901e-08
-0.00142806
2.0143e-07
-0.00199945
4.48126e-07
-0.00257094
7.89848e-07
-0.00314256
1.21943e-06
-0.00371432
1.72675e-06
-0.00428628
2.29743e-06
-0.00485839
2.91343e-06
-0.00543085
3.56728e-06
-0.00600335
4.22698e-06
-0.00657651
4.88659e-06
-0.00714944
5.50162e-06
-0.00772352
6.07265e-06
-0.00829683
6.54652e-06
-0.00887203
6.93677e-06
-0.00944569
7.16989e-06
-0.0100222
7.28279e-06
-0.0105963
7.14774e-06
-0.0111742
6.83088e-06
-0.0117489
6.14811e-06
-0.0123283
5.26436e-06
-0.0129034
3.81021e-06
-0.0134874
2.27676e-06
-0.000285169
-0.00085584
5.30895e-08
-0.00142654
2.09218e-07
-0.00199731
4.68837e-07
-0.00256818
8.27459e-07
-0.00313917
1.27782e-06
-0.00371029
1.80932e-06
-0.00428158
2.40955e-06
-0.00485302
3.0601e-06
-0.00542477
3.74099e-06
-0.00599657
4.43879e-06
-0.00656897
5.1274e-06
-0.00714114
5.78075e-06
-0.0077144
6.38567e-06
-0.00828691
6.89232e-06
-0.00886125
7.31512e-06
-0.00943407
7.55776e-06
-0.0100096
7.68433e-06
-0.0105828
7.52464e-06
-0.0111597
7.2163e-06
-0.0117335
6.50507e-06
-0.0123117
5.55562e-06
-0.012886
4.05354e-06
-0.0134684
2.35485e-06
-0.000284902
-0.000855028
5.63866e-08
-0.00142518
2.1985e-07
-0.0019954
4.89479e-07
-0.0025657
8.61832e-07
-0.00313611
1.32832e-06
-0.00370664
1.87867e-06
-0.00427734
2.49457e-06
-0.00484816
3.16052e-06
-0.00541927
3.86713e-06
-0.00599041
4.59141e-06
-0.00656211
5.30457e-06
-0.00713358
5.97686e-06
-0.00770608
6.60148e-06
-0.00827784
7.12921e-06
-0.00885135
7.56398e-06
-0.00942339
7.82305e-06
-0.00999805
7.93234e-06
-0.0105704
7.7644e-06
-0.0111463
7.39663e-06
-0.0117193
6.64854e-06
-0.0122963
5.70153e-06
-0.0128697
4.15683e-06
-0.0134506
2.50884e-06
-0.000284661
-0.00085429
5.63507e-08
-0.00142394
2.26571e-07
-0.00199366
5.07511e-07
-0.00256345
8.95206e-07
-0.00313334
1.37896e-06
-0.00370334
1.95056e-06
-0.00427349
2.58997e-06
-0.00484373
3.28659e-06
-0.00541425
4.00526e-06
-0.00598477
4.72889e-06
-0.00655583
5.45274e-06
-0.00712662
6.14455e-06
-0.0076984
6.78122e-06
-0.00826944
7.31868e-06
-0.00884212
7.76318e-06
-0.0094134
8.03547e-06
-0.00998714
8.1508e-06
-0.0105588
7.96911e-06
-0.0111336
7.55708e-06
-0.0117057
6.73168e-06
-0.0122815
5.72532e-06
-0.0128542
4.13169e-06
-0.0134336
2.39002e-06
-0.000284441
-0.000853614
5.94472e-08
-0.00142281
2.33449e-07
-0.00199206
5.20239e-07
-0.00256139
9.16386e-07
-0.00313081
1.41273e-06
-0.00370033
1.99859e-06
-0.00426998
2.65626e-06
-0.00483972
3.36858e-06
-0.0054097
4.11359e-06
-0.00597968
4.87298e-06
-0.00655014
5.61862e-06
-0.00712033
6.32343e-06
-0.00769144
6.96589e-06
-0.00826182
7.50421e-06
-0.00883374
7.92294e-06
-0.0094043
8.16938e-06
-0.0099772
8.2658e-06
-0.0105481
8.09765e-06
-0.0111219
7.6723e-06
-0.0116933
6.85008e-06
-0.0122679
5.76764e-06
-0.01284
4.14304e-06
-0.0134179
2.39572e-06
-0.000284229
-0.00085297
5.92652e-08
-0.00142173
2.34613e-07
-0.00199054
5.2326e-07
-0.00255942
9.22653e-07
-0.00312838
1.42161e-06
-0.00369743
2.01275e-06
-0.00426661
2.67425e-06
-0.00483587
3.39319e-06
-0.00540535
4.14675e-06
-0.00597483
4.91689e-06
-0.00654476
5.68137e-06
-0.00711443
6.40895e-06
-0.00768494
7.08813e-06
-0.00825474
7.66447e-06
-0.00882598
8.14762e-06
-0.00939586
8.43106e-06
-0.00996795
8.57684e-06
-0.0105381
8.385e-06
-0.011111
7.9698e-06
-0.0116817
7.14926e-06
-0.0122552
6.02213e-06
-0.0128265
4.41531e-06
-0.0134032
2.55586e-06
-0.000284053
-0.000852427
5.97329e-08
-0.00142082
2.34801e-07
-0.00198925
5.25257e-07
-0.00255774
9.26359e-07
-0.0031263
1.42989e-06
-0.00369492
2.0223e-06
-0.00426364
2.69152e-06
-0.00483242
3.41645e-06
-0.0054014
4.1771e-06
-0.00597035
4.95318e-06
-0.0065397
5.72332e-06
-0.00710879
6.45769e-06
-0.00767867
7.13495e-06
-0.00824786
7.71604e-06
-0.00881839
8.18452e-06
-0.00938766
8.48616e-06
-0.00995895
8.58702e-06
-0.0105284
8.43891e-06
-0.0111004
8.06852e-06
-0.0116703
7.27348e-06
-0.0122428
6.18761e-06
-0.0128135
4.5161e-06
-0.0133887
2.8528e-06
-0.000283889
-0.000851923
5.86124e-08
-0.00141997
2.32647e-07
-0.00198806
5.19858e-07
-0.0025562
9.16226e-07
-0.0031244
1.41184e-06
-0.00369265
1.99778e-06
-0.00426099
2.6545e-06
-0.00482939
3.36828e-06
-0.00539795
4.11454e-06
-0.00596647
4.8797e-06
-0.00653536
5.63061e-06
-0.00710399
6.35024e-06
-0.00767333
7.00975e-06
-0.008242
7.57954e-06
-0.00881191
8.04358e-06
-0.00938058
8.33676e-06
-0.00995113
8.47765e-06
-0.0105199
8.33948e-06
-0.0110911
7.97262e-06
-0.0116603
7.19915e-06
-0.0122317
6.135e-06
-0.0128018
4.51787e-06
-0.0133756
2.44793e-06
-0.000283739
-0.000851463
5.84685e-08
-0.0014192
2.31293e-07
-0.00198697
5.15908e-07
-0.00255478
9.08588e-07
-0.00312263
1.4005e-06
-0.00369053
1.98264e-06
-0.0042585
2.63355e-06
-0.0048265
3.3423e-06
-0.00539464
4.08658e-06
-0.00596273
4.8429e-06
-0.00653115
5.59268e-06
-0.00709928
6.30992e-06
-0.00766809
6.96975e-06
-0.00823622
7.53861e-06
-0.00880552
7.99935e-06
-0.00937361
8.29361e-06
-0.00994347
8.42322e-06
-0.0105116
8.28276e-06
-0.0110819
7.91316e-06
-0.0116505
7.15839e-06
-0.0122209
6.11613e-06
-0.0127904
4.54987e-06
-0.0133628
2.69527e-06
-0.000283603
-0.000851043
5.76298e-08
-0.00141849
2.27891e-07
-0.00198597
5.08937e-07
-0.00255348
8.9717e-07
-0.00312103
1.38329e-06
-0.00368861
1.95847e-06
-0.00425624
2.60496e-06
-0.00482389
3.30855e-06
-0.00539166
4.04583e-06
-0.00595935
4.80114e-06
-0.00652735
5.54748e-06
-0.00709504
6.26252e-06
-0.00766336
6.9212e-06
-0.00823101
7.48848e-06
-0.00879975
7.94981e-06
-0.0093673
8.2397e-06
-0.00993651
8.36907e-06
-0.0105041
8.22045e-06
-0.0110736
7.85256e-06
-0.0116415
7.095e-06
-0.012211
6.07673e-06
-0.0127798
4.54597e-06
-0.0133509
2.66778e-06
-0.000283471
-0.000850639
5.63588e-08
-0.00141781
2.23361e-07
-0.00198501
4.98953e-07
-0.00255223
8.79735e-07
-0.00311948
1.3566e-06
-0.00368674
1.92124e-06
-0.00425405
2.55536e-06
-0.00482135
3.24654e-06
-0.00538874
3.97139e-06
-0.00595605
4.71468e-06
-0.00652362
5.45016e-06
-0.00709088
6.15667e-06
-0.00765871
6.80847e-06
-0.00822587
7.3715e-06
-0.00879405
7.82988e-06
-0.00936107
8.11772e-06
-0.00992963
8.24456e-06
-0.0104966
8.09186e-06
-0.0110655
7.71893e-06
-0.0116328
6.95878e-06
-0.0122015
5.94409e-06
-0.0127696
4.42868e-06
-0.0133395
2.62875e-06
-0.000283363
-0.000850305
5.5015e-08
-0.00141725
2.18011e-07
-0.00198422
4.8708e-07
-0.0025512
8.58896e-07
-0.00311819
1.32453e-06
-0.00368519
1.87609e-06
-0.00425222
2.49579e-06
-0.00481922
3.17174e-06
-0.0053863
3.88088e-06
-0.00595327
4.60923e-06
-0.00652047
5.33078e-06
-0.00708734
6.02608e-06
-0.00765473
6.66987e-06
-0.00822143
7.22942e-06
-0.00878907
7.68946e-06
-0.00935557
7.9833e-06
-0.00992348
8.12149e-06
-0.0104899
7.97983e-06
-0.0110579
7.61876e-06
-0.0116246
6.86302e-06
-0.0121923
5.84824e-06
-0.0127598
4.32867e-06
-0.0133283
2.56155e-06
-0.000283252
-0.000849961
5.34076e-08
-0.00141667
2.11839e-07
-0.0019834
4.73351e-07
-0.00255013
8.34763e-07
-0.00311687
1.28732e-06
-0.0036836
1.82358e-06
-0.00425035
2.42594e-06
-0.00481706
3.08331e-06
-0.00538382
3.77283e-06
-0.00595046
4.48157e-06
-0.0065173
5.18398e-06
-0.0070838
5.86181e-06
-0.00765078
6.4907e-06
-0.00821708
7.03898e-06
-0.00878423
7.49333e-06
-0.0093503
7.78633e-06
-0.00991764
7.9339e-06
-0.0104836
7.80447e-06
-0.011051
7.46739e-06
-0.0116171
6.73022e-06
-0.0121841
5.73463e-06
-0.012751
4.22662e-06
-0.0133184
2.4344e-06
-0.000283161
-0.00084968
5.16444e-08
-0.0014162
2.04885e-07
-0.00198273
4.5781e-07
-0.00254925
8.07364e-07
-0.00311577
1.24494e-06
-0.00368228
1.76352e-06
-0.00424878
2.3458e-06
-0.00481522
2.98142e-06
-0.0053817
3.6478e-06
-0.00594802
4.33301e-06
-0.00651452
5.01199e-06
-0.00708066
5.6679e-06
-0.00764722
6.27714e-06
-0.0082131
6.8092e-06
-0.00877974
7.25355e-06
-0.00934533
7.54132e-06
-0.00991205
7.69727e-06
-0.0104774
7.58049e-06
-0.0110441
7.28001e-06
-0.0116096
6.57404e-06
-0.0121757
5.6356e-06
-0.0127421
4.15758e-06
-0.0133084
2.38806e-06
-0.000283072
-0.000849401
4.9663e-08
-0.00141573
1.97072e-07
-0.00198206
4.40378e-07
-0.00254838
7.76602e-07
-0.0031147
1.19735e-06
-0.00368098
1.69597e-06
-0.00424725
2.25551e-06
-0.00481345
2.86612e-06
-0.00537967
3.50577e-06
-0.00594573
4.16308e-06
-0.00651193
4.81386e-06
-0.00707776
5.44173e-06
-0.00764397
6.02483e-06
-0.0082095
6.53224e-06
-0.00877573
6.95736e-06
-0.00934093
7.2286e-06
-0.00990713
7.38104e-06
-0.0104721
7.26474e-06
-0.0110381
6.9939e-06
-0.0116031
6.31729e-06
-0.0121684
5.46165e-06
-0.0127342
4.04318e-06
-0.0132995
2.40291e-06
-0.00028299
-0.000849149
4.74112e-08
-0.0014153
1.88261e-07
-0.00198146
4.2069e-07
-0.00254759
7.4186e-07
-0.00311371
1.14356e-06
-0.00367979
1.61958e-06
-0.00424583
2.15324e-06
-0.00481179
2.73555e-06
-0.00537775
3.34454e-06
-0.00594352
3.97022e-06
-0.00650941
4.58805e-06
-0.00707491
5.18404e-06
-0.00764075
5.73496e-06
-0.00820591
6.21364e-06
-0.00877169
6.61084e-06
-0.00933648
6.86026e-06
-0.00990213
6.99414e-06
-0.0104667
6.86939e-06
-0.011032
6.60184e-06
-0.0115966
5.943e-06
-0.012161
5.14484e-06
-0.0127264
3.7893e-06
-0.0132906
2.28475e-06
-0.000282919
-0.000848927
4.5232e-08
-0.00141493
1.79554e-07
-0.00198093
4.01204e-07
-0.0025469
7.0747e-07
-0.00311285
1.09035e-06
-0.00367875
1.54414e-06
-0.0042446
2.05242e-06
-0.00481035
2.6071e-06
-0.00537609
3.18617e-06
-0.00594162
3.78156e-06
-0.00650726
4.36748e-06
-0.00707248
4.93391e-06
-0.007638
5.4539e-06
-0.00820284
5.90766e-06
-0.00876822
6.27791e-06
-0.00933265
6.51144e-06
-0.00989779
6.62527e-06
-0.010462
6.49865e-06
-0.0110266
6.2219e-06
-0.0115909
5.58225e-06
-0.0121544
4.80493e-06
-0.0127194
3.50477e-06
-0.0132823
2.11638e-06
-0.000282846
-0.0008487
4.32846e-08
-0.00141455
1.71952e-07
-0.00198038
3.84268e-07
-0.00254619
6.77681e-07
-0.00311197
1.04443e-06
-0.00367767
1.47926e-06
-0.00424333
1.96623e-06
-0.00480887
2.49786e-06
-0.00537438
3.05294e-06
-0.00593966
3.62383e-06
-0.00650503
4.18628e-06
-0.00706996
4.72991e-06
-0.00763517
5.23075e-06
-0.00819969
5.66663e-06
-0.0087647
6.02625e-06
-0.00932879
6.25037e-06
-0.00989348
6.36735e-06
-0.0104573
6.24368e-06
-0.0110213
5.98903e-06
-0.0115853
5.36406e-06
-0.0121481
4.62237e-06
-0.0127128
3.33569e-06
-0.0132748
2.08292e-06
-0.000282787
-0.000848517
4.11486e-08
-0.00141424
1.63451e-07
-0.00197994
3.65254e-07
-0.00254561
6.44181e-07
-0.00311124
9.92745e-07
-0.00367679
1.40619e-06
-0.00424229
1.86911e-06
-0.00480764
2.37467e-06
-0.00537295
2.90255e-06
-0.00593801
3.44563e-06
-0.00650314
3.98124e-06
-0.00706781
4.49889e-06
-0.00763272
4.97752e-06
-0.00819693
5.39263e-06
-0.00876157
5.73908e-06
-0.0093253
5.95141e-06
-0.00988951
6.06976e-06
-0.010453
5.94897e-06
-0.0110164
5.72231e-06
-0.01158
5.11643e-06
-0.0121419
4.42592e-06
-0.0127065
3.27194e-06
-0.0132672
1.93873e-06
-0.000282726
-0.000848325
3.87675e-08
-0.00141391
1.5404e-07
-0.00197948
3.44265e-07
-0.00254501
6.07223e-07
-0.00311049
9.35749e-07
-0.00367588
1.3256e-06
-0.00424121
1.76195e-06
-0.00480638
2.23865e-06
-0.00537151
2.73637e-06
-0.00593637
3.24846e-06
-0.00650127
3.7542e-06
-0.00706571
4.24257e-06
-0.00763036
4.69628e-06
-0.0081943
5.08769e-06
-0.00875861
5.4189e-06
-0.00932207
5.61692e-06
-0.00988586
5.73415e-06
-0.010449
5.61388e-06
-0.0110119
5.41133e-06
-0.0115752
4.8274e-06
-0.0121364
4.23234e-06
-0.0127008
3.13069e-06
-0.0132606
1.8391e-06
-0.000282673
-0.00084816
3.6183e-08
-0.00141363
1.43805e-07
-0.00197909
3.21419e-07
-0.00254449
5.67e-07
-0.00310984
8.73747e-07
-0.00367509
1.23795e-06
-0.00424026
1.64539e-06
-0.00480526
2.09066e-06
-0.00537021
2.55556e-06
-0.00593486
3.03379e-06
-0.00649954
3.50705e-06
-0.00706374
3.96319e-06
-0.00762811
4.38993e-06
-0.00819178
4.75499e-06
-0.00875574
5.07044e-06
-0.0093189
5.25222e-06
-0.00988224
5.37064e-06
-0.0104451
5.24813e-06
-0.0110074
5.06309e-06
-0.0115705
4.47852e-06
-0.0121309
4.00487e-06
-0.0126951
2.88433e-06
-0.013254
1.72299e-06
-0.000282623
-0.000848002
3.34058e-08
-0.00141336
1.32762e-07
-0.00197871
2.96776e-07
-0.00254399
5.23623e-07
-0.00310922
8.06923e-07
-0.00367434
1.1435e-06
-0.00423938
1.51981e-06
-0.00480423
1.93114e-06
-0.00536902
2.36062e-06
-0.00593349
2.80207e-06
-0.00649799
3.24025e-06
-0.00706198
3.66094e-06
-0.00762612
4.05862e-06
-0.00818956
4.39412e-06
-0.00875322
4.69281e-06
-0.00931614
4.85554e-06
-0.00987908
4.97804e-06
-0.0104417
4.85157e-06
-0.0110034
4.71718e-06
-0.0115665
4.41693e-06
-0.012126
3.63183e-06
-0.0126899
2.66367e-06
-0.0132479
1.58641e-06
-0.000282573
-0.000847845
3.04303e-08
-0.0014131
1.20987e-07
-0.00197833
2.70508e-07
-0.00254349
4.77395e-07
-0.0031086
7.35764e-07
-0.00367358
1.043e-06
-0.00423849
1.38618e-06
-0.00480318
1.76136e-06
-0.00536781
2.15316e-06
-0.0059321
2.55519e-06
-0.0064964
2.95614e-06
-0.00706018
3.33823e-06
-0.00762408
3.70551e-06
-0.0081873
4.00817e-06
-0.00875065
4.2903e-06
-0.00931335
4.42931e-06
-0.00987588
4.55616e-06
-0.0104383
4.43454e-06
-0.0109994
4.3615e-06
-0.0115624
3.93464e-06
-0.0121213
3.32921e-06
-0.012685
2.4589e-06
-0.0132423
1.45859e-06
-0.00028253
-0.00084771
2.7308e-08
-0.00141287
1.08541e-07
-0.00197801
2.42672e-07
-0.00254307
4.28408e-07
-0.00310808
6.60267e-07
-0.00367294
9.36408e-07
-0.00423773
1.24451e-06
-0.00480228
1.58134e-06
-0.00536677
1.9332e-06
-0.00593091
2.29306e-06
-0.00649504
2.65464e-06
-0.00705865
2.99474e-06
-0.00762232
3.33057e-06
-0.00818535
3.59636e-06
-0.00874839
3.86389e-06
-0.0093109
3.97626e-06
-0.00987302
4.11075e-06
-0.0104353
3.77108e-06
-0.0109959
3.88957e-06
-0.0115586
3.50381e-06
-0.012117
2.99836e-06
-0.0126804
2.22348e-06
-0.0132369
1.3171e-06
-0.000282483
-0.000847563
2.40066e-08
-0.00141262
9.54202e-08
-0.00197765
2.13314e-07
-0.00254261
3.76786e-07
-0.0031075
5.80726e-07
-0.00367225
8.24267e-07
-0.00423691
1.09555e-06
-0.00480133
1.392e-06
-0.00536568
1.7019e-06
-0.00592967
2.01697e-06
-0.00649362
2.33783e-06
-0.00705707
2.63225e-06
-0.00762052
2.93752e-06
-0.0081834
3.1603e-06
-0.00874615
3.41777e-06
-0.00930855
3.49949e-06
-0.00987026
3.6739e-06
-0.0104325
3.42696e-06
-0.0109926
3.40434e-06
-0.011555
3.10117e-06
-0.012113
2.64741e-06
-0.0126762
1.97044e-06
-0.013232
1.1673e-06
-0.000282443
-0.000847435
2.05051e-08
-0.0014124
8.15644e-08
-0.00197735
1.82326e-07
-0.0025422
3.22467e-07
-0.003107
4.97155e-07
-0.00367164
7.06577e-07
-0.00423619
9.3926e-07
-0.00480049
1.19331e-06
-0.00536471
1.45925e-06
-0.00592855
1.72669e-06
-0.00649234
2.00713e-06
-0.00705565
2.25059e-06
-0.00761886
2.53142e-06
-0.00818161
2.7023e-06
-0.00874404
2.95488e-06
-0.00930635
2.80522e-06
-0.00986759
3.11145e-06
-0.0104297
3.09436e-06
-0.0109894
2.94295e-06