/*--------------------------------*- C++ -*----------------------------------*\
  =========                 |
  \\      /  F ield         | OpenFOAM: The Open Source CFD Toolbox
   \\    /   O peration     | Website:  https://openfoam.org
    \\  /    A nd           | Version:  10
     \\/     M anipulation  |
\*---------------------------------------------------------------------------*/
FoamFile
{
    format      ascii;
    class       volScalarField;
    location    "0.06";
    object      rho;
}
// * * * * * * * * * * * * * * * * * * * * * * * * * * * * * * * * * * * * * //

dimensions      [1 -3 0 0 0 0 0];

internalField   nonuniform List<scalar> 
4176
(
0.0463666
0.0464104
0.0464199
0.0464264
0.0464348
0.0464416
0.0464524
0.0464613
0.0464746
0.0464868
0.046502
0.0465188
0.0465349
0.0465574
0.0465728
0.0466034
0.0466158
0.0466564
0.0466649
0.0467161
0.04672
0.0467811
0.0467798
0.0468626
0.0456776
0.0457211
0.045731
0.0457369
0.0457461
0.0457524
0.0457641
0.0457725
0.0457868
0.0457987
0.0458149
0.0458315
0.0458485
0.045871
0.045887
0.0459186
0.0459306
0.045973
0.045981
0.0460341
0.0460395
0.0461038
0.046107
0.0462047
0.0457089
0.0457532
0.0457632
0.0457696
0.0457788
0.0457854
0.0457974
0.0458061
0.045821
0.0458329
0.0458501
0.0458664
0.0458848
0.0459078
0.0459236
0.0459568
0.0459683
0.0460119
0.0460201
0.0460733
0.0460789
0.046143
0.0461462
0.0462449
0.045438
0.045482
0.0454916
0.0454988
0.0455071
0.0455153
0.0455259
0.0455368
0.0455501
0.0455644
0.0455802
0.0455988
0.0456164
0.04564
0.0456584
0.045689
0.0457047
0.0457457
0.0457566
0.0458093
0.0458153
0.0458787
0.0458806
0.0459735
0.0452051
0.0452488
0.0452585
0.0452658
0.0452743
0.0452827
0.0452937
0.0453048
0.0453185
0.0453332
0.0453495
0.0453686
0.0453868
0.0454111
0.04543
0.0454613
0.0454779
0.0455191
0.0455317
0.0455843
0.0455915
0.0456564
0.0456588
0.0457544
0.044807
0.0448497
0.0448593
0.0448667
0.0448753
0.044884
0.0448952
0.0449067
0.0449208
0.044936
0.0449529
0.0449724
0.0449915
0.0450161
0.0450362
0.0450675
0.0450855
0.0451273
0.0451402
0.0451944
0.0452024
0.045268
0.0452712
0.0453683
0.0444444
0.0444863
0.0444959
0.0445033
0.0445122
0.0445211
0.0445326
0.0445444
0.044559
0.0445746
0.044592
0.0446121
0.0446318
0.044657
0.0446779
0.0447096
0.044729
0.0447707
0.0447856
0.0448397
0.0448492
0.044916
0.0449201
0.0450198
0.0439446
0.0439849
0.0439943
0.0440018
0.0440108
0.04402
0.0440318
0.044044
0.044059
0.0440751
0.0440931
0.0441137
0.0441343
0.0441599
0.044182
0.0442136
0.0442349
0.0442763
0.0442931
0.0443471
0.044358
0.044425
0.0444297
0.0445287
0.0434963
0.0435355
0.043545
0.0435525
0.0435617
0.043571
0.0435833
0.0435957
0.0436113
0.0436276
0.0436463
0.0436672
0.0436886
0.0437147
0.0437377
0.0437698
0.0437922
0.0438338
0.0438523
0.0439065
0.0439188
0.0439869
0.0439926
0.044094
0.0429406
0.0429779
0.0429872
0.0429946
0.043004
0.0430135
0.0430261
0.0430388
0.0430549
0.0430715
0.0430909
0.0431121
0.0431344
0.0431607
0.0431848
0.0432171
0.0432411
0.0432825
0.0433026
0.0433566
0.0433704
0.0434385
0.0434447
0.0435449
0.0424573
0.0424934
0.0425027
0.0425101
0.0425198
0.0425292
0.0425424
0.042555
0.0425718
0.0425884
0.0426087
0.0426299
0.0426531
0.0426796
0.0427046
0.0427371
0.0427623
0.0428037
0.0428252
0.0428794
0.0428943
0.0429633
0.0429706
0.0430727
0.0418985
0.0419325
0.0419415
0.0419488
0.0419586
0.0419682
0.0419816
0.0419944
0.0420117
0.0420284
0.0420493
0.0420706
0.0420946
0.0421211
0.0421471
0.0421796
0.042206
0.0422473
0.04227
0.0423239
0.0423399
0.0424086
0.0424163
0.0425167
0.0414326
0.0414656
0.0414745
0.0414818
0.0414918
0.0415014
0.0415152
0.0415279
0.0415457
0.0415623
0.041584
0.0416051
0.0416299
0.0416562
0.0416831
0.0417154
0.0417429
0.0417837
0.0418078
0.0418615
0.0418785
0.0419476
0.0419563
0.042058
0.0409193
0.0409502
0.0409589
0.0409661
0.0409762
0.0409856
0.0409997
0.0410122
0.0410307
0.0410469
0.0410695
0.04109
0.0411159
0.0411416
0.0411694
0.0412015
0.0412296
0.0412702
0.041295
0.0413482
0.0413661
0.0414345
0.0414436
0.0415428
0.0405139
0.0405438
0.0405525
0.0405595
0.0405698
0.0405791
0.0405936
0.0406057
0.0406249
0.0406403
0.040664
0.0406834
0.0407106
0.0407353
0.0407643
0.0407956
0.0408246
0.0408643
0.0408901
0.0409431
0.0409616
0.0410299
0.0410399
0.0411397
0.0400804
0.0401083
0.0401169
0.0401234
0.0401342
0.0401427
0.0401581
0.0401691
0.0401896
0.0402034
0.0402289
0.0402464
0.0402756
0.0402983
0.0403289
0.040359
0.0403887
0.0404278
0.0404538
0.0405061
0.0405252
0.0405922
0.0406026
0.0406994
0.0397608
0.039788
0.0397967
0.0398029
0.039814
0.0398219
0.0398379
0.0398482
0.0398693
0.0398824
0.0399084
0.0399249
0.0399551
0.0399761
0.0400086
0.0400361
0.0400678
0.0401056
0.0401319
0.0401834
0.0402033
0.0402695
0.0402807
0.0403775
0.0394234
0.0394489
0.0394571
0.0394634
0.0394741
0.0394822
0.0394978
0.0395082
0.0395289
0.0395419
0.0395677
0.039584
0.0396139
0.0396346
0.0396668
0.0396938
0.0397256
0.0397624
0.0397889
0.0398394
0.0398595
0.0399239
0.0399352
0.0400285
0.0391985
0.0392236
0.0392314
0.0392382
0.0392479
0.0392569
0.0392712
0.0392826
0.039302
0.0393158
0.0393404
0.0393571
0.0393862
0.0394067
0.0394385
0.0394649
0.0394965
0.0395318
0.0395598
0.0396086
0.0396291
0.0396922
0.0397042
0.0397971
0.0389591
0.0389826
0.0389901
0.0389968
0.0390061
0.0390152
0.0390287
0.0390406
0.0390588
0.0390735
0.0390962
0.0391142
0.0391411
0.0391629
0.0391927
0.0392196
0.0392501
0.0392844
0.039313
0.0393593
0.0393801
0.039441
0.0394532
0.0395421
0.0388261
0.0388493
0.0388566
0.0388633
0.0388722
0.0388814
0.0388943
0.0389063
0.0389236
0.0389385
0.0389602
0.0389784
0.0390042
0.0390259
0.0390549
0.0390811
0.0391115
0.0391442
0.0391733
0.0392172
0.0392389
0.0392982
0.039311
0.0393991
0.0386782
0.0387
0.038707
0.0387134
0.0387222
0.038731
0.0387436
0.0387552
0.0387721
0.0387865
0.0388078
0.0388254
0.0388506
0.0388718
0.0388999
0.0389256
0.038955
0.0389868
0.0390155
0.0390568
0.0390792
0.0391357
0.0391487
0.0392324
0.0386284
0.0386499
0.0386567
0.0386631
0.0386715
0.0386803
0.0386923
0.0387039
0.0387198
0.0387343
0.0387545
0.038772
0.0387961
0.038817
0.0388443
0.038869
0.0388982
0.0389284
0.0389572
0.0389961
0.0390194
0.0390735
0.0390872
0.0391697
0.0385619
0.038582
0.0385886
0.0385946
0.0386029
0.0386112
0.038623
0.0386339
0.0386497
0.0386633
0.0386831
0.0386997
0.0387233
0.0387432
0.0387697
0.0387936
0.0388218
0.0388509
0.0388791
0.0389159
0.0389394
0.0389902
0.039004
0.0390817
0.0385847
0.0386047
0.038611
0.038617
0.0386249
0.0386331
0.0386443
0.0386551
0.0386699
0.0386835
0.0387022
0.0387185
0.0387409
0.0387603
0.0387859
0.0388087
0.0388364
0.0388639
0.0388921
0.0389267
0.0389507
0.0389993
0.0390133
0.0390896
0.0385893
0.0386081
0.0386142
0.0386199
0.0386275
0.0386353
0.0386462
0.0386563
0.0386708
0.0386834
0.0387017
0.038717
0.0387388
0.0387571
0.0387818
0.0388037
0.0388303
0.0388566
0.0388837
0.0389166
0.0389406
0.038986
0.0389998
0.0390711
0.0386763
0.038695
0.0387009
0.0387064
0.0387136
0.0387211
0.0387313
0.0387412
0.0387548
0.038767
0.0387842
0.038799
0.0388197
0.0388371
0.038861
0.0388815
0.0389075
0.0389321
0.0389589
0.0389896
0.0390141
0.0390568
0.0390715
0.0391412
0.0387451
0.0387623
0.0387678
0.038773
0.0387799
0.0387868
0.0387967
0.0388057
0.0388188
0.0388301
0.0388466
0.0388603
0.0388801
0.0388965
0.0389191
0.0389386
0.0389633
0.0389866
0.0390122
0.039041
0.0390651
0.0391044
0.0391192
0.0391835
0.0388894
0.0389063
0.0389117
0.0389167
0.0389232
0.0389299
0.0389391
0.0389477
0.03896
0.0389706
0.0389862
0.0389989
0.0390177
0.0390329
0.0390546
0.0390726
0.0390964
0.039118
0.0391428
0.0391694
0.0391931
0.0392296
0.0392447
0.0393061
0.0390159
0.0390323
0.0390374
0.0390421
0.0390482
0.0390544
0.0390631
0.039071
0.0390826
0.0390923
0.0391069
0.0391187
0.0391363
0.0391502
0.0391706
0.039187
0.0392096
0.0392294
0.0392531
0.0392776
0.0393003
0.0393331
0.039348
0.0394046
0.0392098
0.0392255
0.0392305
0.039235
0.0392408
0.0392467
0.0392549
0.0392623
0.0392733
0.0392823
0.0392961
0.0393068
0.0393235
0.0393361
0.0393554
0.0393703
0.0393919
0.0394098
0.0394327
0.039455
0.0394772
0.0395069
0.039522
0.0395749
0.039392
0.0394072
0.0394119
0.0394161
0.0394216
0.0394271
0.0394349
0.0394418
0.0394522
0.0394605
0.0394737
0.0394835
0.0394992
0.0395106
0.0395285
0.0395418
0.0395616
0.0395775
0.0395987
0.0396185
0.0396398
0.0396659
0.0396811
0.0397296
0.0396184
0.0396332
0.0396375
0.0396415
0.0396465
0.0396515
0.0396585
0.0396647
0.0396742
0.0396818
0.039694
0.0397029
0.039718
0.0397285
0.0397461
0.0397584
0.0397781
0.0397928
0.0398137
0.039832
0.0398528
0.0398769
0.0398921
0.0399379
0.0398669
0.039881
0.0398851
0.0398888
0.0398934
0.0398978
0.0399043
0.0399097
0.0399183
0.0399247
0.0399357
0.0399431
0.0399565
0.0399649
0.0399805
0.0399903
0.0400077
0.0400194
0.0400381
0.0400531
0.040072
0.0400923
0.0401068
0.0401471
0.0401335
0.0401474
0.0401513
0.0401547
0.040159
0.040163
0.0401689
0.0401737
0.0401817
0.0401873
0.0401977
0.0402042
0.0402169
0.0402244
0.0402393
0.040248
0.0402648
0.0402752
0.0402932
0.0403064
0.0403246
0.0403424
0.0403574
0.0403936
0.0404236
0.0404369
0.0404406
0.0404437
0.0404476
0.0404511
0.0404565
0.0404606
0.0404678
0.0404725
0.0404818
0.0404871
0.0404985
0.0405045
0.0405181
0.0405249
0.0405402
0.0405483
0.0405648
0.0405753
0.0405919
0.0406062
0.0406205
0.0406517
0.0407276
0.0407402
0.0407437
0.0407465
0.0407501
0.0407532
0.0407581
0.0407617
0.0407683
0.0407723
0.040781
0.0407854
0.0407962
0.0408011
0.0408139
0.0408195
0.040834
0.0408408
0.0408565
0.0408652
0.0408811
0.0408931
0.0409068
0.0409339
0.0410563
0.041069
0.0410723
0.0410748
0.0410778
0.0410804
0.0410845
0.0410872
0.0410927
0.0410955
0.0411028
0.0411058
0.0411149
0.041118
0.0411291
0.0411325
0.0411453
0.0411495
0.0411637
0.0411696
0.0411842
0.0411934
0.0412062
0.0412294
0.0414027
0.0414145
0.0414175
0.0414198
0.0414225
0.0414248
0.0414286
0.0414308
0.041436
0.0414382
0.0414449
0.0414471
0.0414556
0.0414577
0.0414679
0.04147
0.0414818
0.0414842
0.0414972
0.0415007
0.0415141
0.0415198
0.0415316
0.0415491
0.0417662
0.041778
0.0417808
0.0417828
0.0417851
0.0417867
0.0417898
0.0417911
0.0417953
0.0417964
0.0418019
0.0418027
0.0418099
0.0418103
0.0418192
0.0418193
0.0418299
0.0418303
0.0418422
0.0418437
0.0418563
0.04186
0.0418714
0.0418857
0.042153
0.0421641
0.0421667
0.0421685
0.0421704
0.0421717
0.0421743
0.0421751
0.0421786
0.042179
0.0421837
0.0421834
0.0421896
0.0421885
0.0421962
0.0421944
0.0422035
0.0422013
0.0422117
0.0422097
0.0422207
0.0422202
0.0422303
0.0422397
0.0425519
0.0425626
0.042565
0.0425665
0.042568
0.0425689
0.0425708
0.042571
0.0425738
0.0425733
0.0425771
0.0425758
0.0425811
0.0425789
0.0425857
0.0425826
0.042591
0.0425871
0.0425969
0.0425929
0.0426034
0.0426005
0.04261
0.0426162
0.0429746
0.0429853
0.0429874
0.0429886
0.0429897
0.0429901
0.0429914
0.0429908
0.0429927
0.0429912
0.0429939
0.0429912
0.0429951
0.0429911
0.0429964
0.042991
0.0429978
0.0429911
0.0429995
0.042992
0.0430013
0.0429942
0.0430029
0.0430043
0.043411
0.0434208
0.0434228
0.0434237
0.0434246
0.0434245
0.0434254
0.0434244
0.0434257
0.0434235
0.0434256
0.0434221
0.0434253
0.0434203
0.0434248
0.0434181
0.0434242
0.0434157
0.0434235
0.0434135
0.0434224
0.0434118
0.0434201
0.0434166
0.0438664
0.0438764
0.0438781
0.0438788
0.0438791
0.0438785
0.0438786
0.0438768
0.0438771
0.0438738
0.0438747
0.0438698
0.0438716
0.0438649
0.043868
0.0438592
0.0438639
0.043853
0.0438596
0.0438467
0.0438551
0.0438411
0.0438497
0.0438419
0.0443404
0.0443496
0.0443511
0.0443516
0.0443516
0.0443507
0.0443504
0.044348
0.0443477
0.0443437
0.0443439
0.044338
0.0443389
0.044331
0.0443331
0.0443226
0.0443263
0.044313
0.0443187
0.0443025
0.0443102
0.0442917
0.0443006
0.0442867
0.0448282
0.0448372
0.0448385
0.0448387
0.0448383
0.0448369
0.0448359
0.0448328
0.0448316
0.0448267
0.0448258
0.0448188
0.0448186
0.0448092
0.0448102
0.044798
0.0448008
0.0447854
0.0447906
0.0447718
0.0447795
0.0447575
0.0447672
0.0447491
0.0453374
0.0453461
0.0453471
0.0453471
0.0453463
0.0453444
0.0453429
0.0453392
0.0453372
0.0453314
0.0453295
0.0453213
0.04532
0.0453089
0.0453087
0.0452943
0.0452959
0.0452777
0.0452819
0.0452592
0.0452666
0.0452396
0.0452493
0.0452259
0.045859
0.0458672
0.0458681
0.0458678
0.0458666
0.0458644
0.0458623
0.045858
0.0458554
0.0458488
0.0458461
0.0458369
0.0458348
0.0458225
0.0458215
0.0458056
0.0458066
0.0457861
0.0457901
0.0457642
0.0457729
0.0457413
0.0457513
0.0457235
0.0464004
0.0464086
0.0464092
0.0464086
0.046407
0.0464043
0.0464015
0.0463965
0.046393
0.0463853
0.0463816
0.046371
0.0463677
0.0463536
0.0463514
0.0463331
0.0463331
0.0463096
0.0463132
0.0462834
0.0462917
0.0462564
0.046266
0.046234
0.0469568
0.0469643
0.0469648
0.046964
0.046962
0.046959
0.0469557
0.0469502
0.0469461
0.0469378
0.0469334
0.0469218
0.0469178
0.0469023
0.0468996
0.0468792
0.0468789
0.0468527
0.0468563
0.0468227
0.0468308
0.0467919
0.0468009
0.0467641
0.0475288
0.0475363
0.0475365
0.0475355
0.0475331
0.0475296
0.0475256
0.0475194
0.0475144
0.0475051
0.0474998
0.0474869
0.0474819
0.0474646
0.0474612
0.0474384
0.0474379
0.0474084
0.0474123
0.0473755
0.047383
0.0473412
0.0473499
0.0473094
0.0481189
0.0481259
0.0481259
0.0481246
0.0481219
0.0481181
0.0481136
0.0481068
0.0481013
0.0480911
0.0480851
0.0480709
0.0480654
0.0480461
0.0480424
0.0480169
0.0480164
0.0479833
0.0479869
0.0479471
0.0479533
0.047908
0.0479159
0.0478707
0.0487217
0.0487284
0.0487283
0.0487268
0.0487237
0.0487195
0.0487144
0.0487071
0.0487008
0.0486898
0.0486832
0.0486676
0.0486619
0.0486404
0.0486372
0.0486086
0.0486086
0.0485732
0.0485759
0.0485342
0.0485396
0.0484918
0.0484992
0.0484503
0.0493428
0.0493493
0.0493489
0.0493472
0.0493437
0.0493392
0.0493335
0.0493256
0.0493187
0.0493065
0.0492996
0.049282
0.0492764
0.0492521
0.0492489
0.0492179
0.0492166
0.0491792
0.0491804
0.0491363
0.0491404
0.0490896
0.0490962
0.0490433
0.0499769
0.049983
0.0499824
0.0499807
0.0499768
0.0499721
0.0499659
0.0499574
0.0499502
0.0499369
0.0499302
0.0499106
0.0499054
0.0498795
0.0498755
0.0498434
0.049841
0.0498023
0.0498023
0.0497563
0.0497595
0.0497059
0.0497119
0.0496551
0.0506265
0.0506326
0.0506316
0.0506299
0.0506255
0.0506206
0.0506137
0.0506047
0.0505972
0.0505823
0.0505755
0.0505545
0.0505482
0.0505212
0.0505159
0.0504825
0.0504788
0.0504384
0.0504372
0.0503893
0.0503913
0.0503354
0.0503408
0.0502806
0.0512913
0.051297
0.0512956
0.0512942
0.0512889
0.0512843
0.0512768
0.0512673
0.0512596
0.0512441
0.0512365
0.0512149
0.0512077
0.0511798
0.0511735
0.051139
0.0511341
0.0510923
0.0510898
0.0510399
0.0510408
0.0509821
0.0509867
0.0509226
0.0519685
0.051974
0.0519724
0.0519709
0.0519652
0.0519605
0.0519521
0.0519429
0.051934
0.0519182
0.0519098
0.0518874
0.0518794
0.0518507
0.0518434
0.0518079
0.0518019
0.051759
0.0517554
0.0517041
0.0517041
0.0516435
0.0516475
0.0515805
0.0526615
0.0526668
0.0526651
0.0526633
0.0526577
0.0526525
0.0526436
0.0526347
0.0526241
0.0526086
0.0525992
0.0525763
0.0525674
0.0525378
0.0525294
0.0524929
0.0524856
0.0524414
0.0524365
0.0523834
0.0523822
0.0523192
0.0523224
0.052252
0.0533659
0.0533709
0.0533692
0.0533671
0.0533615
0.053356
0.0533469
0.0533378
0.0533261
0.0533115
0.0533002
0.0532776
0.053268
0.0532377
0.0532286
0.0531914
0.0531832
0.0531381
0.0531323
0.0530779
0.0530759
0.053011
0.0530137
0.0529403
0.0540845
0.0540893
0.0540876
0.0540854
0.0540795
0.0540738
0.0540644
0.054055
0.0540425
0.0540282
0.0540153
0.0539933
0.0539818
0.0539513
0.0539412
0.0539031
0.0538938
0.0538476
0.0538407
0.053785
0.0537819
0.0537153
0.0537173
0.0536414
0.0548155
0.05482
0.0548181
0.0548158
0.0548099
0.0548041
0.0547944
0.054785
0.054772
0.0547579
0.0547438
0.0547224
0.0547094
0.0546792
0.0546681
0.0546294
0.0546192
0.0545723
0.0545644
0.0545075
0.0545035
0.0544351
0.0544365
0.0543577
0.055558
0.0555624
0.0555605
0.0555581
0.055552
0.0555461
0.0555361
0.0555265
0.0555131
0.055499
0.0554838
0.0554628
0.0554483
0.0554186
0.055406
0.055367
0.055356
0.0553085
0.0552997
0.0552419
0.0552371
0.0551675
0.0551683
0.0550875
0.0563139
0.056318
0.0563161
0.0563136
0.0563075
0.0563014
0.0562913
0.0562816
0.0562677
0.0562538
0.0562377
0.0562169
0.0562012
0.0561717
0.0561579
0.0561185
0.0561067
0.0560584
0.0560486
0.0559898
0.055984
0.0559129
0.055913
0.0558298
0.05708
0.0570839
0.0570819
0.0570794
0.0570732
0.0570671
0.0570568
0.057047
0.0570328
0.0570189
0.0570021
0.0569816
0.0569649
0.0569356
0.0569206
0.0568815
0.0568688
0.05682
0.0568096
0.0567501
0.0567437
0.0566715
0.056671
0.0565861
0.0578588
0.0578625
0.0578605
0.057858
0.0578516
0.0578454
0.0578349
0.057825
0.0578103
0.0577963
0.0577787
0.0577584
0.0577406
0.0577114
0.0576953
0.057656
0.0576422
0.0575928
0.0575815
0.0575212
0.057514
0.0574409
0.0574398
0.0573533
0.0586484
0.0586518
0.0586497
0.0586472
0.0586406
0.0586344
0.0586236
0.0586137
0.0585987
0.0585846
0.0585663
0.0585462
0.0585275
0.0584984
0.0584815
0.058442
0.0584277
0.0583777
0.0583657
0.0583048
0.0582968
0.0582228
0.0582211
0.0581331
0.0594489
0.0594522
0.0594499
0.0594474
0.0594406
0.0594342
0.059423
0.0594128
0.0593973
0.059383
0.0593639
0.0593438
0.0593241
0.0592951
0.0592772
0.0592375
0.0592223
0.0591719
0.0591592
0.0590979
0.0590893
0.0590148
0.0590126
0.0589235
0.0602608
0.0602639
0.0602614
0.0602587
0.0602517
0.060245
0.0602335
0.060223
0.060207
0.0601924
0.0601725
0.0601525
0.0601316
0.0601028
0.0600837
0.060044
0.0600279
0.0599772
0.0599638
0.0599018
0.0598925
0.0598173
0.0598145
0.0597244
0.0610815
0.0610844
0.0610818
0.0610789
0.0610716
0.0610646
0.0610527
0.0610418
0.0610252
0.0610103
0.0609897
0.0609697
0.0609475
0.0609191
0.0608987
0.0608592
0.0608421
0.0607915
0.0607776
0.0607154
0.0607056
0.0606301
0.0606268
0.060536
0.0619118
0.0619144
0.0619117
0.0619086
0.0619011
0.0618938
0.0618815
0.0618701
0.0618531
0.0618378
0.0618164
0.0617964
0.0617728
0.0617448
0.0617227
0.0616839
0.0616654
0.0616147
0.0616003
0.0615379
0.0615273
0.0614516
0.0614478
0.0613565
0.0627483
0.0627507
0.062748
0.0627447
0.0627372
0.0627297
0.0627173
0.0627057
0.0626884
0.0626729
0.062651
0.062631
0.0626064
0.0625792
0.0625555
0.0625177
0.0624978
0.0624476
0.0624324
0.06237
0.0623591
0.0622833
0.0622792
0.0621875
0.0635895
0.0635918
0.0635892
0.063586
0.0635786
0.0635711
0.0635588
0.0635473
0.06353
0.0635146
0.0634926
0.0634728
0.0634475
0.0634209
0.0633958
0.0633592
0.0633376
0.0632886
0.0632723
0.0632103
0.063199
0.0631234
0.0631193
0.0630276
0.0644337
0.0644359
0.0644335
0.0644306
0.0644237
0.0644167
0.0644049
0.064394
0.0643773
0.0643625
0.0643409
0.0643218
0.0642965
0.064271
0.064245
0.0642099
0.0641868
0.0641392
0.0641219
0.06406
0.0640486
0.063973
0.0639689
0.0638772
0.0652783
0.0652804
0.0652785
0.0652761
0.0652698
0.0652637
0.0652529
0.0652431
0.0652275
0.0652139
0.0651934
0.0651756
0.0651511
0.0651271
0.0651012
0.0650681
0.065044
0.0649984
0.0649795
0.0649196
0.0649076
0.0648321
0.0648282
0.0647368
0.0661245
0.0661266
0.0661251
0.0661234
0.0661181
0.0661132
0.0661036
0.0660953
0.0660812
0.0660694
0.0660504
0.0660346
0.0660116
0.0659896
0.0659647
0.065934
0.0659098
0.0658667
0.0658474
0.0657881
0.0657765
0.0657006
0.0656968
0.0656052
0.0669728
0.0669751
0.066974
0.0669731
0.0669687
0.066965
0.0669568
0.0669501
0.0669376
0.0669279
0.0669109
0.0668975
0.0668764
0.066857
0.0668341
0.0668061
0.0667834
0.0667432
0.0667248
0.0666672
0.0666567
0.0665804
0.0665768
0.0664838
0.0678282
0.0678308
0.0678297
0.0678298
0.0678256
0.0678233
0.0678156
0.0678107
0.0677991
0.0677915
0.0677758
0.0677648
0.0677454
0.0677285
0.0677083
0.0676821
0.0676631
0.067624
0.0676098
0.0675531
0.0675461
0.0674708
0.0674681
0.0673745
0.0686975
0.0687006
0.0686987
0.0687002
0.0686947
0.0686944
0.0686851
0.0686828
0.0686699
0.0686647
0.0686486
0.0686397
0.0686212
0.0686057
0.0685892
0.0685609
0.0685504
0.0685067
0.0685015
0.068443
0.068442
0.0683688
0.0683695
0.0682809
0.0695886
0.0695912
0.0695901
0.0695898
0.0695856
0.0695827
0.0695749
0.0695697
0.0695581
0.0695508
0.0695352
0.0695256
0.0695064
0.0694928
0.069475
0.0694481
0.0694383
0.0693965
0.0693927
0.0693359
0.0693386
0.0692672
0.0692725
0.0691912
0.0705111
0.0705132
0.0705116
0.0705105
0.0705051
0.0705007
0.0704912
0.070484
0.0704703
0.0704606
0.0704427
0.0704308
0.0704093
0.0703946
0.0703718
0.0703488
0.0703327
0.0702931
0.0702885
0.0702309
0.0702359
0.0701627
0.0701713
0.0700902
0.0714716
0.0714734
0.071471
0.0714688
0.0714615
0.0714551
0.0714428
0.0714327
0.0714153
0.0714021
0.07138
0.071364
0.0713379
0.071319
0.0712908
0.0712656
0.0712429
0.0712031
0.0711936
0.0711328
0.0711383
0.0710603
0.0710712
0.0709859
0.0724754
0.0724775
0.0724735
0.0724706
0.0724608
0.0724524
0.0724365
0.0724234
0.0724012
0.0723839
0.0723558
0.0723347
0.0723017
0.0722767
0.0722407
0.0722094
0.0721794
0.0721319
0.0721174
0.0720487
0.0720516
0.0719655
0.0719772
0.0718838
0.0735246
0.0735269
0.0735218
0.0735177
0.0735062
0.0734955
0.0734766
0.0734602
0.0734334
0.0734121
0.0733773
0.0733518
0.0733096
0.0732792
0.0732338
0.0731925
0.0731548
0.0730947
0.073072
0.0729909
0.0729868
0.072888
0.0728974
0.0727905
0.0746172
0.0746188
0.0746141
0.0746081
0.074596
0.0745827
0.0745625
0.0745422
0.0745135
0.0744865
0.0744493
0.0744159
0.0743702
0.0743307
0.074277
0.0742313
0.0741743
0.0741113
0.0740709
0.0739779
0.0739598
0.0738431
0.0738448
0.0737166
0.0757484
0.0757497
0.0757449
0.0757383
0.0757255
0.075711
0.0756894
0.0756674
0.0756366
0.0756071
0.0755669
0.0755299
0.07548
0.0754355
0.0753761
0.0753233
0.0752559
0.0751913
0.075124
0.0750335
0.0749888
0.0748553
0.074841
0.0746805
0.0769111
0.0769122
0.0769075
0.0769006
0.0768876
0.0768728
0.0768507
0.0768281
0.0767965
0.076766
0.0767246
0.0766862
0.0766344
0.0765878
0.0765256
0.0764695
0.0763978
0.0763289
0.0762511
0.0761618
0.0760884
0.0759574
0.0759165
0.075719
0.0780969
0.078098
0.0780935
0.0780868
0.0780741
0.0780595
0.0780377
0.0780153
0.077984
0.0779539
0.0779126
0.0778745
0.077823
0.0777766
0.0777144
0.0776587
0.0775867
0.0775179
0.0774393
0.077351
0.0772715
0.0771478
0.0770899
0.0768802
0.0792979
0.0792993
0.0792951
0.079289
0.0792767
0.0792629
0.0792417
0.0792205
0.07919
0.0791613
0.0791211
0.0790848
0.0790346
0.0789903
0.0789299
0.0788766
0.0788068
0.0787408
0.0786667
0.0785794
0.0785115
0.0783857
0.0783438
0.0781604
0.0805057
0.0805074
0.0805035
0.0804981
0.0804865
0.0804739
0.0804537
0.0804341
0.080405
0.0803783
0.0803399
0.0803061
0.0802582
0.0802168
0.0801593
0.0801096
0.0800432
0.0799818
0.079912
0.0798301
0.0797678
0.0796495
0.0796103
0.0794409
0.0817133
0.0817153
0.0817118
0.0817072
0.0816964
0.0816851
0.0816661
0.0816484
0.0816208
0.0815967
0.0815602
0.0815295
0.081484
0.0814464
0.081392
0.0813465
0.0812841
0.0812279
0.0811623
0.0810868
0.0810291
0.0809203
0.0808832
0.0807272
0.0829144
0.0829169
0.0829134
0.0829102
0.0828998
0.0828904
0.0828723
0.0828571
0.0828307
0.0828099
0.082775
0.0827483
0.0827048
0.0826719
0.0826203
0.0825797
0.0825211
0.0824706
0.0824094
0.08234
0.0822871
0.0821875
0.0821527
0.08201
0.0841032
0.0841061
0.0841023
0.084101
0.0840901
0.0840838
0.0840653
0.0840541
0.0840275
0.0840116
0.0839766
0.083956
0.0839127
0.0838865
0.0838359
0.0838021
0.0837464
0.0837019
0.0836456
0.0835824
0.0835335
0.0834439
0.0834111
0.0832818
0.085276
0.0852791
0.0852757
0.0852752
0.0852654
0.0852602
0.0852432
0.0852341
0.0852092
0.0851963
0.0851631
0.0851465
0.0851051
0.0850842
0.0850352
0.0850083
0.0849543
0.0849167
0.0848642
0.0848082
0.0847627
0.0846829
0.0846522
0.0845361
0.0864277
0.0864308
0.0864285
0.0864277
0.0864202
0.0864147
0.0864013
0.0863916
0.0863714
0.0863583
0.0863305
0.0863142
0.0862786
0.086259
0.086216
0.0861917
0.0861431
0.0861111
0.0860609
0.086013
0.085971
0.0859008
0.085872
0.0857685
0.087556
0.0875591
0.0875575
0.087557
0.0875509
0.0875462
0.0875346
0.0875262
0.0875086
0.0874968
0.0874727
0.0874579
0.0874269
0.0874092
0.0873713
0.0873498
0.0873061
0.0872789
0.0872323
0.0871936
0.0871535
0.0870927
0.0870659
0.0869748
0.0886586
0.0886617
0.0886606
0.0886606
0.0886555
0.0886519
0.0886419
0.088635
0.0886197
0.0886098
0.0885886
0.0885761
0.0885486
0.0885336
0.0884999
0.0884818
0.0884425
0.0884197
0.088377
0.0883459
0.0883076
0.0882559
0.088231
0.0881516
0.0897316
0.0897347
0.089734
0.0897345
0.0897304
0.0897278
0.0897193
0.0897138
0.0897005
0.0896926
0.089674
0.089664
0.0896398
0.0896278
0.0895979
0.0895835
0.0895484
0.0895304
0.0894918
0.0894671
0.0894307
0.0893888
0.0893659
0.0892978
0.0907763
0.0907793
0.0907791
0.0907801
0.0907768
0.0907751
0.090768
0.0907639
0.0907524
0.0907464
0.09073
0.0907223
0.0907009
0.0906916
0.090665
0.0906538
0.0906226
0.0906086
0.090574
0.0905548
0.0905208
0.0904875
0.0904667
0.0904094
0.0917874
0.0917904
0.0917906
0.0917921
0.0917897
0.0917889
0.0917831
0.0917805
0.0917708
0.0917668
0.0917529
0.0917476
0.0917291
0.0917228
0.0916996
0.0916919
0.0916644
0.0916545
0.0916239
0.0916099
0.091579
0.091554
0.0915339
0.0914868
0.0927684
0.0927714
0.0927718
0.0927737
0.0927719
0.0927719
0.0927671
0.0927657
0.0927575
0.092755
0.0927428
0.0927395
0.0927233
0.0927193
0.092699
0.0926942
0.0926701
0.0926639
0.0926369
0.0926275
0.0926004
0.0925832
0.0925645
0.0925274
0.0937143
0.0937172
0.093718
0.0937203
0.0937193
0.0937203
0.0937167
0.0937168
0.0937102
0.0937096
0.0936997
0.0936988
0.0936853
0.093684
0.0936666
0.0936649
0.093644
0.0936412
0.0936177
0.0936122
0.0935882
0.0935768
0.0935596
0.09353
0.0946282
0.094631
0.094632
0.0946346
0.0946341
0.0946356
0.0946329
0.0946338
0.0946283
0.0946289
0.0946204
0.094621
0.0946093
0.0946102
0.0945953
0.0945964
0.0945785
0.0945794
0.0945591
0.0945584
0.0945381
0.0945326
0.0945171
0.0944973
0.0955074
0.0955101
0.0955114
0.0955144
0.0955146
0.095517
0.0955154
0.0955177
0.0955138
0.0955162
0.0955098
0.0955127
0.0955033
0.0955065
0.0954941
0.0954976
0.0954823
0.0954858
0.0954684
0.0954706
0.095453
0.0954512
0.095437
0.0954236
0.0963532
0.0963558
0.0963572
0.0963603
0.0963609
0.0963637
0.0963627
0.0963656
0.0963626
0.0963659
0.0963606
0.0963646
0.0963569
0.096362
0.0963518
0.096358
0.0963453
0.0963524
0.0963378
0.0963444
0.0963299
0.0963336
0.0963222
0.0963171
0.0971658
0.0971683
0.09717
0.0971734
0.0971746
0.0971782
0.0971782
0.0971823
0.0971806
0.0971856
0.097182
0.097188
0.0971822
0.0971892
0.097181
0.0971891
0.0971785
0.0971874
0.0971753
0.097184
0.0971716
0.0971779
0.0971682
0.0971679
0.0979438
0.0979462
0.097948
0.0979515
0.097953
0.0979569
0.0979575
0.0979621
0.0979613
0.0979669
0.0979645
0.0979714
0.0979672
0.0979759
0.0979698
0.0979803
0.0979722
0.0979844
0.0979747
0.0979874
0.0979778
0.0979892
0.097982
0.0979883
0.0986912
0.0986934
0.0986953
0.098699
0.098701
0.0987055
0.0987068
0.0987122
0.0987125
0.0987193
0.0987182
0.0987266
0.0987239
0.0987339
0.0987293
0.0987411
0.0987347
0.0987483
0.0987407
0.0987553
0.0987475
0.0987613
0.0987559
0.0987658
0.0994038
0.099406
0.099408
0.0994118
0.0994141
0.0994189
0.0994208
0.0994268
0.0994279
0.0994354
0.0994355
0.0994449
0.0994437
0.0994554
0.0994527
0.0994668
0.0994625
0.0994787
0.0994731
0.0994907
0.0994851
0.0995028
0.0994989
0.099514
0.100087
0.100089
0.100091
0.100095
0.100097
0.100102
0.100105
0.100111
0.100113
0.100121
0.100122
0.100133
0.100133
0.100145
0.100144
0.100159
0.100156
0.100173
0.100169
0.100189
0.100185
0.100205
0.100203
0.100222
0.100738
0.10074
0.100742
0.100746
0.100749
0.100755
0.100758
0.100765
0.100767
0.100776
0.100778
0.10079
0.100791
0.100805
0.100805
0.100822
0.10082
0.10084
0.100837
0.100859
0.100856
0.100879
0.100877
0.100899
0.101359
0.10136
0.101362
0.101367
0.10137
0.101375
0.101379
0.101386
0.101389
0.101399
0.101402
0.101413
0.101416
0.10143
0.101431
0.101449
0.101449
0.10147
0.101469
0.101493
0.101492
0.101517
0.101517
0.101542
0.101952
0.101954
0.101956
0.10196
0.101963
0.101969
0.101973
0.101981
0.101985
0.101994
0.101998
0.102011
0.102014
0.102029
0.102032
0.10205
0.102052
0.102073
0.102074
0.102098
0.102098
0.102125
0.102125
0.102153
0.102515
0.102517
0.102519
0.102523
0.102527
0.102532
0.102537
0.102545
0.102549
0.102559
0.102564
0.102577
0.102581
0.102597
0.102601
0.10262
0.102623
0.102645
0.102647
0.102673
0.102674
0.102703
0.102704
0.102735
0.103051
0.103052
0.103055
0.103059
0.103063
0.103068
0.103073
0.103081
0.103086
0.103097
0.103102
0.103115
0.103121
0.103137
0.103142
0.103162
0.103166
0.103189
0.103192
0.103219
0.103222
0.103252
0.103254
0.103287
0.103564
0.103565
0.103567
0.103571
0.103575
0.103581
0.103587
0.103595
0.103601
0.103611
0.103617
0.10363
0.103637
0.103652
0.103659
0.103678
0.103683
0.103706
0.103711
0.103738
0.103741
0.103772
0.103774
0.103809
0.104044
0.104045
0.104048
0.104052
0.104056
0.104062
0.104067
0.104075
0.104082
0.104092
0.1041
0.104113
0.104121
0.104137
0.104145
0.104165
0.104172
0.104197
0.104203
0.104232
0.104236
0.104269
0.104272
0.104309
0.10451
0.104511
0.104514
0.104518
0.104522
0.104528
0.104534
0.104542
0.104549
0.104559
0.104567
0.10458
0.104588
0.104604
0.104612
0.104631
0.104639
0.104662
0.104668
0.104695
0.1047
0.104733
0.104736
0.104775
0.104941
0.104942
0.104944
0.104948
0.104952
0.104958
0.104965
0.104973
0.10498
0.104991
0.105
0.105013
0.105023
0.105039
0.105049
0.105069
0.105079
0.105104
0.105113
0.105142
0.105149
0.105183
0.105188
0.105226
0.105362
0.105363
0.105365
0.105369
0.105373
0.105379
0.105385
0.105393
0.105401
0.105411
0.105421
0.105433
0.105443
0.105458
0.105469
0.105487
0.105498
0.10552
0.10553
0.105557
0.105564
0.105598
0.105602
0.105643
0.105749
0.10575
0.105752
0.105756
0.105761
0.105767
0.105773
0.105781
0.10579
0.1058
0.10581
0.105823
0.105835
0.10585
0.105863
0.105882
0.105895
0.105918
0.10593
0.105958
0.105968
0.106002
0.106008
0.106048
0.106126
0.106127
0.106129
0.106133
0.106137
0.106143
0.10615
0.106158
0.106166
0.106176
0.106187
0.106199
0.106211
0.106225
0.106238
0.106256
0.106269
0.10629
0.106303
0.10633
0.10634
0.106373
0.10638
0.106422
0.106475
0.106476
0.106478
0.106482
0.106487
0.106493
0.1065
0.106507
0.106517
0.106527
0.106538
0.10655
0.106563
0.106578
0.106592
0.10661
0.106625
0.106647
0.106661
0.106688
0.1067
0.106733
0.10674
0.106781
0.106812
0.106812
0.106815
0.106818
0.106823
0.106829
0.106836
0.106843
0.106853
0.106862
0.106873
0.106885
0.106898
0.106912
0.106927
0.106944
0.106959
0.10698
0.106995
0.107021
0.107033
0.107067
0.107074
0.107116
0.107126
0.107126
0.107129