/*--------------------------------*- C++ -*----------------------------------*\
  =========                 |
  \\      /  F ield         | OpenFOAM: The Open Source CFD Toolbox
   \\    /   O peration     | Website:  https://openfoam.org
    \\  /    A nd           | Version:  10
     \\/     M anipulation  |
\*---------------------------------------------------------------------------*/
FoamFile
{
    format      ascii;
    class       volScalarField;
    location    "0.06";
    object      T;
}
// * * * * * * * * * * * * * * * * * * * * * * * * * * * * * * * * * * * * * //

dimensions      [0 0 0 1 0 0 0];

internalField   nonuniform List<scalar> 
4176
(
256.158
255.925
255.897
255.885
255.89
255.892
255.91
255.917
255.946
255.957
255.995
256.011
256.058
256.078
256.131
256.161
256.215
256.26
256.31
256.374
256.413
256.504
256.52
256.523
257.544
257.306
257.278
257.266
257.272
257.273
257.293
257.3
257.332
257.343
257.384
257.4
257.451
257.471
257.528
257.56
257.615
257.664
257.715
257.784
257.827
257.925
257.946
257.964
256.348
256.107
256.078
256.065
256.073
256.073
256.095
256.101
256.135
256.144
256.19
256.202
256.258
256.276
256.336
256.367
256.425
256.474
256.527
256.597
256.642
256.742
256.768
256.794
255.732
255.492
255.464
255.452
255.459
255.46
255.483
255.488
255.524
255.533
255.58
255.592
255.65
255.668
255.73
255.761
255.821
255.87
255.925
255.995
256.041
256.142
256.169
256.198
254.303
254.066
254.037
254.026
254.033
254.035
254.057
254.065
254.1
254.111
254.158
254.172
254.231
254.249
254.317
254.343
254.411
254.455
254.517
254.584
254.633
254.732
254.757
254.775
253.204
252.971
252.943
252.932
252.94
252.942
252.965
252.973
253.009
253.021
253.07
253.084
253.145
253.163
253.233
253.26
253.33
253.376
253.439
253.508
253.56
253.662
253.691
253.72
251.395
251.167
251.139
251.129
251.137
251.141
251.165
251.174
251.211
251.224
251.274
251.289
251.353
251.372
251.445
251.471
251.547
251.591
251.658
251.729
251.783
251.886
251.915
251.942
249.914
249.692
249.667
249.657
249.666
249.671
249.695
249.705
249.743
249.757
249.809
249.826
249.89
249.911
249.986
250.014
250.091
250.136
250.208
250.279
250.337
250.444
250.476
250.519
247.791
247.575
247.55
247.542
247.551
247.557
247.582
247.594
247.633
247.649
247.701
247.721
247.787
247.809
247.887
247.916
247.998
248.043
248.119
248.19
248.251
248.359
248.392
248.432
246.011
245.806
245.782
245.775
245.785
245.792
245.818
245.831
245.871
245.889
245.942
245.964
246.031
246.056
246.135
246.166
246.251
246.296
246.377
246.449
246.514
246.626
246.662
246.719
243.674
243.475
243.452
243.447
243.457
243.466
243.492
243.507
243.547
243.567
243.622
243.645
243.714
243.742
243.823
243.856
243.944
243.991
244.075
244.147
244.216
244.327
244.365
244.42
241.72
241.531
241.51
241.506
241.517
241.527
241.554
241.571
241.612
241.633
241.689
241.715
241.784
241.814
241.896
241.931
242.022
242.069
242.158
242.232
242.304
242.419
242.46
242.532
239.305
239.122
239.102
239.099
239.111
239.122
239.15
239.167
239.21
239.233
239.289
239.317
239.388
239.42
239.503
239.541
239.634
239.683
239.774
239.848
239.923
240.037
240.079
240.149
237.322
237.151
237.132
237.13
237.143
237.154
237.183
237.202
237.245
237.269
237.327
237.356
237.427
237.461
237.546
237.584
237.68
237.728
237.823
237.898
237.975
238.093
238.138
238.224
234.974
234.808
234.791
234.789
234.803
234.814
234.845
234.863
234.909
234.932
234.993
235.021
235.095
235.129
235.215
235.255
235.351
235.401
235.497
235.572
235.651
235.768
235.813
235.894
233.1
232.945
232.93
232.929
232.944
232.955
232.987
233.005
233.052
233.074
233.137
233.164
233.242
233.273
233.363
233.4
233.5
233.548
233.647
233.722
233.803
233.921
233.969
234.065
230.939
230.788
230.774
230.772
230.789
230.799
230.834
230.849
230.9
230.919
230.986
231.009
231.092
231.119
231.213
231.249
231.349
231.398
231.496
231.571
231.652
231.768
231.815
231.904
229.272
229.131
229.119
229.118
229.136
229.145
229.181
229.195
229.247
229.265
229.335
229.355
229.441
229.464
229.563
229.593
229.699
229.744
229.843
229.918
230
230.116
230.166
230.266
227.369
227.232
227.221
227.219
227.237
227.247
227.282
227.297
227.349
227.366
227.436
227.455
227.541
227.564
227.662
227.692
227.797
227.842
227.941
228.014
228.096
228.207
228.256
228.348
225.96
225.833
225.822
225.822
225.838
225.85
225.883
225.899
225.948
225.968
226.034
226.056
226.139
226.162
226.26
226.287
226.393
226.434
226.536
226.606
226.689
226.8
226.85
226.951
224.344
224.22
224.209
224.209
224.225
224.237
224.268
224.285
224.332
224.353
224.416
224.439
224.519
224.543
224.636
224.667
224.768
224.809
224.91
224.976
225.058
225.163
225.212
225.302
223.201
223.085
223.075
223.077
223.091
223.104
223.133
223.152
223.195
223.218
223.277
223.302
223.377
223.403
223.493
223.521
223.623
223.659
223.762
223.823
223.906
224.01
224.061
224.158
221.867
221.753
221.743
221.744
221.758
221.771
221.799
221.817
221.859
221.88
221.938
221.961
222.035
222.059
222.146
222.175
222.272
222.307
222.407
222.463
222.547
222.643
222.692
222.778
220.976
220.87
220.86
220.863
220.875
220.888
220.914
220.933
220.972
220.994
221.048
221.072
221.141
221.165
221.25
221.275
221.372
221.403
221.504
221.553
221.639
221.731
221.782
221.874
219.901
219.797
219.788
219.79
219.803
219.814
219.84
219.856
219.896
219.914
219.968
219.988
220.056
220.078
220.159
220.184
220.275
220.305
220.402
220.447
220.531
220.615
220.664
220.743
219.235
219.138
219.13
219.132
219.144
219.156
219.18
219.196
219.232
219.252
219.302
219.322
219.386
219.407
219.485
219.506
219.597
219.622
219.718
219.757
219.842
219.922
219.971
220.054
218.39
218.294
218.286
218.288
218.299
218.31
218.334
218.348
218.385
218.401
218.451
218.468
218.531
218.549
218.624
218.643
218.728
218.752
218.842
218.878
218.961
219.031
219.077
219.146
217.918
217.831
217.823
217.825
217.836
217.846
217.868
217.883
217.917
217.934
217.98
217.997
218.056
218.072
218.145
218.16
218.245
218.262
218.352
218.382
218.464
218.528
218.576
218.648
217.287
217.202
217.194
217.196
217.207
217.217
217.239
217.252
217.285
217.3
217.344
217.359
217.417
217.431
217.5
217.513
217.593
217.608
217.693
217.718
217.797
217.852
217.898
217.961
216.977
216.895
216.888
216.89
216.899
216.909
216.929
216.943
216.976
216.991
217.034
217.048
217.104
217.116
217.185
217.196
217.274
217.286
217.37
217.391
217.468
217.519
217.565
217.623
216.536
216.459
216.451
216.452
216.46
216.468
216.486
216.495
216.522
216.533
216.574
216.587
216.641
216.652
216.718
216.728
216.802
216.812
216.891
216.909
216.984
217.029
217.072
217.127
216.332
216.258
216.25
216.25
216.257
216.263
216.278
216.286
216.31
216.318
216.352
216.359
216.407
216.413
216.475
216.482
216.558
216.569
216.65
216.669
216.743
216.786
216.83
216.882
216.182
216.11
216.103
216.104
216.111
216.116
216.132
216.14
216.164
216.171
216.205
216.211
216.255
216.257
216.311
216.31
216.374
216.372
216.441
216.448
216.514
216.543
216.582
216.623
216.097
216.029
216.021
216.021
216.027
216.032
216.045
216.051
216.072
216.078
216.109
216.112
216.153
216.153
216.206
216.203
216.265
216.264
216.334
216.34
216.406
216.432
216.473
216.508
216.07
216.003
215.996
215.996
216.001
216.005
216.017
216.022
216.042
216.046
216.075
216.076
216.116
216.113
216.163
216.158
216.217
216.211
216.275
216.275
216.335
216.354
216.39
216.419
216.075
216.012
216.004
216.004
216.008
216.012
216.023
216.027
216.045
216.048
216.075
216.075
216.113
216.11
216.158
216.151
216.208
216.2
216.262
216.26
216.318
216.334
216.371
216.394
216.186
216.127
216.119
216.118
216.122
216.123
216.132
216.134
216.149
216.148
216.171
216.167
216.199
216.19
216.232
216.217
216.268
216.252
216.307
216.296
216.347
216.353
216.386
216.4
216.323
216.264
216.256
216.255
216.258
216.26
216.268
216.27
216.284
216.284
216.306
216.302
216.334
216.324
216.366
216.351
216.401
216.383
216.438
216.424
216.474
216.475
216.505
216.51
216.527
216.473
216.465
216.463
216.465
216.465
216.47
216.469
216.48
216.476
216.494
216.485
216.512
216.497
216.534
216.513
216.559
216.535
216.585
216.566
216.613
216.61
216.638
216.641
216.791
216.737
216.729
216.727
216.728
216.728
216.733
216.732
216.742
216.737
216.755
216.745
216.77
216.753
216.788
216.764
216.806
216.778
216.824
216.798
216.839
216.826
216.849
216.839
217.081
217.03
217.023
217.021
217.02
217.019
217.022
217.019
217.027
217.019
217.034
217.021
217.044
217.024
217.056
217.03
217.069
217.039
217.084
217.056
217.096
217.083
217.104
217.093
217.45
217.401
217.394
217.391
217.39
217.388
217.39
217.385
217.391
217.382
217.394
217.378
217.397
217.374
217.401
217.369
217.404
217.366
217.405
217.368
217.402
217.378
217.395
217.374
217.835
217.787
217.779
217.776
217.775
217.772
217.773
217.768
217.773
217.762
217.773
217.756
217.774
217.75
217.776
217.743
217.777
217.738
217.776
217.737
217.771
217.743
217.758
217.732
218.284
218.24
218.232
218.229
218.226
218.222
218.221
218.214
218.216
218.203
218.21
218.189
218.203
218.173
218.195
218.156
218.186
218.14
218.174
218.127
218.157
218.122
218.135
218.102
218.767
218.723
218.715
218.712
218.709
218.704
218.703
218.695
218.697
218.683
218.689
218.668
218.681
218.65
218.67
218.63
218.658
218.608
218.64
218.588
218.616
218.572
218.583
218.54
219.285
219.245
219.237
219.233
219.229
219.223
219.22
219.209
219.208
219.192
219.195
219.171
219.18
219.146
219.163
219.118
219.144
219.09
219.12
219.064
219.091
219.043
219.054
219.007
219.857
219.818
219.81
219.806
219.801
219.795
219.791
219.78
219.778
219.76
219.762
219.735
219.742
219.705
219.72
219.671
219.693
219.633
219.66
219.596
219.62
219.561
219.571
219.512
220.445
220.408
220.4
220.395
220.39
220.383
220.377
220.365
220.361
220.342
220.342
220.314
220.319
220.28
220.293
220.242
220.263
220.201
220.227
220.159
220.184
220.12
220.131
220.068
221.089
221.055
221.047
221.042
221.036
221.027
221.021
221.007
221.001
220.98
220.977
220.946
220.948
220.905
220.915
220.858
220.876
220.807
220.83
220.754
220.777
220.703
220.713
220.641
221.753
221.719
221.711
221.705
221.699
221.69
221.683
221.668
221.662
221.639
221.636
221.603
221.605
221.56
221.569
221.51
221.527
221.455
221.478
221.396
221.42
221.339
221.348
221.269
222.455
222.424
222.416
222.411
222.403
222.393
222.384
222.368
222.359
222.334
222.328
222.292
222.292
222.242
222.249
222.185
222.2
222.121
222.144
222.055
222.079
221.991
222
221.916
223.192
223.161
223.153
223.147
223.139
223.129
223.12
223.103
223.093
223.067
223.06
223.023
223.021
222.969
222.974
222.907
222.921
222.837
222.859
222.763
222.784
222.69
222.695
222.603
223.949
223.92
223.912
223.906
223.897
223.886
223.875
223.857
223.846
223.818
223.809
223.769
223.766
223.711
223.716
223.643
223.658
223.569
223.591
223.492
223.512
223.414
223.419
223.323
224.747
224.721
224.712
224.706
224.697
224.685
224.673
224.654
224.641
224.612
224.602
224.559
224.554
224.495
224.499
224.421
224.435
224.34
224.359
224.253
224.271
224.166
224.168
224.064
225.56
225.535
225.527
225.52
225.51
225.498
225.485
225.466
225.452
225.421
225.411
225.366
225.361
225.299
225.304
225.223
225.236
225.139
225.157
225.049
225.065
224.956
224.957
224.848
226.408
226.385
226.377
226.37
226.359
226.347
226.333
226.311
226.297
226.264
226.252
226.203
226.198
226.131
226.134
226.049
226.06
225.959
225.974
225.861
225.875
225.761
225.761
225.647
227.278
227.255
227.247
227.24
227.229
227.216
227.202
227.18
227.165
227.13
227.119
227.068
227.063
226.994
226.996
226.91
226.918
226.815
226.828
226.712
226.724
226.605
226.603
226.483
228.167
228.147
228.138
228.132
228.12
228.107
228.091
228.068
228.052
228.015
228.003
227.95
227.943
227.873
227.872
227.784
227.79
227.685
227.696
227.578
227.588
227.466
227.464
227.34
229.086
229.067
229.059
229.052
229.039
229.027
229.01
228.987
228.97
228.932
228.919
228.865
228.856
228.784
228.782
228.691
228.695
228.587
228.596
228.474
228.481
228.354
228.35
228.221
230.017
229.999
229.991
229.984
229.971
229.958
229.94
229.917
229.899
229.861
229.846
229.792
229.782
229.709
229.705
229.614
229.617
229.508
229.515
229.392
229.398
229.269
229.264
229.131
230.975
230.959
230.951
230.944
230.93
230.917
230.898
230.876
230.854
230.818
230.8
230.745
230.733
230.659
230.653
230.56
230.56
230.449
230.453
230.327
230.331
230.198
230.192
230.055
231.946
231.931
231.923
231.916
231.903
231.889
231.87
231.847
231.825
231.789
231.77
231.716
231.703
231.628
231.621
231.528
231.527
231.414
231.417
231.29
231.292
231.157
231.15
231.008
232.935
232.922
232.914
232.907
232.893
232.879
232.859
232.836
232.813
232.778
232.755
232.702
232.686
232.611
232.603
232.508
232.505
232.392
232.393
232.264
232.265
232.128
232.12
231.976
233.942
233.93
233.922
233.915
233.902
233.888
233.868
233.845
233.821
233.786
233.762
233.71
233.692
233.618
233.607
233.513
233.508
233.393
233.393
233.262
233.262
233.121
233.112
232.964
234.959
234.949
234.941
234.934
234.92
234.906
234.886
234.863
234.838
234.804
234.778
234.727
234.707
234.634
234.621
234.527
234.521
234.406
234.405
234.274
234.273
234.131
234.122
233.972
235.996
235.987
235.979
235.972
235.959
235.944
235.924
235.901
235.875
235.841
235.815
235.764
235.741
235.669
235.654
235.559
235.552
235.436
235.433
235.3
235.298
235.153
235.144
234.991
237.041
237.033
237.026
237.019
237.005
236.991
236.971
236.947
236.922
236.888
236.86
236.81
236.787
236.715
236.7
236.605
236.597
236.481
236.478
236.344
236.341
236.195
236.185
236.031
238.101
238.094
238.087
238.08
238.066
238.052
238.031
238.008
237.982
237.947
237.919
237.869
237.844
237.772
237.755
237.66
237.651
237.534
237.53
237.395
237.391
237.245
237.235
237.079
239.173
239.167
239.16
239.153
239.139
239.125
239.104
239.081
239.054
239.02
238.991
238.941
238.915
238.844
238.826
238.731
238.721
238.603
238.598
238.462
238.458
238.31
238.299
238.142
240.253
240.248
240.241
240.234
240.22
240.205
240.184
240.16
240.133
240.099
240.068
240.019
239.992
239.921
239.901
239.807
239.796
239.678
239.673
239.537
239.533
239.384
239.374
239.216
241.346
241.343
241.336
241.329
241.314
241.299
241.278
241.253
241.226
241.191
241.159
241.11
241.081
241.011
240.989
240.895
240.883
240.764
240.758
240.622
240.616
240.467
240.456
240.297
242.444
242.441
242.434
242.427
242.413
242.397
242.375
242.35
242.322
242.287
242.255
242.206
242.175
242.106
242.083
241.99
241.977
241.858
241.852
241.716
241.71
241.561
241.55
241.391
243.549
243.548
243.541
243.534
243.519
243.503
243.481
243.455
243.427
243.391
243.358
243.309
243.276
243.208
243.183
243.09
243.075
242.958
242.951
242.815
242.808
242.659
242.649
242.49
244.657
244.656
244.65
244.642
244.628
244.612
244.59
244.564
244.536
244.5
244.467
244.418
244.385
244.318
244.291
244.2
244.183
244.067
244.059
243.923
243.917
243.768
243.757
243.599
245.762
245.762
245.757
245.749
245.736
245.72
245.698
245.673
245.645
245.61
245.577
245.529
245.495
245.43
245.401
245.313
245.294
245.18
245.171
245.037
245.03
244.882
244.873
244.715
246.867
246.868
246.863
246.856
246.843
246.828
246.808
246.784
246.757
246.723
246.691
246.645
246.612
246.548
246.519
246.433
246.412
246.302
246.292
246.157
246.151
246.002
245.994
245.837
247.963
247.965
247.961
247.956
247.944
247.93
247.912
247.89
247.865
247.833
247.804
247.76
247.729
247.668
247.64
247.558
247.536
247.429
247.418
247.286
247.281
247.132
247.125
246.968
249.058
249.061
249.058
249.053
249.043
249.031
249.015
248.995
248.972
248.943
248.916
248.875
248.847
248.789
248.763
248.685
248.664
248.561
248.55
248.421
248.416
248.268
248.261
248.105
250.152
250.156
250.153
250.15
250.141
250.131
250.116
250.099
250.079
250.053
250.029
249.991
249.965
249.912
249.889
249.814
249.798
249.698
249.69
249.563
249.562
249.414
249.409
249.251
251.253
251.258
251.255
251.253
251.244
251.236
251.221
251.207
251.187
251.164
251.141
251.107
251.084
251.033
251.015
250.941
250.933
250.832
250.833
250.706
250.712
250.566
250.564
250.41
252.373
252.379
252.376
252.374
252.365
252.357
252.342
252.328
252.309
252.286
252.264
252.231
252.208
252.16
252.144
252.07
252.068
251.966
251.975
251.848
251.861
251.718
251.722
251.575
253.52
253.526
253.523
253.52
253.511
253.501
253.486
253.469
253.45
253.424
253.402
253.367
253.343
253.296
253.277
253.206
253.203
253.103
253.114
252.988
253.006
252.864
252.874
252.734
254.708
254.715
254.711
254.707
254.696
254.683
254.666
254.645
254.623
254.593
254.567
254.528
254.5
254.45
254.425
254.355
254.344
254.245
254.255
254.127
254.147
254.001
254.016
253.875
255.945
255.952
255.947
255.941
255.928
255.912
255.891
255.866
255.839
255.804
255.772
255.727
255.692
255.635
255.602
255.528
255.508
255.404
255.408
255.273
255.293
255.139
255.157
255.008
257.234
257.241
257.235
257.228
257.211
257.193
257.168
257.138
257.105
257.065
257.024
256.973
256.928
256.864
256.82
256.736
256.706
256.591
256.585
256.439
256.453
256.287
256.304
256.142
258.576
258.583
258.576
258.567
258.549
258.527
258.499
258.465
258.427
258.381
258.334
258.275
258.222
258.148
258.092
257.999
257.952
257.827
257.804
257.643
257.644
257.459
257.471
257.287
259.964
259.971
259.964
259.953
259.935
259.91
259.881
259.843
259.802
259.75
259.7
259.634
259.575
259.492
259.427
259.326
259.26
259.132
259.081
258.913
258.889
258.681
258.68
258.461
261.39
261.397
261.391
261.379
261.36
261.335
261.304
261.264
261.222
261.167
261.114
261.044
260.981
260.894
260.822
260.716
260.638
260.507
260.431
260.265
260.207
259.988
259.962
259.698
262.845
262.852
262.846
262.834
262.815
262.789
262.758
262.718
262.676
262.621
262.567
262.496
262.432
262.344
262.27
262.161
262.079
261.947
261.861
261.697
261.615
261.4
261.347
261.049
264.314
264.321
264.315
264.304
264.286
264.261
264.231
264.191
264.15
264.096
264.044
263.974
263.911
263.824
263.751
263.645
263.564
263.434
263.349
263.187
263.105
262.895
262.839
262.542
265.788
265.796
265.79
265.78
265.762
265.738
265.71
265.672
265.632
265.581
265.53
265.463
265.403
265.32
265.25
265.148
265.07
264.946
264.865
264.709
264.637
264.432
264.386
264.113
267.255
267.263
267.258
267.249
267.233
267.21
267.183
267.148
267.111
267.062
267.015
266.952
266.895
266.816
266.75
266.655
266.581
266.464
266.389
266.242
266.177
265.982
265.942
265.688
268.707
268.716
268.711
268.703
268.688
268.667
268.642
268.61
268.574
268.529
268.485
268.426
268.373
268.3
268.238
268.149
268.081
267.972
267.903
267.765
267.706
267.526
267.489
267.254
270.138
270.148
270.143
270.137
270.122
270.104
270.08
270.051
270.017
269.977
269.934
269.882
269.83
269.765
269.706
269.624
269.561
269.46
269.397
269.268
269.215
269.048
269.014
268.797
271.539
271.549
271.544
271.54
271.525
271.511
271.487
271.462
271.43
271.395
271.353
271.308
271.258
271.201
271.144
271.072
271.012
270.921
270.862
270.744
270.695
270.542
270.511
270.312
272.908
272.918
272.915
272.911
272.898
272.884
272.863
272.84
272.811
272.778
272.741
272.699
272.654
272.601
272.549
272.483
272.427
272.345
272.291
272.183
272.138
271.999
271.971
271.79
274.24
274.25
274.248
274.244
274.234
274.22
274.203
274.18
274.156
274.125
274.093
274.053
274.014
273.964
273.919
273.857
273.808
273.732
273.682
273.585
273.544
273.418
273.391
273.227
275.531
275.541
275.539
275.536
275.527
275.515
275.5
275.479
275.458
275.428
275.401
275.363
275.33
275.283
275.244
275.187
275.143
275.075
275.029
274.944
274.905
274.792
274.767
274.62
276.784
276.794
276.793
276.79
276.783
276.771
276.759
276.739
276.721
276.693
276.67
276.634
276.606
276.562
276.528
276.475
276.436
276.374
276.332
276.256
276.219
276.119
276.095
275.964
277.988
277.998
277.997
277.995
277.989
277.979
277.968
277.95
277.935
277.91
277.89
277.858
277.834
277.793
277.765
277.717
277.683
277.627
277.59
277.524
277.488
277.401
277.379
277.262
279.154
279.164
279.164
279.162
279.157
279.147
279.138
279.122
279.109
279.085
279.068
279.037
279.017
278.979
278.954
278.91
278.881
278.83
278.797
278.738
278.705
278.63
278.609
278.508
280.268
280.278
280.279
280.277
280.274
280.265
280.258
280.244
280.233
280.213
280.199
280.172
280.155
280.121
280.101
280.061
280.037
279.99
279.963
279.909
279.88
279.814
279.794
279.703
281.344
281.354
281.354
281.353
281.35
281.342
281.336
281.322
281.313
281.293
281.282
281.256
281.241
281.21
281.192
281.156
281.135
281.094
281.071
281.024
280.999
280.944
280.926
280.85
282.37
282.379
282.38
282.38
282.378
282.372
282.367
282.356
282.349
282.332
282.324
282.302
282.291
282.263
282.249
282.216
282.199
282.161
282.141
282.098
282.076
282.026
282.008
281.94
283.354
283.364
283.365
283.364
283.363
283.357
283.353
283.341
283.336
283.319
283.312
283.29
283.281
283.255
283.244
283.214
283.201
283.169
283.153
283.117
283.099
283.059
283.043
282.99
284.294
284.303
284.305
284.305
284.304
284.3
284.297
284.288
284.285
284.271
284.267
284.248
284.242
284.219
284.211
284.183
284.173
284.142
284.129
284.095
284.079
284.041
284.025
283.977
285.189
285.198
285.2
285.2
285.199
285.195
285.193
285.184
285.181
285.167
285.163
285.145
285.141
285.12
285.114
285.09
285.083
285.058
285.048
285.021
285.009
284.98
284.968
284.933
286.047
286.055
286.057
286.058
286.058
286.054
286.053
286.046
286.045
286.034
286.032
286.017
286.014
285.995
285.991
285.968
285.963
285.938
285.93
285.904
285.894
285.866
285.855
285.823
286.857
286.865
286.867
286.867
286.868
286.864
286.864
286.857
286.856
286.846
286.845
286.83
286.829
286.813
286.811
286.793
286.79
286.77
286.765
286.745
286.738
286.718
286.709
286.686
287.634
287.642
287.643
287.644
287.645
287.642
287.642
287.637
287.636
287.628
287.627
287.615
287.615
287.599
287.598
287.58
287.578
287.559
287.556
287.537
287.531
287.513
287.506
287.487
288.367
288.375
288.377
288.378
288.378
288.377
288.377
288.372
288.373
288.365
288.365
288.355
288.356
288.343
288.344
288.33
288.33
288.314
288.313
288.297
288.293
288.279
288.273
288.26
289.064
289.072
289.073
289.075
289.075
289.074
289.074
289.07
289.07
289.064
289.064
289.055
289.056
289.044
289.045
289.031
289.033
289.018
289.019
289.006
289.004
288.994
288.989
288.981
289.729
289.737
289.738
289.74
289.74
289.74
289.74
289.737
289.738
289.732
289.733
289.725
289.727
289.717
289.72
289.708
289.71
289.698
289.698
289.687
289.685
289.676
289.672
289.666
290.353
290.36
290.362
290.363
290.364
290.363
290.364
290.361
290.362
290.357
290.358
290.352
290.353
290.345
290.347
290.337
290.34
290.33
290.332
290.325
290.324
290.32
290.316
290.315
290.949
290.956
290.958
290.959
290.96
290.96
290.96
290.958
290.959
290.955
290.956
290.951
290.952
290.946
290.948
290.94
290.942
290.934
290.935
290.929
290.928
290.925
290.921
290.922
291.514
291.521
291.522
291.524
291.524
291.525
291.525
291.524
291.524
291.522
291.522
291.518
291.518
291.514
291.514
291.508
291.509
291.503
291.504
291.499
291.498
291.498
291.494
291.498
292.039
292.045
292.047
292.048
292.049
292.049
292.049
292.049
292.048
292.047
292.047
292.045
292.045
292.043
292.043
292.041
292.042
292.04
292.04
292.04
292.04
292.042
292.039
292.044
292.555
292.562
292.563
292.564
292.564
292.565
292.565
292.565
292.564
292.564
292.562
292.561
292.559
292.557
292.555
292.552
292.55
292.547
292.545
292.543
292.54
292.542
292.538
292.546
293.014
293.02
293.021
293.023
293.023
293.024
293.023
293.025
293.023
293.025
293.022
293.024
293.022
293.024
293.022
293.025
293.024
293.027
293.026
293.031
293.03
293.037
293.032
293.041
293.483
293.488
293.489
293.491
293.49
293.492
293.49
293.492
293.489
293.491
293.487
293.488
293.483
293.485
293.479
293.481
293.475
293.476
293.47
293.472
293.466
293.472
293.467
293.478
293.888
293.894
293.895
293.896
293.896
293.898
293.896
293.899
293.896
293.899
293.895
293.9
293.895
293.901
293.896
293.903
293.897
293.906
293.9
293.911
293.906
293.916
293.91
293.921
294.305
294.31
294.311
294.312
294.311
294.313
294.311
294.313
294.309
294.312
294.306
294.311
294.302
294.308
294.298
294.305
294.295
294.302
294.292
294.299
294.29
294.3
294.293
294.308
294.669
294.674
294.675
294.676
294.676
294.678
294.675
294.679
294.674
294.68
294.673
294.681
294.672
294.682
294.672
294.683
294.672
294.685
294.674
294.688
294.678
294.692
294.684
294.697
295.035
295.039
295.04
295.041
295.04
295.042
295.039
295.042
295.037
295.042
295.033
295.041
295.029
295.039
295.025
295.037
295.022
295.036
295.02
295.035
295.021
295.036
295.027
295.043
295.362
295.367
295.367
295.369
295.368
295.37
295.367
295.371
295.366
295.372
295.363
295.373
295.361
295.374
295.359
295.375
295.358
295.375
295.358
295.376
295.361
295.377
295.366
295.381
295.684
295.688
295.688
295.69
295.688
295.69
295.686
295.69
295.684
295.69
295.68
295.69
295.676
295.689
295.671
295.688
295.668
295.687
295.667
295.687
295.668
295.687
295.675
295.693
295.971
295.975
295.976
295.977
295.976
295.978
295.975
295.979
295.973
295.98
295.97
295.981
295.967
295.982
295.964
295.983
295.961
295.983
295.96
295.982
295.962
295.982
295.968
295.984
296.26
296.264
296.264
296.265
296.264
296.266
296.262
296.266
296.259
296.266
296.255
296.266
296.251
296.266
296.246
296.265
296.242
296.265
296.24
296.264
296.242
296.264
296.249
296.267
296.504
296.508
296.508
296.509
296.508
296.51
296.507
296.511
296.505
296.512
296.502
296.513
296.498
296.514
296.495
296.516
296.492
296.516
296.49
296.516
296.492
296.515
296.499
296.516
296.771
296.774
296.775
296.776
296.774
296.776
296.773
296.777
296.77
296.777
296.767
296.778
296.762
296.778
296.758
296.779
296.755
296.779
296.753
296.779
296.755
296.778
296.763
296.78
296.969
296.972
296.972
296.973
296.972
296.974
296.971
296.975
296.969
296.976
296.967
296.978
296.964
296.98
296.961
296.982
296.959
296.983
296.959
296.984
296.962
296.985
296.969
296.987
297.217
297.22
297.22
297.221
297.219
297.222
297.218
297.222
297.217
297.224
297.214
297.225
297.212
297.227
297.209
297.228
297.208
297.23
297.208
297.231
297.211
297.233
297.219
297.237
297.377
297.38
297.38
297.381
297.38
297.383
297.38
297.384
297.379
297.386
297.378
297.388
297.377
297.391
297.376
297.394
297.377
297.397
297.379
297.4
297.383
297.404
297.392
297.41
297.605
297.608
297.608
297.609
297.608
297.611
297.608
297.612
297.608
297.614
297.608
297.617
297.608
297.62
297.609
297.623
297.611
297.627
297.615
297.632
297.621
297.638
297.63
297.647
297.736
297.738
297.739
297.74
297.739
297.742
297.74
297.744
297.74
297.746
297.742
297.75
297.744
297.753
297.747
297.758
297.752
297.764
297.758
297.771
297.766
297.781
297.776
297.794
297.942
297.944
297.945
297.946
297.946
297.948
297.947
297.95
297.949
297.953
297.951
297.957
297.955
297.961
297.961
297.967
297.967
297.974
297.976
297.984
297.985
297.997
297.996
298.013
298.059
298.062
298.062
298.064
298.064
298.066
298.066
298.069
298.069
298.073
298.074
298.077
298.08
298.082
298.088
298.089
298.098
298.098
298.108
298.111
298.12
298.129
298.131
298.149
298.243
298.245
298.246
298.247
298.248
298.25
298.251
298.253
298.256
298.257
298.263
298.262
298.271
298.269
298.282
298.277
298.294
298.289
298.307
298.305
298.32
298.327
298.333
298.351
298.346
298.348
298.349
298.35
298.352
298.353
298.356
298.357
298.363
298.362
298.371
298.368
298.382
298.375
298.395
298.386
298.41
298.401
298.425
298.42
298.439
298.446
298.453
298.472
298.515
298.518
298.519
298.52
298.522
298.523
298.528
298.527
298.536
298.533
298.547
298.54
298.56
298.549
298.575
298.562
298.591
298.58
298.608
298.603
298.624
298.632
298.64
298.661
298.614
298.616
298.618
298.619
298.623
298.622
298.629
298.627
298.639
298.634
298.651
298.643
298.666
298.655
298.683
298.671
298.701
298.693
298.719
298.72
298.737
298.751
298.757
298.78
298.76
298.762
298.764
298.765
298.769
298.769
298.777
298.775
298.788
298.784
298.802
298.795
298.818
298.81
298.835
298.829
298.854
298.854
298.873
298.883
298.895
298.915
298.919
298.944
298.856
298.858
298.86
298.861
298.866
298.867
298.874
298.874
298.885
298.885
298.899
298.9
298.915
298.918
298.933
298.941
298.953
298.967
298.976
298.997
299.001
299.027
299.028
299.055
298.99
298.993
298.994
298.997
299
299.004
299.008
299.014
299.019
299.028
299.033
299.046
299.049
299.067
299.069
299.092
299.092
299.12
299.118
299.148
299.146
299.178
299.175
299.205
299.067
299.07
299.071
299.075
299.076
299.084
299.085
299.096
299.096
299.113
299.11
299.133
299.127
299.156
299.148
299.182
299.172
299.209
299.2
299.237
299.23
299.265
299.26
299.29
299.193
299.196
299.198
299.201
299.204
299.21
299.213
299.224
299.225
299.241
299.241
299.262
299.259
299.287
299.281
299.315
299.306
299.344
299.334
299.373
299.365
299.4
299.395
299.426
299.257
299.26
299.262
299.265
299.268
299.274
299.278
299.288
299.291
299.306
299.307
299.328
299.327
299.353
299.349
299.381
299.374
299.41
299.403
299.44
299.433
299.468
299.463
299.493
299.372
299.374
299.377
299.38
299.384
299.389
299.394
299.403
299.408
299.42
299.426
299.442
299.446
299.467
299.469
299.495
299.494
299.525
299.522
299.555
299.55
299.584
299.579
299.61
299.429
299.432
299.434
299.437
299.441
299.447
299.452
299.46
299.467
299.478
299.484
299.499
299.505
299.524
299.528
299.552
299.553
299.582
299.581
299.612
299.608
299.641
299.637
299.667
299.533
299.536
299.538
299.541
299.545
299.551
299.556
299.564
299.571
299.581
299.588
299.602
299.608
299.627
299.631
299.654
299.655
299.682
299.682
299.711
299.709
299.74
299.737
299.766
299.585
299.588
299.59
299.593
299.597
299.602
299.608
299.616
299.622
299.633
299.639
299.654
299.659
299.678
299.681
299.704
299.706
299.732
299.732
299.761
299.759
299.789
299.786
299.815
299.677
299.68
299.682
299.685
299.689
299.694
299.699
299.706
299.713
299.723
299.73
299.743
299.749
299.766
299.77
299.791
299.793
299.819
299.819
299.846
299.845
299.874
299.872
299.9
299.722
299.725
299.727
299.73
299.734
299.739
299.745
299.751
299.758
299.767
299.775
299.787
299.793
299.809
299.814
299.834
299.837
299.861
299.862
299.888
299.888
299.916
299.914
299.941
299.799
299.802
299.804
299.806
299.81
299.815
299.82
299.826
299.833
299.841
299.849
299.859
299.867
299.88
299.888
299.904
299.91
299.929
299.933
299.956
299.958
299.985
299.984
300.01
299.836
299.839
299.841
299.844
299.847
299.852
299.857
299.863
299.87
299.877
299.885
299.895
299.903
299.915
299.923
299.938
299.945
299.963
299.968
299.989
299.992
300.018
300.017
300.043
299.9