/*--------------------------------*- C++ -*----------------------------------*\
  =========                 |
  \\      /  F ield         | OpenFOAM: The Open Source CFD Toolbox
   \\    /   O peration     | Website:  https://openfoam.org
    \\  /    A nd           | Version:  10
     \\/     M anipulation  |
\*---------------------------------------------------------------------------*/
FoamFile
{
    format      ascii;
    class       volVectorField;
    location    "0.06";
    object      U;
}
// * * * * * * * * * * * * * * * * * * * * * * * * * * * * * * * * * * * * * //

dimensions      [0 1 -1 0 0 0 0];

internalField   nonuniform List<vector> 
4176
(
(363.713 0.015164 7.58402e-11)
(363.742 -0.00454334 5.91112e-13)
(363.729 0.0554178 -1.63705e-11)
(363.716 -0.00457806 -1.88981e-12)
(363.675 0.105956 -1.21681e-11)
(363.65 -0.0153974 1.17328e-11)
(363.584 0.169575 -1.98124e-12)
(363.551 -0.0382335 -1.92124e-12)
(363.459 0.242524 -6.75065e-12)
(363.417 -0.0692877 -1.80381e-11)
(363.301 0.317339 -2.66718e-11)
(363.247 -0.0984961 -2.381e-11)
(363.109 0.379124 -1.31579e-11)
(363.039 -0.0936978 -7.18666e-12)
(362.889 0.376571 8.03883e-12)
(362.785 -0.0149578 3.03977e-12)
(362.638 0.301383 1.61628e-11)
(362.485 0.133221 1.13011e-11)
(362.357 0.153337 3.45548e-12)
(362.134 0.35407 1.07248e-11)
(362.054 -0.0750567 7.02515e-12)
(361.735 0.668185 1.0337e-12)
(361.745 -0.369626 6.42761e-12)
(361.342 1.08379 5.44232e-12)
(359.085 0.025429 7.48667e-11)
(359.12 0.0268668 -1.56545e-13)
(359.106 0.094611 -1.60309e-11)
(359.093 0.0606034 -1.10426e-12)
(359.048 0.178789 -1.14959e-11)
(359.023 0.083634 1.18934e-11)
(358.95 0.278065 -2.97223e-12)
(358.916 0.0937477 -2.05005e-12)
(358.816 0.388567 -6.19206e-12)
(358.771 0.0949741 -1.75524e-11)
(358.645 0.502718 -2.73889e-11)
(358.588 0.0978641 -2.38946e-11)
(358.44 0.606135 -1.44936e-11)
(358.364 0.131334 -7.25011e-12)
(358.203 0.652384 8.12142e-12)
(358.09 0.240938 3.24125e-12)
(357.936 0.622146 1.5706e-11)
(357.766 0.425395 1.13441e-11)
(357.634 0.517837 3.04638e-12)
(357.391 0.679184 1.01818e-11)
(357.303 0.325088 7.02997e-12)
(356.954 1.01778 -8.75494e-13)
(356.954 0.0136866 7.13135e-12)
(356.492 1.45249 5.09158e-12)
(360.867 0.0334831 7.11394e-11)
(360.904 0.0600244 -9.75153e-13)
(360.888 0.133232 -1.82846e-11)
(360.876 0.129192 -8.79103e-14)
(360.827 0.253208 -1.14433e-11)
(360.804 0.186611 1.14694e-11)
(360.726 0.389964 -7.76617e-13)
(360.693 0.230691 -1.85376e-12)
(360.587 0.539495 -4.79831e-12)
(360.544 0.265175 -1.73886e-11)
(360.411 0.694635 -2.82789e-11)
(360.356 0.300662 -2.40491e-11)
(360.199 0.840567 -1.33372e-11)
(360.123 0.362711 -7.14048e-12)
(359.959 0.939168 7.96424e-12)
(359.839 0.502579 4.27289e-12)
(359.686 0.955182 1.42567e-11)
(359.507 0.727542 1.00387e-11)
(359.375 0.894237 3.39378e-12)
(359.124 1.02623 9.91836e-12)
(359.031 0.755647 6.52686e-12)
(358.671 1.41198 1.18439e-12)
(358.658 0.50367 7.29825e-12)
(358.149 1.90203 5.7923e-12)
(362.572 0.0428934 7.69321e-11)
(362.607 0.0940145 -1.36708e-12)
(362.593 0.173707 -1.89133e-11)
(362.578 0.200003 1.86437e-12)
(362.531 0.329648 -1.15728e-11)
(362.503 0.293283 9.69621e-12)
(362.427 0.504157 -7.90799e-13)
(362.389 0.37285 -3.42078e-12)
(362.284 0.693008 -9.90872e-12)
(362.237 0.441792 -1.57561e-11)
(362.102 0.889965 -2.79053e-11)
(362.044 0.509172 -2.47868e-11)
(361.884 1.08393 -1.22656e-11)
(361.807 0.595901 -8.00559e-12)
(361.635 1.23452 3.27701e-12)
(361.518 0.76953 3.42522e-12)
(361.355 1.29212 1.59429e-11)
(361.18 1.03658 9.77342e-12)
(361.04 1.27312 4.68825e-12)
(360.79 1.37656 9.50911e-12)
(360.694 1.18873 4.83862e-12)
(360.335 1.80964 6.18387e-13)
(360.323 1.00798 6.2511e-12)
(359.82 2.3621 -1.21392e-12)
(365.019 0.0536304 7.71914e-11)
(365.053 0.126858 1.84131e-13)
(365.039 0.217721 -1.60207e-11)
(365.021 0.270395 2.51781e-12)
(364.976 0.410816 -8.66254e-12)
(364.943 0.401187 1.25876e-11)
(364.87 0.623682 -2.29467e-12)
(364.826 0.517825 -2.80847e-12)
(364.723 0.852129 -6.11797e-12)
(364.669 0.62312 -1.68724e-11)
(364.536 1.09025 -2.81313e-11)
(364.472 0.725818 -2.32622e-11)
(364.311 1.32784 -1.46966e-11)
(364.232 0.84478 -8.64304e-12)
(364.049 1.53082 4.55484e-12)
(363.939 1.04511 1.82279e-12)
(363.761 1.63732 1.54277e-11)
(363.593 1.34756 1.03724e-11)
(363.441 1.66216 1.21978e-12)
(363.193 1.72757 1.38632e-11)
(363.093 1.6218 9.65818e-12)
(362.732 2.19984 2.90526e-12)
(362.722 1.48302 8.64985e-12)
(362.23 2.79797 6.69487e-12)
(368.004 0.0649355 6.89048e-11)
(368.036 0.160319 -1.67926e-12)
(368.022 0.263604 -1.47308e-11)
(368.003 0.342538 1.27978e-12)
(367.958 0.494983 -1.62424e-11)
(367.923 0.512076 1.03534e-11)
(367.849 0.747194 -5.23347e-13)
(367.801 0.667021 -5.36457e-12)
(367.697 1.01607 -5.82778e-12)
(367.64 0.809945 -1.40552e-11)
(367.505 1.29597 -2.82179e-11)
(367.437 0.949316 -2.6719e-11)
(367.272 1.5773 -1.65145e-11)
(367.191 1.10269 -7.19215e-12)
(367.002 1.83219 2.5182e-12)
(366.892 1.33018 3.66665e-12)
(366.705 1.98952 2.2488e-11)
(366.537 1.66763 1.24525e-11)
(366.378 2.06059 7.59062e-12)
(366.126 2.08271 1.54748e-11)
(366.02 2.06579 6.81317e-12)
(365.654 2.59526 -5.06807e-12)
(365.642 1.96082 6.46395e-12)
(365.139 3.23556 6.88788e-12)
(371.489 0.0766669 6.92825e-11)
(371.519 0.194631 -4.24221e-12)
(371.504 0.311263 -2.66396e-11)
(371.483 0.416878 1.91226e-12)
(371.437 0.582148 -5.33714e-12)
(371.4 0.626512 1.09965e-11)
(371.325 0.874829 -8.53341e-12)
(371.275 0.821067 -3.36417e-12)
(371.169 1.18519 -1.34328e-12)
(371.109 1.0029 -1.69773e-11)
(370.971 1.50784 -3.0484e-11)
(370.9 1.18018 -2.02489e-11)
(370.731 1.83368 -5.59571e-12)
(370.646 1.36933 -6.00895e-12)
(370.452 2.14 5.50947e-12)
(370.341 1.62365 5.99704e-12)
(370.145 2.35242 1.64513e-11)
(369.976 1.99399 8.35304e-12)
(369.81 2.47064 3.84308e-12)
(369.554 2.45158 1.36902e-11)
(369.441 2.52096 5.84563e-12)
(369.069 3.0017 -5.11295e-12)
(369.052 2.4608 8.01732e-12)
(368.535 3.68954 1.0679e-11)
(375.41 0.0889708 5.99191e-11)
(375.437 0.229843 -3.67933e-13)
(375.421 0.360884 -1.17971e-11)
(375.4 0.493518 4.35681e-12)
(375.353 0.672596 -1.39852e-11)
(375.314 0.744647 1.30404e-11)
(375.237 1.00698 3.18445e-12)
(375.184 0.980157 -4.84999e-12)
(375.076 1.35998 -1.43169e-11)
(375.012 1.20224 -1.83902e-11)
(374.871 1.72642 -2.32966e-11)
(374.796 1.41885 -2.39279e-11)
(374.624 2.09753 -2.35505e-11)
(374.535 1.64542 -1.1479e-11)
(374.335 2.45409 1.04492e-11)
(374.223 1.92839 5.85967e-13)
(374.017 2.72365 1.91502e-11)
(373.849 2.33085 2.03407e-11)
(373.671 2.89181 6.30563e-12)
(373.415 2.82866 2.86265e-12)
(373.294 2.98922 5.68684e-12)
(372.918 3.41697 7.05613e-12)
(372.895 2.9741 6.18289e-12)
(372.368 4.15208 -6.87378e-12)
(379.696 0.10183 5.38259e-11)
(379.719 0.265993 -1.04491e-11)
(379.702 0.412512 -2.76179e-11)
(379.68 0.572614 -2.44395e-12)
(379.632 0.766446 -1.36198e-11)
(379.591 0.866703 8.42564e-12)
(379.512 1.14384 -7.58985e-12)
(379.457 1.14455 -7.27275e-12)
(379.346 1.5407 -9.85646e-12)
(379.279 1.40826 -2.03842e-11)
(379.135 1.95206 -3.21037e-11)
(379.056 1.66561 -2.51128e-11)
(378.88 2.36931 -1.76003e-11)
(378.787 1.93119 -1.05463e-11)
(378.582 2.77542 5.79457e-12)
(378.467 2.24468 2.83338e-12)
(378.252 3.1034 1.63891e-11)
(378.084 2.67879 1.22466e-11)
(377.894 3.32405 3.73691e-12)
(377.639 3.2143 7.9942e-12)
(377.508 3.47023 4.32694e-12)
(377.128 3.84102 -1.25782e-12)
(377.101 3.50051 7.3689e-12)
(376.564 4.62259 5.61188e-12)
(384.267 0.11529 7.04514e-11)
(384.286 0.303155 5.89616e-12)
(384.268 0.466133 -1.38788e-11)
(384.244 0.654237 1.23417e-11)
(384.195 0.863679 1.12512e-13)
(384.152 0.992753 1.95241e-11)
(384.072 1.2854 4.71964e-12)
(384.014 1.31431 3.05689e-12)
(383.901 1.72735 3.26584e-12)
(383.83 1.62097 -9.81466e-12)
(383.683 2.18477 -1.94489e-11)
(383.6 1.92037 -1.49316e-11)
(383.42 2.6491 -4.34337e-12)
(383.323 2.2264 -1.92727e-12)
(383.113 3.10465 1.56994e-11)
(382.995 2.57255 1.04106e-11)
(382.772 3.49148 2.62756e-11)
(382.603 3.03779 2.0242e-11)
(382.403 3.76691 1.32965e-11)
(382.147 3.60856 1.67296e-11)
(382.008 3.96352 1.31209e-11)
(381.624 4.27359 8.09586e-12)
(381.591 4.03966 1.42451e-11)
(381.045 5.10067 1.27099e-11)
(389.03 0.129269 5.91679e-11)
(389.045 0.341264 -3.70277e-12)
(389.026 0.521626 -2.06708e-11)
(389.001 0.738324 7.94828e-12)
(388.951 0.964138 -4.39798e-12)
(388.906 1.1227 1.48243e-11)
(388.824 1.43146 1.07659e-12)
(388.763 1.48929 1.44499e-12)
(388.648 1.9197 1.80206e-12)
(388.573 1.84013 -1.1075e-11)
(388.424 2.42424 -1.96587e-11)
(388.337 2.18279 -1.34904e-11)
(388.153 2.93654 -2.45589e-12)
(388.052 2.53048 -6.0603e-13)
(387.837 3.44186 1.92679e-11)
(387.715 2.91171 1.48421e-11)
(387.485 3.88738 3.18796e-11)
(387.316 3.4072 2.48297e-11)
(387.106 4.21923 2.0577e-11)
(386.85 4.01141 2.49328e-11)
(386.702 4.46832 4.62372e-12)
(386.315 4.7137 -1.79533e-11)
(386.276 4.5904 -7.72144e-12)
(385.722 5.58509 -1.16253e-11)
(393.89 0.143783 5.77398e-11)
(393.9 0.380323 -4.60052e-12)
(393.881 0.57881 -2.27212e-11)
(393.854 0.824723 4.70273e-12)
(393.803 1.0675 -7.84976e-12)
(393.756 1.25626 1.14552e-11)
(393.672 1.58159 -4.68513e-12)
(393.61 1.66913 -5.76431e-12)
(393.492 2.11719 -5.66988e-12)
(393.415 2.06523 -1.76418e-11)
(393.262 2.66981 -2.78524e-11)
(393.172 2.45211 -2.00167e-11)
(392.985 3.23088 -1.06196e-11)
(392.88 2.84249 -7.2647e-12)
(392.661 3.78626 8.66979e-12)
(392.536 3.26101 5.05838e-12)
(392.299 4.29036 1.95926e-11)
(392.129 3.78594 1.46544e-11)
(391.91 4.67986 6.79765e-12)
(391.654 4.42165 1.06634e-11)
(391.498 4.98298 8.38221e-12)
(391.11 5.16059 4.98677e-12)
(391.065 5.15148 1.18931e-11)
(390.505 6.07485 9.36407e-12)
(398.748 0.158686 5.64192e-11)
(398.754 0.420175 -7.78484e-12)
(398.733 0.637372 -2.69479e-11)
(398.706 0.913149 9.65102e-13)
(398.653 1.17329 -1.38063e-11)
(398.605 1.393 3.6666e-12)
(398.52 1.73511 -1.53488e-11)
(398.455 1.85325 -1.77528e-11)
(398.335 2.31899 -1.85689e-11)
(398.256 2.29553 -3.08582e-11)
(398.1 2.92049 -4.79989e-11)
(398.008 2.72733 -3.8731e-11)
(397.817 3.53098 -3.53966e-11)
(397.71 3.16108 -1.11252e-11)
(397.487 4.13663 2.68232e-11)
(397.359 3.61876 1.81026e-11)
(397.116 4.69912 3.3415e-11)
(396.946 4.17257 2.40778e-11)
(396.719 5.14712 1.58108e-11)
(396.465 4.83752 1.87103e-11)
(396.301 5.50521 1.46675e-11)
(395.912 5.61291 9.20131e-12)
(395.862 5.72067 1.58909e-11)
(395.297 6.56792 1.19146e-11)
(403.514 0.173955 6.37979e-11)
(403.515 0.460792 5.96885e-12)
(403.494 0.696961 -2.7735e-11)
(403.466 1.00328 -1.1989e-11)
(403.412 1.28089 -1.58284e-11)
(403.363 1.53236 1.05306e-11)
(403.276 1.89113 7.9699e-13)
(403.211 2.0409 8.13069e-12)
(403.087 2.52396 -3.9434e-12)
(403.008 2.53011 -3.07003e-11)
(402.848 3.17496 -3.85397e-11)
(402.756 3.00717 -2.21731e-11)
(402.56 3.83543 -3.18948e-12)
(402.453 3.48447 3.17098e-12)
(402.226 4.49152 1.73438e-12)
(402.097 3.98253 -1.25569e-11)
(401.849 5.11163 6.05392e-12)
(401.68 4.56532 9.48235e-12)
(401.446 5.61904 1.11067e-11)
(401.193 5.25741 2.32069e-11)
(401.023 6.03292 5.19579e-12)
(400.635 6.06897 -1.37407e-11)
(400.579 6.29578 2.53353e-12)
(400.012 7.06258 9.65637e-12)
(408.106 0.189339 5.27258e-11)
(408.104 0.502017 -2.45593e-11)
(408.081 0.757067 -2.06202e-11)
(408.053 1.09479 2.88038e-11)
(407.997 1.3895 4.14098e-12)
(407.949 1.67378 1.32312e-11)
(407.859 2.04852 -1.45561e-11)
(407.795 2.23132 -2.55126e-11)
(407.668 2.73062 -6.05614e-12)
(407.591 2.76797 -2.81812e-13)
(407.425 3.43162 -2.28703e-11)
(407.336 3.29028 -2.68324e-11)
(407.134 4.14272 -3.00394e-11)
(407.029 3.81067 -1.28763e-11)
(406.797 4.84961 2.07494e-11)
(406.669 4.34941 1.00152e-11)
(406.417 5.5254 1.4238e-11)
(406.249 4.96179 3.90185e-13)
(406.01 6.09406 -2.07502e-11)
(405.758 5.67965 -2.12515e-13)
(405.583 6.563 1.55295e-11)
(405.197 6.52675 6.04248e-12)
(405.136 6.8738 2.50742e-12)
(404.569 7.55628 -1.11654e-11)
(412.461 0.204546 6.55704e-11)
(412.456 0.543916 8.78253e-12)
(412.432 0.817065 -2.56994e-11)
(412.405 1.18752 -1.48377e-11)
(412.346 1.49807 -1.69101e-11)
(412.301 1.81691 1.35306e-11)
(412.206 2.20583 7.69242e-12)
(412.146 2.42394 1.3419e-11)
(412.012 2.93713 -2.93816e-12)
(411.941 3.00829 -3.08433e-11)
(411.767 3.68847 -3.45658e-11)
(411.685 3.57537 -1.6751e-11)
(411.473 4.45118 4.98044e-12)
(411.375 4.13749 -1.52936e-11)
(411.135 5.20971 -2.36023e-11)
(411.012 4.71654 -9.55734e-12)
(410.756 5.93847 1.42902e-11)
(410.591 5.35835 2.03549e-11)
(410.349 6.57092 2.28331e-11)
(410.097 6.10326 5.00031e-12)
(409.919 7.09213 -1.54692e-11)
(409.537 6.98419 -4.62336e-12)
(409.47 7.45219 1.31658e-11)
(408.906 8.04699 2.01191e-11)
(416.53 0.218808 5.45054e-11)
(416.523 0.586696 -2.14495e-11)
(416.496 0.875944 -3.99526e-11)
(416.471 1.2816 -1.76994e-11)
(416.409 1.6051 -8.45406e-12)
(416.367 1.96171 3.41959e-11)
(416.267 2.36128 1.08553e-11)
(416.213 2.61834 -1.0121e-12)
(416.072 3.14148 -5.55978e-12)
(416.008 3.25026 -2.23147e-11)
(415.825 3.94334 -4.39454e-11)
(415.752 3.86132 -4.14347e-11)
(415.531 4.75868 -1.06547e-11)
(415.443 4.46328 8.77043e-12)
(415.192 5.57058 1.72442e-11)
(415.078 5.08046 9.23469e-12)
(414.815 6.35101 1.75038e-11)
(414.654 5.75178 6.88489e-12)
(414.411 7.04582 -1.12782e-11)
(414.162 6.52617 -1.4214e-11)
(413.98 7.61798 -2.47583e-11)
(413.604 7.43904 -1.76651e-12)
(413.532 8.028 2.77506e-11)
(412.973 8.53215 1.74017e-11)
(420.282 0.23216 6.23313e-11)
(420.272 0.630783 -4.61402e-12)
(420.244 0.932992 -1.23713e-11)
(420.219 1.37662 2.42341e-11)
(420.156 1.71 1.0665e-11)
(420.116 2.10712 3.15133e-11)
(420.014 2.5144 1.72858e-11)
(419.962 2.81281 1.71819e-11)
(419.819 3.34333 2.73378e-11)
(419.759 3.49173 -1.32053e-11)
(419.572 4.19494 -5.74637e-11)
(419.505 4.14679 -4.46772e-11)
(419.278 5.06181 -3.7489e-11)
(419.198 4.7887 -3.20858e-11)
(418.94 5.9279 -1.67548e-11)
(418.836 5.43955 -1.08993e-11)
(418.565 6.76504 3.96168e-12)
(418.411 6.13805 3.91387e-12)
(418.166 7.51513 -1.13214e-12)
(417.922 6.94704 9.48357e-12)
(417.736 8.13852 1.12215e-11)
(417.368 7.88903 1.0471e-11)
(417.291 8.59876 1.83268e-11)
(416.739 9.00987 2.08801e-11)
(423.697 0.245309 5.84661e-11)
(423.684 0.674016 -1.76261e-11)
(423.658 0.989603 -2.90016e-11)
(423.631 1.47047 3.69439e-12)
(423.571 1.81351 -1.5932e-11)
(423.528 2.25122 -1.65463e-12)
(423.429 2.66516 -2.02758e-11)
(423.376 3.00561 -2.27331e-11)
(423.235 3.54203 -2.06627e-11)
(423.174 3.73095 -3.25686e-11)
(422.99 4.44247 -4.71913e-11)
(422.923 4.42944 -4.17149e-11)
(422.697 5.35974 -4.10759e-11)
(422.62 5.11086 -3.85384e-11)
(422.361 6.2789 -3.14468e-11)
(422.262 5.79508 -2.94498e-11)
(421.99 7.17492 1.47378e-11)
(421.842 6.51698 3.79218e-11)
(421.594 7.97893 3.12551e-11)
(421.355 7.3633 3.17377e-11)
(421.168 8.6508 2.87763e-11)
(420.808 8.33157 2.02537e-11)
(420.728 9.16162 2.50897e-11)
(420.185 9.47792 2.45567e-11)
(426.773 0.259447 4.76485e-11)
(426.758 0.715043 -1.08969e-11)
(426.732 1.04671 -4.64748e-12)
(426.704 1.56136 7.56144e-12)
(426.647 1.9163 5.64905e-12)
(426.601 2.39212 3.84735e-11)
(426.508 2.81368 -2.29287e-12)
(426.45 3.19511 -2.66847e-11)
(426.316 3.73697 -5.84565e-12)
(426.25 3.96653 -1.28589e-12)
(426.074 4.68491 -3.61894e-11)
(426.003 4.70784 -1.7918e-11)
(425.785 5.65139 7.17305e-13)
(425.704 5.42757 -2.20067e-11)
(425.452 6.62295 6.61832e-12)
(425.353 6.14444 2.02162e-11)
(425.083 7.57496 1.09101e-11)
(424.942 6.89194 -1.48555e-11)
(424.688 8.43714 -1.05877e-11)
(424.461 7.77096 8.57647e-12)
(424.271 9.15219 -1.59459e-11)
(423.922 8.76492 -3.67204e-12)
(423.837 9.71488 1.43619e-11)
(423.306 9.93495 -7.26431e-12)
(429.513 0.273877 6.64914e-11)
(429.495 0.754131 -3.68408e-12)
(429.471 1.10355 -4.74386e-12)
(429.441 1.64881 3.58301e-11)
(429.387 2.01811 2.13721e-11)
(429.339 2.52806 8.16043e-12)
(429.251 2.96049 -4.08951e-11)
(429.189 3.3786 -3.46696e-11)
(429.064 3.92905 -2.13593e-11)
(428.993 4.19565 -2.68874e-11)
(428.826 4.92281 -3.63727e-11)
(428.749 4.97969 -2.16678e-11)
(428.541 5.93627 -7.07695e-12)
(428.456 5.7382 -6.64642e-13)
(428.213 6.95699 2.26317e-11)
(428.112 6.48882 2.38113e-11)
(427.848 7.96146 4.34909e-11)
(427.713 7.26359 5.86619e-12)
(427.455 8.88543 -3.4913e-11)
(427.241 8.16543 -1.95504e-11)
(427.047 9.6425 -1.6035e-11)
(426.71 9.1885 -1.45316e-11)
(426.621 10.257 -8.61124e-12)
(426.102 10.3794 4.24553e-13)
(431.929 0.288265 5.25915e-11)
(431.909 0.791685 -4.51067e-11)
(431.885 1.15928 -2.44432e-11)
(431.855 1.73307 3.61831e-11)
(431.803 2.11771 1.74776e-12)
(431.755 2.65926 8.52124e-12)
(431.671 3.10397 -2.09746e-11)
(431.608 3.5561 8.70448e-13)
(431.488 4.11656 3.24377e-11)
(431.415 4.41792 4.67908e-12)
(431.255 5.15471 -2.40355e-11)
(431.176 5.24417 -3.33045e-11)
(430.976 6.21336 -4.4884e-11)
(430.89 6.04122 -1.95313e-11)
(430.654 7.28089 1.83711e-11)
(430.554 6.82568 5.41416e-12)
(430.294 8.33472 5.14926e-12)
(430.165 7.62856 -1.28119e-11)
(429.906 9.31977 3.27433e-12)
(429.707 8.54748 2.88901e-11)
(429.508 10.1223 1.31507e-11)
(429.184 9.60102 -6.99076e-12)
(429.09 10.7867 -2.08855e-11)
(428.586 10.8102 4.55294e-12)
(434.035 0.302332 5.15908e-11)
(434.014 0.827715 -4.66421e-11)
(433.991 1.21332 -2.45786e-11)
(433.961 1.81414 4.08987e-11)
(433.911 2.21428 1.04725e-11)
(433.862 2.7856 1.3538e-11)
(433.781 3.24315 -2.12124e-11)
(433.719 3.72725 -4.15989e-11)
(433.603 4.29843 -1.02093e-11)
(433.53 4.63263 9.14668e-12)
(433.377 5.3795 -1.53786e-11)
(433.297 5.50027 -2.53579e-11)
(433.104 6.48169 -3.59893e-11)
(433.018 6.33546 -1.16315e-11)
(432.789 7.59401 2.73504e-11)
(432.692 7.15365 9.50037e-12)
(432.436 8.69498 9.66793e-12)
(432.313 7.98416 -5.23651e-12)
(432.055 9.73642 1.20735e-11)
(431.87 8.91729 3.69537e-11)
(431.666 10.5913 2.20403e-11)
(431.357 10.0009 9.19383e-13)
(431.259 11.3024 -8.24923e-12)
(430.77 11.226 -1.96758e-11)
(435.851 0.315934 4.72456e-11)
(435.829 0.862216 -1.45141e-11)
(435.806 1.26539 -2.58928e-12)
(435.777 1.892 3.98859e-12)
(435.728 2.30738 -3.76037e-11)
(435.681 2.90705 3.17393e-13)
(435.603 3.37736 7.95406e-13)
(435.541 3.89184 -2.88073e-11)
(435.429 4.47379 -5.62779e-12)
(435.358 4.83929 8.17211e-13)
(435.209 5.59623 -3.81882e-11)
(435.131 5.74718 -1.26767e-11)
(434.944 6.74034 1.50007e-11)
(434.86 6.61982 -1.5841e-11)
(434.637 7.8957 -3.32216e-11)
(434.544 7.47144 -1.09913e-11)
(434.293 9.04178 2.383e-11)
(434.177 8.32956 -1.32433e-12)
(433.92 10.1353 7.2435e-12)
(433.749 9.27504 2.49552e-11)
(433.54 11.0462 -8.52952e-13)
(433.248 10.3857 1.34306e-11)
(433.146 11.804 3.65212e-11)
(432.673 11.6263 1.0309e-11)
(437.396 0.329062 7.67401e-11)
(437.373 0.895236 4.01316e-12)
(437.351 1.31537 1.10057e-11)
(437.322 1.96668 1.36112e-11)
(437.275 2.39679 -3.30576e-11)
(437.228 3.02352 4.5121e-13)
(437.153 3.50619 -4.02004e-12)
(437.093 4.04964 7.83558e-12)
(436.985 4.64202 2.76317e-11)
(436.915 5.03747 -1.68351e-11)
(436.771 5.8041 -6.21754e-11)
(436.696 5.9842 -3.95358e-11)
(436.514 6.98847 -1.83957e-11)
(436.434 6.89328 -7.15628e-12)
(436.216 8.18518 2.01124e-11)
(436.127 7.77781 3.2221e-11)
(435.881 9.37461 1.42959e-11)
(435.772 8.66361 -1.84654e-11)
(435.518 10.5165 -1.73501e-11)
(435.36 9.62024 -3.32155e-13)
(435.147 11.4855 1.35933e-11)
(434.872 10.754 2.22132e-11)
(434.766 12.2893 4.13114e-11)
(434.311 12.0099 1.05111e-11)
(438.69 0.341738 8.43212e-11)
(438.666 0.926908 -2.40973e-11)
(438.644 1.3633 -4.10786e-11)
(438.616 2.03821 2.3917e-11)
(438.57 2.48237 -9.4149e-12)
(438.525 3.13496 -4.17402e-12)
(438.452 3.62938 1.0253e-11)
(438.394 4.20053 -1.17442e-11)
(438.29 4.80279 -2.58439e-11)
(438.222 5.22699 -2.26439e-12)
(438.083 6.00272 -2.77231e-11)
(438.011 6.211 -3.97322e-11)
(437.834 7.22558 1.78815e-12)
(437.758 7.15525 -1.6283e-11)
(437.546 8.46188 -2.55276e-11)
(437.462 8.07182 5.51275e-12)
(437.221 9.6929 4.42753e-12)
(437.119 8.98508 -9.78465e-12)
(436.868 10.8806 8.01436e-12)
(436.722 9.9534 -4.66424e-12)
(436.507 11.9083 -2.16131e-11)
(436.248 11.1046 4.42687e-12)
(436.141 12.756 -1.23892e-11)
(435.704 12.3761 -2.13427e-11)
(439.749 0.354014 3.4694e-11)
(439.725 0.957296 -4.78594e-11)
(439.704 1.40907 -4.1117e-11)
(439.676 2.1064 -1.7838e-12)
(439.632 2.56386 -9.06325e-12)
(439.588 3.24113 1.63592e-11)
(439.518 3.74662 5.54828e-14)
(439.462 4.3443 3.13506e-12)
(439.361 4.95577 1.48827e-11)
(439.297 5.40763 8.02767e-12)
(439.162 6.19177 3.08308e-12)
(439.093 6.42733 -3.50393e-11)
(438.922 7.45135 -2.39006e-11)
(438.849 7.40532 -2.12817e-11)
(438.643 8.7254 -4.8734e-12)
(438.565 8.35274 9.9363e-13)
(438.329 9.99603 2.02421e-11)
(438.235 9.29262 2.23585e-11)
(437.988 11.2277 1.85111e-11)
(437.852 10.2749 2.28532e-11)
(437.635 12.3139 -2.17589e-11)
(437.395 11.437 -1.86297e-11)
(437.284 13.203 -1.2337e-11)
(436.867 12.7239 -6.97466e-12)
(440.589 0.365738 7.4621e-11)
(440.565 0.986033 -3.65547e-12)
(440.544 1.45226 1.00118e-11)
(440.518 2.17093 9.14419e-12)
(440.475 2.6409 -3.95743e-11)
(440.433 3.34176 -9.63045e-12)
(440.366 3.85756 -1.56511e-11)
(440.312 4.48063 -2.51806e-12)
(440.215 5.10059 1.50264e-11)
(440.154 5.57907 1.87774e-11)
(440.024 6.37089 -2.86155e-11)
(439.958 6.63283 -5.549e-11)
(439.793 7.66543 -3.44594e-11)
(439.725 7.64316 -2.63148e-11)
(439.524 8.97553 3.03137e-13)
(439.452 8.62017 1.56254e-11)
(439.222 10.2838 4.74436e-11)
(439.136 9.58569 5.57953e-11)
(438.893 11.5569 7.81924e-12)
(438.769 10.5839 -2.43647e-11)
(438.55 12.7001 -1.08957e-11)
(438.329 11.7521 5.906e-13)
(438.213 13.6321 1.93218e-11)
(437.817 13.0529 3.71347e-11)
(441.22 0.376323 8.98877e-11)
(441.195 1.01254 -3.43716e-11)
(441.175 1.49253 -5.79092e-11)
(441.149 2.23152 3.39498e-12)
(441.109 2.71314 2.39158e-11)
(441.068 3.43641 2.35699e-11)
(441.003 3.96175 -2.67174e-11)
(440.952 4.60924 -2.81696e-12)
(440.859 5.23687 -1.70991e-11)
(440.801 5.74084 -4.96305e-11)
(440.676 6.53943 -2.86698e-11)
(440.615 6.82676 6.6468e-12)
(440.455 7.86702 -1.2079e-11)
(440.392 7.8679 -3.66264e-11)
(440.198 9.21147 5.70685e-12)
(440.132 8.87336 3.59444e-11)
(439.908 10.5555 2.53018e-11)
(439.83 9.86338 -3.36618e-12)
(439.593 11.8676 1.93145e-11)
(439.48 10.8788 1.05193e-13)
(439.263 13.0657 -2.77797e-11)
(439.06 12.05 -4.28307e-12)
(438.94 14.042 3.01886e-11)
(438.564 13.3617 1.23627e-11)
(441.659 0.386764 3.93576e-11)
(441.635 1.03825 -6.05952e-11)
(441.615 1.53094 -4.67916e-11)
(441.59 2.28895 -8.09101e-12)
(441.551 2.78121 -1.93759e-11)
(441.513 3.52568 1.50177e-12)
(441.45 4.05941 -1.62825e-11)
(441.401 4.72973 -1.42587e-11)
(441.311 5.36407 -5.70975e-12)
(441.257 5.89251 -1.67297e-11)
(441.136 6.69697 -2.31416e-11)
(441.079 7.00872 -9.50481e-12)
(440.925 8.05538 -2.7377e-13)
(440.867 8.07869 -5.09957e-12)
(440.679 9.43194 1.14215e-11)
(440.62 9.11098 1.55743e-11)
(440.402 10.8099 3.14479e-11)
(440.332 10.1242 2.73131e-11)
(440.1 12.1584 2.53128e-11)
(439.999 11.1562 3.05871e-11)
(439.784 13.408 3.5693e-11)
(439.6 12.3292 -2.45723e-11)
(439.478 14.4323 -2.65095e-11)
(439.123 13.6515 -1.32766e-11)
(441.923 0.395991 1.12052e-10)
(441.898 1.06169 -6.00121e-12)
(441.88 1.56657 -8.20602e-12)
(441.856 2.3429 2.75716e-11)
(441.818 2.84514 8.68501e-12)
(441.781 3.60994 2.50421e-11)
(441.721 4.15154 3.03398e-13)
(441.675 4.84421 -3.15153e-12)
(441.589 5.48432 3.35539e-13)
(441.537 6.03553 -1.64603e-11)
(441.421 6.84425 -2.89602e-11)
(441.368 7.17941 -2.62761e-11)
(441.218 8.23137 -2.32883e-11)
(441.166 8.27627 -2.69128e-11)
(440.983 9.63786 -2.39843e-11)
(440.93 9.33371 -2.6907e-11)
(440.719 11.048 -1.60787e-11)
(440.657 10.3693 3.79476e-11)
(440.431 12.4312 2.5759e-11)
(440.34 11.4169 2.07054e-11)
(440.128 13.7268 2.43146e-11)
(439.961 12.5894 1.17178e-11)
(439.836 14.7988 8.25193e-12)
(439.504 13.919 1.32538e-11)
(442.028 0.405319 1.00592e-10)
(442.003 1.08409 -3.34722e-11)
(441.985 1.5996 -4.2154e-11)
(441.963 2.39271 2.7241e-11)
(441.927 2.90385 -2.52477e-12)
(441.893 3.68782 1.37742e-12)
(441.836 4.23631 1.15479e-11)
(441.793 4.95013 -9.2601e-12)
(441.711 5.59533 -1.7098e-11)
(441.664 6.16956 7.05364e-12)
(441.553 6.98247 -2.30478e-11)
(441.504 7.34036 -3.22344e-11)
(441.36 8.39634 1.28047e-11)
(441.314 8.46201 -1.02366e-11)
(441.136 9.83008 -1.82743e-11)
(441.09 9.54163 1.69817e-11)
(440.884 11.2689 1.42366e-11)
(440.83 10.5977 -5.01515e-12)
(440.608 12.6853 2.59801e-11)
(440.527 11.6615 1.02584e-11)
(440.318 14.0243 -1.21006e-11)
(440.167 12.8322 2.25986e-11)
(440.039 15.1456 8.49934e-12)
(439.727 14.1676 -7.93795e-12)
(441.951 0.41314 5.71259e-11)
(441.927 1.10379 -3.59681e-11)
(441.91 1.62899 -6.88992e-12)
(441.889 2.43764 -9.63721e-12)
(441.856 2.95643 3.40147e-12)
(441.823 3.75814 4.46926e-11)
(441.77 4.31221 -2.4466e-11)
(441.73 5.04585 -3.57303e-12)
(441.653 5.69491 2.51078e-11)
(441.61 6.29067 -2.80856e-11)
(441.503 7.1065 -1.71279e-11)
(441.461 7.48678 1.40512e-11)
(441.323 8.54636 -1.73158e-11)
(441.282 8.63334 -4.56601e-12)
(441.112 10.0081 3.10438e-11)
(441.073 9.73684 -1.08829e-11)
(440.873 11.4766 2.04473e-11)
(440.828 10.813 3.91644e-11)
(440.613 12.9238 -5.16008e-12)
(440.543 11.8919 1.59113e-11)
(440.338 14.3018 3.78618e-11)
(440.204 13.0591 -4.5017e-12)
(440.074 15.4731 1.46511e-11)
(439.783 14.3975 3.62581e-11)
(441.697 0.420401 9.64285e-11)
(441.673 1.12185 -4.28167e-12)
(441.657 1.65567 2.33919e-11)
(441.637 2.4787 2.23444e-11)
(441.605 3.00422 -3.21155e-11)
(441.576 3.82254 7.49517e-12)
(441.525 4.38126 5.36408e-12)
(441.489 5.13374 2.0747e-11)
(441.416 5.78559 5.00239e-11)
(441.377 6.40179 2.58015e-12)
(441.276 7.21916 -5.44327e-11)
(441.239 7.62049 -2.75439e-11)
(441.108 8.68172 7.99497e-12)
(441.075 8.78847 1.88898e-11)
(440.912 10.1673 4.99375e-11)
(440.882 9.91179 6.34386e-12)
(440.691 11.6615 -2.4331e-11)
(440.657 11.0058 -2.99146e-13)
(440.449 13.1386 7.73427e-12)
(440.392 12.1005 2.74903e-11)
(440.193 14.5527 5.72864e-11)
(440.077 13.2645 6.37043e-12)
(439.947 15.7766 -3.60307e-11)
(439.679 14.6066 -8.36806e-12)
(441.312 0.42669 4.58142e-11)
(441.289 1.13787 -7.48901e-11)
(441.274 1.67915 -5.47712e-11)
(441.254 2.51509 -2.27998e-11)
(441.225 3.04591 -3.22251e-11)
(441.198 3.87941 -1.1402e-11)
(441.15 4.44134 -3.83754e-11)
(441.117 5.21107 -4.23335e-11)
(441.048 5.86423 -3.07755e-11)
(441.013 6.49955 -4.04597e-11)
(440.918 7.31698 -5.45704e-11)
(440.886 7.73821 -4.60306e-11)
(440.761 8.79961 -3.61052e-11)
(440.734 8.92549 -4.09342e-11)
(440.577 10.3071 -3.35929e-11)
(440.555 10.0672 -2.87995e-11)
(440.37 11.8259 -1.79665e-11)
(440.345 11.1785 -1.75917e-11)
(440.144 13.3306 -3.11636e-11)
(440.098 12.2867 -2.33789e-11)
(439.905 14.7778 -2.70833e-11)
(439.805 13.4503 -2.77009e-11)
(439.674 16.053 -2.97703e-11)
(439.43 14.7915 -1.95511e-11)
(440.809 0.432508 1.12014e-10)
(440.786 1.15247 -4.17426e-11)
(440.772 1.70027 -4.24934e-11)
(440.754 2.5481 3.63435e-11)
(440.726 3.08346 5.0971e-12)
(440.7 3.93121 8.21716e-12)
(440.656 4.49556 2.39449e-11)
(440.625 5.28177 2.10584e-12)
(440.559 5.93544 -5.25617e-12)
(440.529 6.58916 2.91317e-11)
(440.437 7.40567 -3.21765e-12)
(440.41 7.84642 -2.14613e-11)
(440.289 8.90686 3.54147e-11)
(440.268 9.05158 7.58297e-12)
(440.116 10.4343 -1.07622e-12)
(440.101 10.2096 -1.67398e-11)
(439.921 11.9749 -2.46846e-11)
(439.905 11.3351 1.77126e-11)
(439.709 13.504 -1.10064e-11)
(439.675 12.4546 -2.31196e-11)
(439.486 14.9813 1.94318e-11)
(439.401 13.6194 -4.79092e-12)
(439.269 16.3057 -2.99349e-11)
(439.049 14.9547 2.13879e-11)
(440.185 0.437454 1.23767e-10)
(440.162 1.1651 -3.68298e-11)
(440.148 1.71847 -3.60447e-11)
(440.131 2.57709 4.32105e-11)
(440.106 3.11599 1.1464e-11)
(440.082 3.97684 1.48725e-11)
(440.041 4.54263 2.99718e-11)
(440.014 5.34438 8.4046e-12)
(439.952 5.99746 1.25635e-12)
(439.925 6.66873 -2.80241e-11)
(439.839 7.48328 -6.18008e-11)
(439.816 7.94277 -8.95467e-12)
(439.701 9.00091 -1.6687e-11)
(439.687 9.16394 -4.1931e-11)
(439.541 10.5462 1.19347e-11)
(439.534 10.3366 -4.60728e-12)
(439.361 12.1066 -1.17402e-11)
(439.354 11.4745 2.9891e-11)
(439.165 13.6581 2.89016e-12)
(439.142 12.6037 -1.10896e-11)
(438.959 15.1623 3.28238e-11)
(438.889 13.7709 6.58098e-12)
(438.757 16.533 -1.02881e-11)
(438.56 15.0952 3.95359e-11)
(439.437 0.441619 1.11472e-10)
(439.414 1.17589 4.09019e-12)
(439.402 1.73374 -9.94019e-12)
(439.386 2.60185 -1.12893e-11)
(439.363 3.14316 1.12784e-11)
(439.341 4.01588 6.87555e-11)
(439.303 4.58188 3.71595e-12)
(439.279 5.3979 -3.79188e-11)
(439.221 6.04915 7.97665e-12)
(439.199 6.73687 3.08162e-11)
(439.117 7.54806 -1.55807e-11)
(439.101 8.02544 -4.11754e-11)
(438.992 9.07985 3.5994e-12)
(438.983 9.26065 2.71416e-11)
(438.845 10.6408 -1.4117e-12)
(438.845 10.4462 -2.92653e-11)
(438.679 12.219 1.51846e-11)
(438.682 11.5949 4.23212e-11)
(438.499 13.7909 3.43084e-12)
(438.487 12.7319 -2.27606e-11)
(438.31 15.3195 5.43513e-12)
(438.254 13.9021 2.43295e-11)
(438.125 16.734 -3.49677e-12)
(437.951 15.2138 -2.55394e-11)
(438.573 0.445064 9.07101e-11)
(438.551 1.18492 -6.37584e-11)
(438.539 1.74621 -4.10971e-11)
(438.525 2.62261 -2.55041e-11)
(438.503 3.16528 -4.71792e-11)
(438.484 4.04869 -3.26165e-11)
(438.448 4.61382 -3.56654e-12)
(438.428 5.443 4.87405e-11)
(438.374 6.09126 5.46844e-11)
(438.356 6.79443 3.79546e-11)
(438.279 7.60099 1.12848e-11)
(438.268 8.09544 3.9759e-12)
(438.164 9.14469 1.08048e-11)
(438.163 9.34276 -4.61844e-12)
(438.031 10.7193 -8.26524e-12)
(438.039 10.5395 -1.67081e-11)
(437.879 12.3134 -1.24066e-11)
(437.892 11.6976 -1.91437e-11)
(437.715 13.9041 -4.47547e-11)
(437.715 12.8411 -4.08334e-11)
(437.544 15.4549 1.20727e-11)
(437.502 14.0122 5.46769e-11)
(437.376 16.906 5.21003e-11)
(437.226 15.3099 4.69373e-11)
(437.597 0.447753 6.97309e-11)
(437.576 1.19217 -5.9146e-11)
(437.565 1.75588 -8.24993e-12)
(437.552 2.63938 -3.2657e-11)
(437.532 3.18237 -2.82446e-11)
(437.515 4.0753 1.56943e-11)
(437.482 4.63844 2.3804e-12)
(437.465 5.47969 1.49848e-11)
(437.415 6.12376 -2.51354e-11)
(437.401 6.84137 -1.49384e-11)
(437.329 7.64196 -8.77909e-12)
(437.323 8.15264 -5.52613e-11)
(437.226 9.19516 -2.30277e-11)
(437.231 9.40989 -1.11176e-11)
(437.105 10.7809 1.21885e-11)
(437.121 10.6157 2.77577e-11)
(436.968 12.3886 -5.48884e-12)
(436.991 11.7814 1.20875e-11)
(436.82 13.9961 1.8369e-11)
(436.833 12.93 -2.85818e-11)
(436.667 15.5676 -1.64618e-11)
(436.64 14.1014 2.47498e-15)
(436.517 17.049 1.69225e-11)
(436.389 15.3828 3.4995e-11)
(436.515 0.449711 1.42892e-10)
(436.494 1.19765 -3.95999e-11)
(436.484 1.76279 -2.71e-11)
(436.472 2.65219 -1.89771e-11)