/*--------------------------------*- C++ -*----------------------------------*\
  =========                 |
  \\      /  F ield         | OpenFOAM: The Open Source CFD Toolbox
   \\    /   O peration     | Website:  https://openfoam.org
    \\  /    A nd           | Version:  10
     \\/     M anipulation  |
\*---------------------------------------------------------------------------*/
FoamFile
{
    format      ascii;
    class       volScalarField;
    location    "0.13";
    object      Ma;
}
// * * * * * * * * * * * * * * * * * * * * * * * * * * * * * * * * * * * * * //

dimensions      [0 0 0 0 0 0 0];

internalField   nonuniform List<scalar> 
4176
(
1.84497
1.8449
1.8447
1.84446
1.84405
1.84366
1.84302
1.84251
1.84163
1.841
1.83989
1.83913
1.83782
1.83691
1.83545
1.83432
1.83285
1.83131
1.82999
1.82788
1.82693
1.82399
1.82381
1.82001
1.84485
1.84478
1.84458
1.84433
1.84391
1.84351
1.84287
1.84233
1.84145
1.84078
1.83967
1.83887
1.83754
1.8366
1.83511
1.83394
1.83244
1.83087
1.82952
1.82736
1.82641
1.82335
1.82313
1.81895
1.84451
1.84444
1.84425
1.844
1.8436
1.8432
1.84258
1.84204
1.8412
1.84053
1.83945
1.83867
1.83737
1.83646
1.83499
1.83386
1.83237
1.83085
1.82953
1.82743
1.82652
1.82353
1.8233
1.81899
1.84387
1.84379
1.84361
1.84336
1.84296
1.84256
1.84194
1.8414
1.84056
1.8399
1.83881
1.83804
1.83673
1.83582
1.83434
1.83323
1.83172
1.83017
1.82891
1.82674
1.82587
1.82292
1.82273
1.81862
1.84293
1.84286
1.84267
1.84243
1.84203
1.84164
1.84103
1.8405
1.83966
1.83901
1.83794
1.83718
1.83588
1.83499
1.83351
1.83243
1.8309
1.82938
1.82815
1.82597
1.82512
1.8222
1.822
1.81802
1.84169
1.84162
1.84143
1.84119
1.8408
1.84041
1.83981
1.83928
1.83845
1.8378
1.83675
1.83599
1.8347
1.83382
1.83235
1.83128
1.82974
1.82829
1.82698
1.82487
1.82399
1.8211
1.82087
1.81689
1.84015
1.84007
1.83989
1.83965
1.83927
1.83888
1.83829
1.83776
1.83695
1.83631
1.83526
1.83451
1.83325
1.83237
1.83092
1.82987
1.82832
1.82694
1.82558
1.82355
1.82264
1.8198
1.81953
1.81558
1.8383
1.83823
1.83805
1.83781
1.83744
1.83705
1.83647
1.83595
1.83515
1.83451
1.83348
1.83274
1.83149
1.83063
1.82918
1.82816
1.82661
1.82528
1.82389
1.82193
1.82099
1.8182
1.81792
1.81402
1.83616
1.83609
1.83592
1.83568
1.83531
1.83492
1.83435
1.83384
1.83305
1.83242
1.83141
1.83068
1.82944
1.8286
1.82717
1.82617
1.82463
1.82334
1.82194
1.82004
1.81908
1.81634
1.81604
1.81221
1.83372
1.83365
1.83348
1.83325
1.83288
1.8325
1.83194
1.83143
1.83066
1.83004
1.82904
1.82832
1.82711
1.82627
1.82486
1.82389
1.82236
1.82112
1.81969
1.81787
1.81688
1.81421
1.8139
1.81013
1.83099
1.83092
1.83075
1.83052
1.83016
1.82979
1.82923
1.82873
1.82797
1.82736
1.82638
1.82567
1.82448
1.82367
1.82227
1.82132
1.81981
1.81861
1.81718
1.81542
1.81442
1.81182
1.81149
1.80779
1.82796
1.82789
1.82772
1.82749
1.82714
1.82678
1.82623
1.82574
1.82499
1.8244
1.82343
1.82274
1.82156
1.82077
1.8194
1.81847
1.81697
1.81581
1.81438
1.81269
1.81167
1.80915
1.8088
1.80518
1.82463
1.82456
1.8244
1.82418
1.82383
1.82347
1.82294
1.82246
1.82172
1.82114
1.82019
1.81951
1.81836
1.81758
1.81624
1.81534
1.81386
1.81274
1.81131
1.80969
1.80866
1.80621
1.80586
1.80231
1.82102
1.82095
1.82079
1.82057
1.82023
1.81988
1.81935
1.81889
1.81816
1.81759
1.81667
1.81601
1.81487
1.81412
1.81279
1.81192
1.81047
1.80938
1.80796
1.8064
1.80536
1.80299
1.80264
1.79917
1.8171
1.81704
1.81688
1.81666
1.81633
1.81599
1.81548
1.81502
1.81431
1.81376
1.81285
1.81221
1.8111
1.81037
1.80907
1.80822
1.8068
1.80575
1.80434
1.80285
1.80181
1.79951
1.79917
1.79577
1.8129
1.81284
1.81268
1.81247
1.81215
1.81182
1.81132
1.81087
1.81018
1.80964
1.80875
1.80813
1.80704
1.80633
1.80506
1.80425
1.80285
1.80184
1.80045
1.79902
1.79797
1.79576
1.79541
1.79211
1.80841
1.80834
1.80819
1.80799
1.80767
1.80735
1.80686
1.80643
1.80576
1.80524
1.80437
1.80377
1.80271
1.80202
1.80078
1.79999
1.79862
1.79765
1.79628
1.79492
1.79388
1.79175
1.79139
1.78818
1.80363
1.80357
1.80342
1.80322
1.80292
1.8026
1.80213
1.80171
1.80105
1.80055
1.79971
1.79913
1.79809
1.79743
1.79622
1.79546
1.79412
1.79319
1.79185
1.79055
1.78951
1.78746
1.78711
1.78398
1.79856
1.7985
1.79836
1.79816
1.79787
1.79756
1.7971
1.7967
1.79606
1.79558
1.79476
1.7942
1.7932
1.79257
1.79139
1.79066
1.78935
1.78846
1.78715
1.78591
1.78488
1.78292
1.78256
1.77953
1.79321
1.79315
1.79301
1.79282
1.79253
1.79224
1.7918
1.79141
1.79079
1.79033
1.78954
1.78901
1.78803
1.78742
1.78628
1.78559
1.78431
1.78346
1.78218
1.781
1.77998
1.7781
1.77774
1.77481
1.78757
1.78751
1.78737
1.78719
1.78692
1.78664
1.7862
1.78584
1.78524
1.7848
1.78403
1.78352
1.78258
1.78201
1.7809
1.78024
1.779
1.7782
1.77694
1.77583
1.77482
1.77303
1.77267
1.76984
1.78165
1.78159
1.78146
1.78129
1.78102
1.78075
1.78034
1.77999
1.77941
1.779
1.77825
1.77777
1.77686
1.77632
1.77524
1.77462
1.77343
1.77266
1.77144
1.77039
1.7694
1.76769
1.76733
1.76461
1.77544
1.77538
1.77526
1.7751
1.77484
1.77459
1.77419
1.77386
1.77331
1.77291
1.77219
1.77174
1.77086
1.77036
1.76932
1.76873
1.76758
1.76686
1.76568
1.76469
1.76372
1.7621
1.76175
1.75912
1.76896
1.76891
1.76879
1.76864
1.76839
1.76815
1.76777
1.76746
1.76693
1.76656
1.76587
1.76545
1.7646
1.76412
1.76312
1.76258
1.76147
1.76079
1.75966
1.75872
1.75777
1.75624
1.7559
1.75337
1.76221
1.76215
1.76204
1.76189
1.76166
1.76144
1.76107
1.76078
1.76027
1.75993
1.75927
1.75888
1.75806
1.75763
1.75666
1.75616
1.75509
1.75446
1.75337
1.75249
1.75157
1.75013
1.7498
1.74737
1.75518
1.75513
1.75503
1.75489
1.75467
1.75446
1.75411
1.75384
1.75336
1.75304
1.75241
1.75205
1.75126
1.75086
1.74994
1.74948
1.74845
1.74787
1.74682
1.746
1.74511
1.74376
1.74344
1.74112
1.74789
1.74784
1.74774
1.74761
1.7474
1.7472
1.74687
1.74662
1.74617
1.74587
1.74527
1.74494
1.7442
1.74383
1.74295
1.74253
1.74155
1.74102
1.74001
1.73925
1.7384
1.73713
1.73683
1.73461
1.74033
1.74028
1.74019
1.74007
1.73987
1.73969
1.73938
1.73915
1.73872
1.73845
1.73788
1.73759
1.73688
1.73655
1.7357
1.73533
1.73439
1.7339
1.73294
1.73224
1.73143
1.73024
1.72996
1.72785
1.73251
1.73246
1.73238
1.73226
1.73208
1.73191
1.73162
1.73141
1.731
1.73076
1.73022
1.72996
1.72929
1.729
1.7282
1.72786
1.72697
1.72654
1.72562
1.72498
1.72421
1.72311
1.72284
1.72084
1.72444
1.72439
1.72431
1.7242
1.72403
1.72388
1.72361
1.72342
1.72303
1.72282
1.72231
1.72208
1.72145
1.7212
1.72044
1.72015
1.7193
1.71891
1.71805
1.71746
1.71673
1.71572
1.71547
1.71358
1.7161
1.71606
1.71598
1.71589
1.71573
1.71559
1.71533
1.71517
1.71481
1.71462
1.71414
1.71395
1.71334
1.71314
1.71242
1.71217
1.71137
1.71104
1.71022
1.7097
1.70901
1.70808
1.70785
1.70607
1.70753
1.70749
1.70742
1.70732
1.70718
1.70705
1.70682
1.70667
1.70634
1.70618
1.70573
1.70556
1.705
1.70483
1.70415
1.70395
1.70319
1.70291
1.70214
1.70168
1.70103
1.70019
1.69998
1.69831
1.6987
1.69866
1.69859
1.69851
1.69838
1.69827
1.69805
1.69792
1.69761
1.69748
1.69706
1.69693
1.6964
1.69627
1.69563
1.69548
1.69476
1.69454
1.69381
1.69341
1.69281
1.69205
1.69186
1.69031
1.68963
1.6896
1.68954
1.68946
1.68934
1.68924
1.68905
1.68894
1.68865
1.68854
1.68816
1.68805
1.68756
1.68746
1.68687
1.68676
1.68609
1.68591
1.68524
1.6849
1.68435
1.68366
1.6835
1.68206
1.68032
1.68029
1.68023
1.68017
1.68006
1.67997
1.67979
1.67971
1.67944
1.67936
1.679
1.67893
1.67847
1.67842
1.67786
1.67779
1.67717
1.67704
1.67642
1.67614
1.67564
1.67503
1.67488
1.67356
1.67079
1.67075
1.67071
1.67065
1.67055
1.67048
1.67032
1.67025
1.67001
1.66995
1.66962
1.66958
1.66916
1.66913
1.66861
1.66859
1.66801
1.66794
1.66736
1.66714
1.66668
1.66615
1.66604
1.66483
1.66102
1.66098
1.66094
1.66089
1.6608
1.66074
1.6606
1.66055
1.66033
1.6603
1.66
1.65999
1.6596
1.65961
1.65913
1.65915
1.65861
1.65859
1.65805
1.65789
1.65748
1.65702
1.65695
1.65585
1.65103
1.65099
1.65096
1.65091
1.65083
1.65079
1.65066
1.65063
1.65043
1.65042
1.65015
1.65017
1.64981
1.64986
1.64942
1.64948
1.64898
1.64901
1.64852
1.64842
1.64805
1.64766
1.64763
1.64664
1.64081
1.64078
1.64074
1.6407
1.64064
1.6406
1.64049
1.64048
1.6403
1.64032
1.64007
1.64012
1.63979
1.63988
1.63948
1.63959
1.63912
1.63921
1.63875
1.63871
1.63839
1.63807
1.63806
1.63719
1.63037
1.63035
1.63032
1.63029
1.63023
1.63021
1.63011
1.63011
1.62996
1.62999
1.62977
1.62985
1.62956
1.62968
1.62931
1.62946
1.62904
1.62917
1.62876
1.62878
1.62849
1.62824
1.62828
1.6275
1.61972
1.61969
1.61967
1.61964
1.6196
1.61959
1.6195
1.61952
1.61939
1.61945
1.61925
1.61936
1.61909
1.61925
1.61892
1.61911
1.61873
1.61891
1.61854
1.61862
1.61837
1.6182
1.61826
1.61758
1.60886
1.60883
1.60881
1.60879
1.60876
1.60876
1.60869
1.60873
1.60861
1.60869
1.60852
1.60866
1.60842
1.60861
1.60831
1.60854
1.60819
1.60843
1.6081
1.60824
1.60803
1.60793
1.60803
1.60744
1.59778
1.59776
1.59774
1.59773
1.5977
1.59772
1.59766
1.59771
1.59762
1.59772
1.59758
1.59774
1.59753
1.59776
1.59748
1.59776
1.59745
1.59773
1.59743
1.59764
1.59746
1.59744
1.59757
1.59707
1.58651
1.58648
1.58647
1.58647
1.58645
1.58647
1.58644
1.5865
1.58643
1.58655
1.58643
1.58662
1.58644
1.58669
1.58645
1.58677
1.58649
1.58682
1.58655
1.58682
1.58668
1.58673
1.58689
1.58649
1.57502
1.575
1.57499
1.57499
1.57499
1.57502
1.575
1.57508
1.57503
1.57517
1.57507
1.57529
1.57513
1.57542
1.57521
1.57557
1.57532
1.5757
1.57546
1.5758
1.57568
1.57581
1.57599
1.57569
1.56335
1.56333
1.56333
1.56333
1.56333
1.56338
1.56337
1.56347
1.56343
1.56359
1.56352
1.56376
1.56364
1.56396
1.56378
1.56417
1.56395
1.56438
1.56417
1.56457
1.56447
1.56468
1.56487
1.56468
1.55147
1.55145
1.55146
1.55147
1.55148
1.55153
1.55154
1.55165
1.55164
1.55182
1.55177
1.55203
1.55194
1.55229
1.55214
1.55257
1.55238
1.55286
1.55268
1.55313
1.55306
1.55335
1.55355
1.55346
1.53942
1.5394
1.5394
1.53942
1.53944
1.53951
1.53953
1.53965
1.53966
1.53986
1.53983
1.54012
1.54005
1.54043
1.54031
1.54078
1.54062
1.54115
1.541
1.54151
1.54145
1.54183
1.54202
1.54204
1.52717
1.52715
1.52716
1.52718
1.52721
1.52729
1.52732
1.52746
1.52749
1.52771
1.5277
1.52801
1.52797
1.52838
1.52829
1.5288
1.52867
1.52924
1.52911
1.52969
1.52965
1.53011
1.5303
1.53042
1.51475
1.51473
1.51474
1.51477
1.51481
1.5149
1.51494
1.5151
1.51514
1.51538
1.5154
1.51573
1.51571
1.51615
1.51609
1.51663
1.51652
1.51715
1.51704
1.51769
1.51765
1.51821
1.51839
1.51861
1.50215
1.50213
1.50215
1.50218
1.50223
1.50232
1.50239
1.50255
1.50261
1.50287
1.50291
1.50327
1.50327
1.50375
1.5037
1.50429
1.5042
1.50488
1.50478
1.50551
1.50545
1.50611
1.50629
1.50661
1.48939
1.48938
1.4894
1.48943
1.48949
1.48959
1.48967
1.48985
1.48992
1.4902
1.49025
1.49064
1.49066
1.49116
1.49114
1.49177
1.4917
1.49244
1.49234
1.49314
1.49309
1.49383
1.49401
1.49442
1.47647
1.47645
1.47647
1.47652
1.47658
1.47669
1.47678
1.47697
1.47706
1.47735
1.47743
1.47784
1.47788
1.47842
1.47841
1.47908
1.47902
1.47982
1.47972
1.4806
1.48054
1.48136
1.48155
1.48204
1.46339
1.46338
1.46341
1.46346
1.46353
1.46364
1.46374
1.46394
1.46405
1.46436
1.46445
1.46488
1.46494
1.46551
1.46551
1.46623
1.46617
1.46704
1.46693
1.46789
1.46783
1.46872
1.46892
1.46949
1.45017
1.45016
1.45019
1.45024
1.45032
1.45044
1.45055
1.45076
1.45088
1.45121
1.45131
1.45177
1.45183
1.45245
1.45245
1.45323
1.45315
1.45409
1.45398
1.45499
1.45496
1.4559
1.45611
1.45676
1.43682
1.4368
1.43684
1.43689
1.43698
1.4371
1.43722
1.43745
1.43758
1.43792
1.43803
1.43852
1.43858
1.43924
1.43923
1.44007
1.43999
1.44098
1.44088
1.44193
1.44192
1.44291
1.44314
1.44386
1.42332
1.42331
1.42335
1.4234
1.42349
1.42363
1.42376
1.42399
1.42413
1.42449
1.4246
1.42513
1.42518
1.42589
1.42587
1.42675
1.42668
1.4277
1.42763
1.42872
1.42872
1.42976
1.43
1.43079
1.40971
1.4097
1.40974
1.4098
1.4099
1.41003
1.41017
1.41042
1.41055
1.41094
1.41104
1.4116
1.41165
1.41239
1.41238
1.41328
1.41324
1.41428
1.41423
1.41535
1.41538
1.41646
1.41671
1.41757
1.39598
1.39596
1.39601
1.39606
1.39617
1.39631
1.39646
1.39671
1.39685
1.39726
1.39736
1.39794
1.398
1.39875
1.39876
1.39968
1.39966
1.40072
1.40069
1.40184
1.40188
1.40301
1.40326
1.40418
1.38215
1.38213
1.38218
1.38223
1.38235
1.38248
1.38264
1.38289
1.38304
1.38345
1.38357
1.38415
1.38423
1.38498
1.38502
1.38595
1.38594
1.38702
1.38701
1.38819
1.38825
1.38941
1.38967
1.39065
1.3682
1.36818
1.36823
1.36828
1.3684
1.36854
1.36871
1.36894
1.36912
1.36952
1.36966
1.37025
1.37034
1.3711
1.37115
1.37209
1.3721
1.37319
1.3732
1.3744
1.37447
1.37567
1.37594
1.37698
1.35416
1.35414
1.35419
1.35425
1.35436
1.3545
1.35467
1.35491
1.35511
1.35549
1.35566
1.35623
1.35634
1.35711
1.35717
1.35811
1.35814
1.35925
1.35928
1.36049
1.36058
1.36181
1.36208
1.36317
1.34001
1.34
1.34004
1.3401
1.34022
1.34036
1.34054
1.34077
1.34098
1.34135
1.34154
1.3421
1.34224
1.343
1.34308
1.34403
1.34407
1.34519
1.34523
1.34646
1.34656
1.34782
1.34809
1.34923
1.32579
1.32577
1.32581
1.32587
1.32599
1.32613
1.32631
1.32654
1.32677
1.32713
1.32734
1.32788
1.32804
1.32879
1.32889
1.32984
1.3299
1.33102
1.33108
1.33232
1.33243
1.33372
1.33399
1.33517
1.31146
1.31144
1.31149
1.31155
1.31166
1.3118
1.31199
1.31222
1.31245
1.3128
1.31303
1.31356
1.31374
1.31448
1.3146
1.31555
1.31563
1.31675
1.31682
1.31808
1.3182
1.3195
1.31978
1.32099
1.29705
1.29703
1.29708
1.29713
1.29725
1.29739
1.29758
1.29781
1.29805
1.29839
1.29864
1.29916
1.29936
1.30009
1.30022
1.30118
1.30126
1.3024
1.30247
1.30374
1.30387
1.3052
1.30548
1.30672
1.28254
1.28252
1.28257
1.28262
1.28275
1.28288
1.28307
1.2833
1.28355
1.28389
1.28415
1.28467
1.28488
1.28562
1.28576
1.28672
1.28681
1.28795
1.28804
1.28932
1.28945
1.29079
1.29108
1.29235
1.26795
1.26793
1.26798
1.26803
1.26816
1.2683
1.26849
1.26872
1.26898
1.26932
1.26959
1.2701
1.27033
1.27106
1.27122
1.27218
1.27228
1.27344
1.27353
1.27481
1.27496
1.27632
1.2766
1.2779
1.25326
1.25324
1.25329
1.25335
1.25348
1.25362
1.25382
1.25406
1.25432
1.25466
1.25495
1.25545
1.25571
1.25644
1.25661
1.25757
1.25768
1.25884
1.25894
1.26024
1.26039
1.26175
1.26204
1.26336
1.2385
1.23848
1.23853
1.23859
1.23873
1.23887
1.23908
1.23932
1.23959
1.23994
1.24025
1.24075
1.24102
1.24174
1.24193
1.2429
1.24302
1.24418
1.2443
1.2456
1.24576
1.24713
1.24741
1.24875
1.22366
1.22364
1.2237
1.22376
1.2239
1.22405
1.22427
1.22452
1.2248
1.22515
1.22548
1.22597
1.22628
1.22698
1.2272
1.22816
1.2283
1.22946
1.22958
1.23088
1.23105
1.23242
1.23271
1.23406
1.20878
1.20876
1.20882
1.20889
1.20903
1.20919
1.20941
1.20967
1.20996
1.21032
1.21066
1.21114
1.21148
1.21216
1.21242
1.21336
1.21352
1.21468
1.21481
1.21611
1.21628
1.21766
1.21795
1.2193
1.19387
1.19385
1.1939
1.19398
1.19412
1.19429
1.19451
1.19477
1.19507
1.19543
1.19578
1.19627
1.19663
1.19729
1.19759
1.19849
1.19869
1.19983
1.19997
1.20127
1.20144
1.20282
1.2031
1.20447
1.17898
1.17895
1.17901
1.17908
1.17922
1.17939
1.17961
1.17987
1.18017
1.18053
1.18088
1.18136
1.18173
1.18238
1.1827
1.18357
1.1838
1.18492
1.18507
1.18636
1.18654
1.18791
1.18819
1.18955
1.16412
1.16409
1.16414
1.16421
1.16434
1.1645
1.16471
1.16496
1.16525
1.1656
1.16595
1.16641
1.16679
1.16741
1.16775
1.16859
1.16885
1.16993
1.1701
1.17137
1.17155
1.17291
1.17318
1.17455
1.14933
1.1493
1.14935
1.1494
1.14952
1.14967
1.14986
1.15009
1.15036
1.15068
1.15101
1.15145
1.15181
1.1524
1.15275
1.15355
1.15383
1.15486
1.15506
1.15631
1.15648
1.15784
1.15809
1.15945
1.1346
1.13457
1.1346
1.13464
1.13474
1.13486
1.13503
1.13524
1.13547
1.13577
1.13606
1.13647
1.1368
1.13736
1.13768
1.13844
1.13872
1.13971
1.13991
1.14113
1.1413
1.14266
1.1429
1.14426
1.1199
1.11987
1.11989
1.11992
1.12
1.1201
1.12024
1.12041
1.12061
1.12086
1.12112
1.12148
1.12178
1.12229
1.12258
1.12328
1.12354
1.12448
1.12467
1.12586
1.12601
1.12737
1.1276
1.12897
1.10516
1.10511
1.10513
1.10514
1.10521
1.10528
1.1054
1.10554
1.10571
1.10593
1.10615
1.10646
1.10673
1.10718
1.10743
1.10809
1.10829
1.10919
1.10934
1.11049
1.1106
1.11195
1.11216
1.11354
1.09027
1.09022
1.09024
1.09023
1.0903
1.09035
1.09047
1.09057
1.09074
1.09092
1.09113
1.0914
1.09163
1.09205
1.09223
1.09289
1.09298
1.0939
1.09393
1.09509
1.09511
1.09644
1.0966
1.09795
1.07509
1.07503
1.07505
1.07505
1.07512
1.07517
1.07529
1.07539
1.07556
1.07573
1.07594
1.0762
1.07642
1.07681
1.07697
1.07762
1.07764
1.07858
1.0785
1.07967
1.0796
1.08089
1.08098
1.08224
1.05948
1.05943
1.05945
1.05947
1.05954
1.05962
1.05975
1.05989
1.06007
1.06028
1.0605
1.06078
1.06102
1.0614
1.06161
1.06222
1.06227
1.06318
1.06309
1.06424
1.06411
1.0654
1.06541
1.06661
1.04331
1.04327
1.0433
1.04333
1.04343
1.04354
1.04371
1.04389
1.04412
1.04438
1.04465
1.04498
1.04529
1.04571
1.04601
1.0466
1.04676
1.04763
1.0476
1.04876
1.04861
1.04994
1.0499
1.05111
1.02651
1.02647
1.02652
1.02657
1.0267
1.02685
1.02707
1.02731
1.0276
1.02793
1.02828
1.0287
1.02909
1.0296
1.03
1.03066
1.03094
1.03186
1.03192
1.03317
1.03302
1.03446
1.03437
1.03568
1.00902
1.00898
1.00905
1.00912
1.00929
1.00947
1.00975
1.01003
1.01041
1.0108
1.01127
1.01175
1.01229
1.01289
1.01344
1.01421
1.01463
1.0157
1.01586
1.01728
1.0172
1.0188
1.01872
1.0202
0.990873
0.990846
0.990925
0.99101
0.991206
0.991426
0.991743
0.992083
0.992523
0.99298
0.993535
0.994116
0.994758
0.995479
0.996172
0.997069
0.997683
0.998917
0.999259
1.00088
1.00096
1.0028
1.00279
1.00455
0.972126
0.97211
0.972185
0.972292
0.972497
0.972751
0.973089
0.973479
0.973949
0.97448
0.975077
0.975754
0.976469
0.977296
0.978114
0.979109
0.979956
0.981241
0.981921
0.983641
0.984017
0.986152
0.986299
0.988491
0.952897
0.952888
0.952961
0.953075
0.953289
0.953557
0.953909
0.954321
0.954815
0.955376
0.95601
0.956729
0.957495
0.958379
0.959278
0.960347
0.96134
0.96266
0.963655
0.96536
0.966156
0.968439
0.968891
0.971647
0.933292
0.933285
0.933353
0.933469
0.933683
0.933952
0.934307
0.934722
0.935223
0.93579
0.936435
0.937164
0.937953
0.938852
0.939782
0.940875
0.941923
0.943263
0.944389
0.946064
0.947164
0.949403
0.950182
0.953384
0.913457
0.913444
0.913508
0.91362
0.913828
0.914088
0.914437
0.914841
0.915334
0.915887
0.916525
0.917235
0.918015
0.918894
0.919817
0.920888
0.921934
0.923249
0.924374
0.926021
0.927131
0.929323
0.930151
0.933349
0.893495
0.893471
0.89353
0.893634
0.893833
0.894078
0.894413
0.894796
0.895272
0.895798
0.896415
0.89709
0.897849
0.898685
0.899578
0.900597
0.901609
0.902857
0.903928
0.905518
0.906516
0.908661
0.909359
0.912294
0.87353
0.873489
0.873544
0.873638
0.873824
0.874049
0.874367
0.874723
0.875176
0.875666
0.876254
0.876884
0.877605
0.878386
0.879236
0.880188
0.881153
0.882316
0.883329
0.884819
0.885739
0.887759
0.888398
0.891115
0.853629
0.853573
0.853625
0.853705
0.853878
0.854081
0.85438
0.854704
0.855132
0.85558
0.856138
0.856714
0.857401
0.858116
0.858923
0.859795
0.860708
0.861774
0.862728
0.864109
0.864959
0.86683
0.867428
0.869937
0.833879
0.833816
0.833867
0.833927
0.834093
0.834266
0.834551
0.834835
0.835244
0.835638
0.836174
0.836681
0.837339
0.837973
0.838744
0.839528
0.840391
0.841358
0.842253
0.843524
0.84431
0.846025
0.84659
0.848891
0.814331
0.814262
0.814313
0.81435
0.814512
0.81465
0.814927
0.815163
0.815561
0.815892
0.816415
0.816842
0.817489
0.818025
0.818779
0.819451
0.820282
0.821141
0.821974
0.823134
0.823868
0.825421
0.825957
0.828051
0.795051
0.79498
0.795023
0.795049
0.795193
0.795314
0.795564
0.795773
0.796138
0.796428
0.796915
0.797285
0.797894
0.798353
0.799073
0.799648
0.800442
0.801192
0.801982
0.803018
0.803706
0.805097
0.805608
0.807496
0.776064
0.77599
0.776022
0.776044
0.776163
0.776277
0.776488
0.776686
0.776999
0.777274
0.777698
0.778045
0.778586
0.779007
0.779656
0.78017
0.780901
0.781554
0.782307
0.783205
0.783857
0.785088
0.785578
0.787265
0.757416
0.757341
0.757362
0.757379
0.757477
0.757578
0.757759
0.757938
0.758211
0.758461
0.758832
0.759149
0.759622
0.760007
0.760584
0.761047
0.761711
0.76228
0.762993
0.763741
0.764375
0.765451
0.765921
0.76741
0.739116
0.739041
0.739053
0.739063
0.739143
0.739229
0.739386
0.739541
0.73978
0.74
0.740327
0.74061
0.74103
0.74137
0.741886
0.742289
0.742891
0.74338
0.744041
0.744664
0.745282
0.746198
0.746649
0.747945
0.721202
0.721126
0.721131
0.721132
0.721198
0.721268
0.721402
0.721534
0.721741
0.721931
0.722218
0.72246
0.722832
0.723125
0.723585
0.723931
0.724476
0.724886
0.725496
0.726006
0.726609
0.727362
0.727799
0.728908
0.703672
0.703595
0.703594
0.703587
0.703639
0.703693
0.703806
0.703915
0.704094
0.704253
0.704505
0.70471
0.705038
0.705284
0.705694
0.70598
0.706469
0.706806
0.70736
0.707775
0.708349
0.708949
0.709376
0.710303
0.686554
0.686478
0.68647
0.686456
0.686495
0.686534
0.686628
0.686714
0.686867
0.686996
0.687213
0.687378
0.687666
0.687865
0.688228
0.688459
0.688898
0.689165
0.689669
0.689991
0.690528
0.690986
0.691405
0.692161
0.669842
0.669765
0.669753
0.669731
0.669759
0.669784
0.669859
0.669924
0.670051
0.670151
0.670337
0.670469
0.670718
0.670873
0.671191
0.671367
0.671756
0.671957
0.67241
0.672651
0.673143
0.673473
0.673883
0.674479
0.653557
0.653481
0.653463
0.653436
0.653452
0.653463
0.653521
0.653566
0.65367
0.653743
0.653898
0.653993
0.654206
0.654319
0.654595
0.654721
0.655064
0.655201
0.655607
0.655767
0.656216
0.656437
0.656835
0.657277
0.637688
0.637612
0.63759
0.637557
0.637563
0.637562
0.637604
0.637629
0.637711
0.637758
0.637886
0.63795
0.638129
0.638201
0.638438
0.638513
0.638812
0.63889
0.63925
0.639336
0.63974
0.639864
0.640251
0.640542
0.622252
0.622178
0.622152
0.622113
0.62211
0.622097
0.622123
0.622131
0.622192
0.622215
0.622315
0.622346
0.622493
0.622528
0.622727
0.622758
0.623017
0.623038
0.623356
0.623372
0.623736
0.623771
0.624136
0.624288
0.607236
0.607162
0.607133
0.607088
0.607077
0.607052
0.607065
0.607056
0.607097
0.607097
0.607174
0.607178
0.607294
0.607293
0.607457
0.607443
0.607663
0.60763
0.607908
0.607859
0.608186
0.608139
0.608477
0.608502
0.592652
0.59258
0.592548
0.592499
0.592479
0.592445
0.592445
0.592419
0.592443
0.592421
0.592472
0.592448
0.592535
0.592501
0.592633
0.592579
0.592762
0.59268
0.59292
0.592809
0.593099
0.592974
0.593284
0.593195
0.578485
0.578414
0.578379
0.578326
0.578299
0.578255
0.578243
0.578202
0.578209
0.578167
0.578199
0.578149
0.57821
0.578144
0.578244
0.578151
0.578299
0.57817
0.578374
0.578204
0.57846
0.578259
0.578542
0.57835
0.564745
0.564676
0.564639
0.564582
0.564549
0.564496
0.564472
0.564418
0.564409
0.564349
0.564358
0.564284
0.56432
0.564225
0.564297
0.564169
0.564285
0.564112
0.564283
0.564058
0.564282
0.56401
0.564269
0.563981
0.551414
0.551347
0.551308
0.551247
0.551208
0.551147
0.551113
0.551047
0.551023
0.550946
0.550938
0.550843
0.550856
0.550733
0.550777
0.550615
0.550702
0.550488
0.550627
0.550352
0.550547
0.550209
0.550448
0.550069
0.538501
0.538436
0.538395
0.538332
0.538288
0.53822
0.538177
0.538098
0.538061
0.537967
0.537941
0.537824
0.537817
0.537669
0.53769
0.537497
0.537557
0.537305
0.537417
0.537094
0.537264
0.536865
0.537087
0.536625
0.525987
0.525924
0.525881
0.525816
0.525766
0.525691
0.525639
0.525551
0.525502
0.525394
0.525353
0.525218
0.525191
0.525019
0.525016
0.524795
0.52483
0.524544
0.52463
0.524263
0.524411
0.523956
0.524162
0.523625
0.513877
0.513816
0.513772
0.513705
0.513651
0.513571
0.513511
0.513413
0.513353
0.51323
0.513173
0.513021
0.512977
0.512784
0.512762
0.512515
0.512528
0.512209
0.512273
0.511866
0.511993
0.511487
0.511679
0.511073
0.502153
0.502093
0.502049
0.501979
0.501921
0.501835
0.501769
0.501662
0.501591
0.501458
0.501389
0.501221
0.50116
0.500947
0.500905
0.500634
0.500626
0.500278
0.500321
0.499878
0.499986
0.499433
0.499613
0.498945
0.490817
0.49076
0.490715
0.490645
0.490583
0.490493
0.49042
0.490305
0.490225
0.490079
0.489997
0.489815
0.48974
0.48951
0.489451
0.489158
0.489131
0.488757
0.48878
0.488304
0.488395
0.4878
0.487971
0.487241
0.479853
0.479798
0.479752
0.47968
0.479615
0.47952
0.479441
0.479319
0.479231
0.479076
0.478984
0.478788
0.478698
0.478451
0.478376
0.478064
0.478019
0.477621
0.477626
0.47712
0.477195
0.476559
0.476722
0.475939
0.46926
0.469207
0.469161
0.469089
0.469021
0.468923
0.468839
0.46871
0.468614
0.468449
0.468346
0.468139
0.468037
0.467776
0.467686
0.467356
0.467295
0.466875
0.466863
0.46633
0.46639
0.465719
0.465868
0.465044
0.459022
0.458972
0.458925
0.458851
0.458781
0.458679
0.45859
0.458455
0.458353
0.458181
0.458068
0.45785
0.457736
0.457461
0.457357
0.457011
0.456934
0.456495
0.456467
0.45591
0.455954
0.455253
0.455394
0.454523
0.449139
0.449091
0.449044
0.44897
0.448898
0.448793
0.448701
0.44856
0.448451
0.44827
0.448149
0.447921
0.447797
0.447511
0.447395
0.447033
0.446943
0.446486
0.446442
0.445863
0.445894
0.445164
0.445293
0.444387
0.439594
0.439547
0.439501
0.439426
0.439352
0.439243
0.439147
0.439002
0.438888
0.438701
0.438572
0.438335
0.4382
0.437902
0.437775
0.4374
0.437296
0.436823
0.436765
0.436167
0.436184
0.435428
0.435549
0.434604
0.430386
0.430341
0.430295
0.43022
0.430145
0.430035
0.429935
0.429786
0.429665
0.429471
0.429336
0.429091
0.428949
0.428641
0.428503
0.428116
0.428
0.427513
0.427442
0.426826
0.426829
0.426051
0.426162
0.425185
0.421499
0.421456
0.42141
0.421334
0.421258
0.421145
0.421043
0.42089
0.420765
0.420566
0.420424
0.420171
0.420021
0.419703
0.419556
0.419159
0.419032
0.418532
0.418448
0.417818
0.417808
0.41701
0.41711
0.416103
0.412931
0.412891
0.412845
0.412769
0.412692
0.412578
0.412473
0.412316
0.412188
0.411983
0.411837
0.411578
0.411421
0.411095
0.41094
0.410532
0.410397
0.409885
0.409791
0.409147
0.409126
0.408312
0.408401
0.407371
0.404668
0.404629
0.404583
0.404508
0.404429
0.404313
0.404206
0.404047
0.403915
0.403706
0.403554
0.403289
0.403126
0.402793
0.402632
0.402214
0.402072
0.401548
0.401448
0.400789
0.400761
0.399931
0.400014
0.398965
0.396706
0.396669
0.396624
0.396549
0.39647
0.396353
0.396244
0.396081
0.395947
0.395734
0.39558
0.395309
0.395142
0.394801
0.394635
0.394209
0.394061
0.393527
0.393422
0.39275
0.392718
0.391874
0.391952
0.39089
0.389032
0.388997
0.388952
0.388876
0.388797
0.388678
0.388568
0.388403
0.388266
0.38805
0.387891
0.387615
0.387444
0.387098
0.386927
0.386493
0.386341
0.385797
0.385688
0.385005
0.38497
0.384113
0.384188
0.383116
0.381642
0.381609
0.381564
0.381489
0.38141
0.38129
0.38118
0.381012
0.380874
0.380654
0.380493
0.380213
0.380039
0.379687
0.379512
0.379073
0.378916
0.378365
0.378251
0.37756
0.37752
0.376654
0.376725
0.375643
0.374524
0.374492
0.374448
0.374373
0.374293
0.374172
0.37406
0.373891
0.373751
0.373528
0.373364
0.373081
0.372903
0.372547
0.372368
0.371924
0.371762
0.371206
0.371087
0.370389
0.370344
0.369471
0.369536
0.368446
0.367674
0.367643
0.367599
0.367525
0.367445
0.367324
0.367212
0.367041
0.3669
0.366675
0.366509
0.366223
0.366042
0.365683
0.3655
0.365052
0.364885
0.364325
0.3642
0.363498
0.363447
0.362568
0.362628
0.361531
0.361078
0.361049
0.361006
0.360931
0.360851
0.36073
0.360616
0.360444
0.360301
0.360074
0.359907
0.359618
0.359435
0.359072
0.358886
0.358434
0.358264
0.3577
0.35757
0.356864
0.356807
0.355924
0.355978
0.354875
0.354736
0.354708
0.354665
0.354591
0.354512
0.35439
0.354276
0.354103
0.35396
0.353731
0.353563
0.353271
0.353086
0.352721
0.352532
0.352077
0.351903
0.351336
0.351201
0.350493
0.350429
0.349544
0.349593
0.348485
0.348633
0.348606
0.348564
0.34849
0.34841
0.348288
0.348174
0.348
0.347855
0.347625
0.347455
0.347161
0.346975
0.346607
0.346416
0.345959
0.345781
0.345212
0.345073
0.344363
0.344296
0.343404
0.34345
0.342338
0.342769
0.342743
0.342702
0.342628
0.342549
0.342426
0.342313
0.342137
0.341993
0.341761
0.341591
0.341295
0.341108
0.340738
0.340546
0.340085
0.339906
0.339335
0.339192
0.338479
0.33841
0.337514
0.337556
0.336442
0.337129
0.337104
0.337063
0.33699
0.336911
0.336787
0.336674
0.336498
0.336354
0.33612
0.33595
0.335652
0.335465
0.335091
0.3349
0.334436
0.334256
0.333682
0.333538
0.332823
0.332748
0.331855
0.331892
0.330776
0.331716
0.331691
0.331651
0.331577
0.331499
0.331376
0.331263
0.331085
0.330943
0.330706
0.330538
0.330237
0.330052
0.329675
0.329484
0.329017
0.328838
0.32826
0.328117
0.327399
0.327324
0.326427
0.326461
0.325348
0.326512
0.326488
0.326448
0.326375
0.326297
0.326173
0.326061
0.325882
0.325741
0.325502
0.325336
0.325031
0.324849
0.324468
0.32428
0.323808
0.323632
0.323049
0.32291
0.322186
0.322114
0.321214
0.321248
0.320135
0.321521
0.321498
0.321459
0.321386
0.321309
0.321184
0.321074
0.320893
0.320754
0.320513
0.320349
0.320041
0.319862
0.319476
0.319293
0.318815
0.318645
0.318055
0.317921
0.317192
0.317126
0.31622
0.316255
0.315145
0.316728
0.316706
0.316667
0.316593
0.316518
0.316392
0.316283
0.316101
0.315963
0.31572
0.315559
0.315247
0.315072
0.314681
0.314504
0.31402
0.313857
0.313259
0.313133
0.312395
0.312338
0.311428
0.311464
0.310359
0.312135
0.312114
0.312075
0.312002
0.311928
0.311801
0.311694
0.31151
0.311375
0.311129
0.310972
0.310656
0.310486
0.310089
0.309919
0.309427
0.309272
0.308666
0.308551
0.307803
0.307754
0.306842
0.306878
0.305779
0.307728
0.307707
0.30767
0.307596
0.307523
0.307395
0.30729
0.307104
0.306972
0.306723
0.30657
0.30625
0.306085
0.305683
0.305519
0.305021
0.304874
0.304261
0.304152
0.303401
0.303356
0.302443
0.302479
0.301387
0.303511
0.30349
0.303453
0.303379
0.303307
0.303179
0.303075
0.302888
0.302758
0.302507
0.302357
0.302035
0.301874
0.301469
0.301309
0.300807
0.300666
0.300047
0.299947
0.299189
0.299149
0.298237
0.298272
0.297182
0.299468
0.299448
0.299411
0.299337
0.299267
0.299137
0.299036
0.298847
0.29872
0.298467
0.298321
0.297994
0.297838
0.297429
0.297276
0.296767
0.296635
0.296008
0.295917
0.295154
0.295117
0.294206
0.29424
0.293157
0.295604
0.295583
0.295548
0.295473
0.295404
0.295273
0.295175
0.294983
0.294861
0.294603
0.294463
0.294131
0.293983
0.293566
0.293424
0.292905
0.292784
0.29215
0.292067
0.2913
0.291266
0.290357
0.290389
0.289311
0.291905
0.291885
0.29185
0.291775
0.291708
0.291575
0.29148
0.291285
0.291168
0.290904
0.290772
0.290432
0.290296
0.289866
0.289738
0.289208
0.289101
0.288456
0.28838
0.287613
0.287581
0.286674
0.286705
0.285637
0.288374
0.288353
0.28832
0.288243
0.288179
0.288043
0.287953
0.287753
0.287644
0.287372
0.287251
0.2869
0.286777
0.286336
0.286221
0.285681
0.285583
0.284935
0.284863
0.284096
0.284065
0.283163
0.283191
0.282128
0.285
0.28498
0.284947
0.284869
0.284808
0.284669
0.284584
0.284378
0.284277
0.283997
0.283887
0.283526
0.283414
0.282965
0.282858
0.282314
0.28222
0.281571
0.281502
0.280737
0.280705
0.279808
0.279833
0.278782
0.281784