/*--------------------------------*- C++ -*----------------------------------*\
  =========                 |
  \\      /  F ield         | OpenFOAM: The Open Source CFD Toolbox
   \\    /   O peration     | Website:  https://openfoam.org
    \\  /    A nd           | Version:  10
     \\/     M anipulation  |
\*---------------------------------------------------------------------------*/
FoamFile
{
    format      ascii;
    class       volScalarField;
    location    "0.13";
    object      p;
}
// * * * * * * * * * * * * * * * * * * * * * * * * * * * * * * * * * * * * * //

dimensions      [1 -1 -2 0 0 0 0];

internalField   nonuniform List<scalar> 
4176
(
1601.41
1601.6
1602.11
1602.74
1603.81
1604.83
1606.46
1607.85
1610.04
1611.83
1614.53
1616.76
1619.88
1622.64
1626.02
1629.52
1632.81
1637.45
1640.4
1646.4
1648.75
1656.37
1657.56
1666.29
1601.82
1602.01
1602.47
1603.08
1604.04
1605.04
1606.51
1607.88
1609.86
1611.6
1614.07
1616.2
1619.11
1621.71
1624.9
1628.14
1631.29
1635.57
1638.39
1643.95
1646.06
1653.51
1654.75
1664.53
1603.06
1603.25
1603.72
1604.35
1605.33
1606.34
1607.84
1609.24
1611.26
1613.03
1615.56
1617.72
1620.7
1623.33
1626.63
1629.9
1633.17
1637.54
1640.35
1646.07
1648.15
1655.49
1656.64
1666.1
1604.97
1605.16
1605.62
1606.23
1607.19
1608.18
1609.66
1611.02
1613.02
1614.73
1617.24
1619.32
1622.3
1624.83
1628.12
1631.3
1634.55
1638.95
1641.48
1647.37
1649.3
1656.54
1657.61
1666.47
1607.66
1607.85
1608.31
1608.92
1609.87
1610.87
1612.33
1613.7
1615.67
1617.4
1619.89
1621.98
1624.93
1627.46
1630.76
1633.88
1637.26
1641.48
1644.18
1649.97
1651.99
1659.18
1660.33
1669.18
1611.09
1611.27
1611.73
1612.33
1613.27
1614.26
1615.7
1617.06
1619
1620.72
1623.16
1625.25
1628.16
1630.66
1633.94
1636.99
1640.41
1644.43
1647.36
1652.89
1654.98
1662.09
1663.31
1672.25
1615.27
1615.46
1615.91
1616.51
1617.44
1618.43
1619.85
1621.2
1623.12
1624.83
1627.25
1629.32
1632.2
1634.68
1637.94
1640.94
1644.38
1648.27
1651.29
1656.67
1658.84
1665.85
1667.11
1675.93
1620.21
1620.4
1620.84
1621.44
1622.36
1623.33
1624.74
1626.08
1627.97
1629.66
1632.05
1634.1
1636.95
1639.4
1642.64
1645.58
1649.02
1652.78
1655.89
1661.09
1663.34
1670.24
1671.54
1680.26
1625.91
1626.1
1626.53
1627.13
1628.03
1629
1630.39
1631.72
1633.59
1635.26
1637.62
1639.64
1642.47
1644.88
1648.1
1650.98
1654.42
1658.06
1661.24
1666.27
1668.59
1675.36
1676.69
1685.29
1632.37
1632.56
1632.99
1633.58
1634.47
1635.43
1636.8
1638.11
1639.96
1641.61
1643.95
1645.94
1648.73
1651.1
1654.29
1657.12
1660.55
1664.08
1667.3
1672.16
1674.56
1681.16
1682.54
1691.01
1639.6
1639.79
1640.22
1640.8
1641.68
1642.63
1643.98
1645.27
1647.1
1648.73
1651.03
1652.99
1655.76
1658.08
1661.24
1664.01
1667.42
1670.85
1674.11
1678.81
1681.27
1687.69
1689.1
1697.44
1647.61
1647.8
1648.22
1648.79
1649.66
1650.6
1651.93
1653.21
1655.01
1656.61
1658.88
1660.81
1663.54
1665.81
1668.94
1671.65
1675.04
1678.37
1681.65
1686.19
1688.7
1694.95
1696.39
1704.57
1656.41
1656.59
1657
1657.57
1658.43
1659.35
1660.66
1661.92
1663.69
1665.27
1667.51
1669.4
1672.09
1674.32
1677.41
1680.05
1683.41
1686.64
1689.95
1694.32
1696.88
1702.95
1704.4
1712.43
1665.99
1666.17
1666.58
1667.14
1667.98
1668.89
1670.18
1671.41
1673.16
1674.71
1676.92
1678.77
1681.42
1683.6
1686.65
1689.22
1692.55
1695.68
1699
1703.2
1705.8
1711.69
1713.15
1721.01
1676.38
1676.56
1676.96
1677.51
1678.34
1679.23
1680.5
1681.71
1683.42
1684.94
1687.11
1688.92
1691.53
1693.66
1696.67
1699.17
1702.46
1705.49
1708.8
1712.84
1715.48
1721.19
1722.65
1730.33
1687.59
1687.76
1688.16
1688.7
1689.51
1690.38
1691.62
1692.81
1694.49
1695.97
1698.1
1699.87
1702.44
1704.51
1707.47
1709.9
1713.15
1716.08
1719.38
1723.26
1725.92
1731.42
1732.92
1740.41
1699.61
1699.79
1700.18
1700.7
1701.5
1702.35
1703.57
1704.72
1706.37
1707.81
1709.9
1711.62
1714.14
1716.15
1719.07
1721.42
1724.63
1727.46
1730.73
1734.44
1737.13
1742.43
1743.95
1751.25
1712.48
1712.65
1713.03
1713.55
1714.33
1715.16
1716.34
1717.47
1719.08
1720.48
1722.52
1724.19
1726.66
1728.61
1731.47
1733.74
1736.9
1739.63
1742.87
1746.42
1749.13
1754.22
1755.77
1762.85
1726.19
1726.36
1726.73
1727.24
1728
1728.8
1729.96
1731.06
1732.63
1733.99
1735.98
1737.59
1740.01
1741.89
1744.69
1746.88
1749.98
1752.6
1755.81
1759.19
1761.92
1766.8
1768.37
1775.23
1740.77
1740.94
1741.3
1741.79
1742.53
1743.31
1744.44
1745.5
1747.02
1748.34
1750.28
1751.84
1754.19
1756
1758.73
1760.84
1763.88
1766.39
1769.56
1772.77
1775.51
1780.18
1781.77
1788.41
1756.22
1756.39
1756.74
1757.22
1757.93
1758.69
1759.78
1760.8
1762.29
1763.55
1765.44
1766.93
1769.22
1770.96
1773.63
1775.64
1778.61
1781.01
1784.12
1787.18
1789.91
1794.37
1795.98
1802.39
1772.57
1772.73
1773.07
1773.53
1774.22
1774.95
1776.01
1776.99
1778.42
1779.64
1781.47
1782.9
1785.12
1786.78
1789.37
1791.3
1794.2
1796.48
1799.52
1802.42
1805.15
1809.38
1811
1817.18
1789.82
1789.98
1790.3
1790.75
1791.41
1792.11
1793.13
1794.07
1795.45
1796.61
1798.38
1799.75
1801.9
1803.48
1806
1807.82
1810.64
1812.8
1815.78
1818.52
1821.22
1825.23
1826.86
1832.79
1807.98
1808.14
1808.45
1808.88
1809.52
1810.18
1811.16
1812.06
1813.39
1814.49
1816.2
1817.49
1819.57
1821.07
1823.51
1825.23
1827.97
1830
1832.91
1835.48
1838.16
1841.93
1843.56
1849.24
1827.08
1827.24
1827.54
1827.94
1828.55
1829.19
1830.12
1830.97
1832.25
1833.29
1834.93
1836.15
1838.16
1839.56
1841.92
1843.53
1846.19
1848.1
1850.92
1853.33
1855.97
1859.51
1861.13
1866.54
1847.13
1847.28
1847.56
1847.95
1848.53
1849.13
1850.03
1850.82
1852.05
1853.02
1854.59
1855.73
1857.66
1858.97
1861.25
1862.75
1865.32
1867.1
1869.83
1872.08
1874.68
1877.98
1879.58
1884.72
1868.13
1868.28
1868.55
1868.92
1869.47
1870.04
1870.88
1871.63
1872.8
1873.7
1875.2
1876.26
1878.11
1879.32
1881.51
1882.9
1885.38
1887.02
1889.67
1891.75
1894.29
1897.34
1898.94
1903.81
1890.11
1890.25
1890.51
1890.86
1891.38
1891.91
1892.72
1893.41
1894.51
1895.36
1896.78
1897.76
1899.52
1900.63
1902.72
1904
1906.38
1907.89
1910.44
1912.35
1914.82
1917.63
1919.22
1923.81
1913.07
1913.21
1913.46
1913.79
1914.28
1914.78
1915.53
1916.18
1917.22
1917.99
1919.34
1920.23
1921.91
1922.91
1924.91
1926.06
1928.34
1929.71
1932.17
1933.91
1936.3
1938.85
1940.42
1944.74
1937.05
1937.19
1937.41
1937.72
1938.18
1938.64
1939.35
1939.94
1940.92
1941.63
1942.9
1943.7
1945.29
1946.19
1948.09
1949.11
1951.29
1952.51
1954.86
1956.43
1958.74
1961.04
1962.6
1966.6
1962.05
1962.18
1962.39
1962.68
1963.11
1963.53
1964.19
1964.73
1965.65
1966.28
1967.48
1968.19
1969.69
1970.48
1972.28
1973.17
1975.24
1976.31
1978.56
1979.95
1982.17
1984.22
1985.76
1989.43
1988.08
1988.21
1988.41
1988.68
1989.07
1989.46
1990.07
1990.55
1991.41
1991.96
1993.09
1993.71
1995.12
1995.8
1997.49
1998.26
2000.22
2001.13
2003.26
2004.47
2006.59
2008.41
2009.93
2013.27
2015.17
2015.3
2015.48
2015.73
2016.09
2016.43
2017
2017.42
2018.22
2018.7
2019.75
2020.28
2021.59
2022.17
2023.76
2024.39
2026.24
2027
2029.01
2030.04
2032.05
2033.63
2035.12
2038.13
2043.34
2043.46
2043.63
2043.85
2044.18
2044.49
2045
2045.37
2046.1
2046.51
2047.47
2047.91
2049.14
2049.6
2051.1
2051.59
2053.33
2053.93
2055.83
2056.66
2058.56
2059.9
2061.35
2064.02
2072.59
2072.71
2072.86
2073.06
2073.36
2073.63
2074.1
2074.41
2075.07
2075.41
2076.29
2076.64
2077.77
2078.12
2079.51
2079.88
2081.51
2081.94
2083.73
2084.36
2086.15
2087.25
2088.65
2090.97
2102.95
2103.07
2103.21
2103.39
2103.65
2103.88
2104.3
2104.56
2105.15
2105.42
2106.22
2106.47
2107.51
2107.75
2109.03
2109.26
2110.78
2111.05
2112.73
2113.17
2114.84
2115.7
2117.03
2119
2134.44
2134.55
2134.68
2134.84
2135.07
2135.27
2135.63
2135.84
2136.37
2136.56
2137.28
2137.44
2138.38
2138.5
2139.68
2139.77
2141.18
2141.28
2142.85
2143.1
2144.66
2145.28
2146.51
2148.13
2167.07
2167.18
2167.29
2167.44
2167.64
2167.8
2168.12
2168.26
2168.73
2168.84
2169.49
2169.55
2170.4
2170.4
2171.48
2171.42
2172.72
2172.65
2174.11
2174.16
2175.62
2176
2177.14
2178.39
2200.88
2200.99
2201.08
2201.2
2201.38
2201.5
2201.77
2201.86
2202.26
2202.3
2202.87
2202.84
2203.59
2203.47
2204.45
2204.24
2205.43
2205.19
2206.53
2206.37
2207.72
2207.87
2208.93
2209.82
2235.88
2235.98
2236.06
2236.16
2236.31
2236.39
2236.61
2236.65
2236.99
2236.95
2237.44
2237.31
2237.98
2237.74
2238.61
2238.25
2239.33
2238.91
2240.13
2239.76
2241
2240.9
2241.88
2242.44
2272.09
2272.19
2272.26
2272.34
2272.45
2272.49
2272.67
2272.65
2272.92
2272.82
2273.22
2273
2273.57
2273.21
2273.98
2273.48
2274.44
2273.84
2274.95
2274.36
2275.48
2275.12
2276
2276.27
2309.54
2309.64
2309.69
2309.75
2309.83
2309.83
2309.96
2309.89
2310.09
2309.91
2310.24
2309.92
2310.4
2309.92
2310.58
2309.93
2310.79
2310
2311.01
2310.18
2311.21
2310.57
2311.35
2311.29
2348.25
2348.35
2348.39
2348.42
2348.47
2348.44
2348.51
2348.38
2348.52
2348.26
2348.5
2348.09
2348.48
2347.87
2348.44
2347.63
2348.39
2347.41
2348.32
2347.26
2348.19
2347.26
2347.96
2347.54
2388.25
2388.34
2388.36
2388.38
2388.39
2388.32
2388.34
2388.16
2388.23
2387.89
2388.05
2387.54
2387.83
2387.1
2387.56
2386.61
2387.26
2386.09
2386.9
2385.6
2386.45
2385.23
2385.86
2385.07
2429.55
2429.64
2429.65
2429.64
2429.62
2429.51
2429.48
2429.23
2429.23
2428.82
2428.9
2428.28
2428.47
2427.62
2427.98
2426.87
2427.42
2426.05
2426.77
2425.23
2426.01
2424.48
2425.06
2423.91
2472.18
2472.27
2472.26
2472.23
2472.17
2472.02
2471.94
2471.64
2471.57
2471.07
2471.06
2470.35
2470.44
2469.46
2469.71
2468.44
2468.88
2467.32
2467.95
2466.16
2466.87
2465.03
2465.58
2464.03
2516.16
2516.24
2516.22
2516.17
2516.08
2515.88
2515.75
2515.38
2515.24
2514.67
2514.57
2513.75
2513.74
2512.64
2512.78
2511.35
2511.68
2509.92
2510.45
2508.4
2509.06
2506.89
2507.44
2505.46
2561.5
2561.58
2561.54
2561.47
2561.34
2561.11
2560.92
2560.49
2560.28
2559.62
2559.43
2558.51
2558.41
2557.17
2557.21
2555.61
2555.84
2553.87
2554.31
2551.99
2552.59
2550.07
2550.65
2548.24
2608.23
2608.31
2608.25
2608.16
2607.99
2607.72
2607.47
2606.98
2606.69
2605.95
2605.68
2604.65
2604.45
2603.07
2603.01
2601.24
2601.38
2599.18
2599.56
2596.95
2597.51
2594.6
2595.24
2592.39
2656.35
2656.42
2656.35
2656.24
2656.03
2655.72
2655.41
2654.86
2654.5
2653.68
2653.32
2652.18
2651.88
2650.37
2650.21
2648.26
2648.31
2645.88
2646.2
2643.28
2643.85
2640.53
2641.18
2637.93
2705.88
2705.95
2705.86
2705.73
2705.48
2705.13
2704.77
2704.16
2703.73
2702.82
2702.37
2701.12
2700.73
2699.07
2698.82
2696.68
2696.66
2693.98
2694.25
2691.01
2691.62
2687.87
2688.53
2684.87
2756.82
2756.89
2756.79
2756.63
2756.35
2755.96
2755.54
2754.87
2754.37
2753.38
2752.85
2751.48
2751.01
2749.2
2748.86
2746.53
2746.45
2743.5
2743.76
2740.15
2740.8
2736.68
2737.3
2733.26
2809.19
2809.26
2809.14
2808.96
2808.65
2808.22
2807.74
2807.01
2806.44
2805.37
2804.76
2803.27
2802.72
2800.75
2800.36
2797.8
2797.69
2794.45
2794.75
2790.74
2791.38
2786.94
2787.51
2783.09
2862.99
2863.05
2862.92
2862.72
2862.37
2861.9
2861.38
2860.59
2859.96
2858.79
2858.12
2856.5
2855.9
2853.74
2853.32
2850.5
2850.42
2846.82
2847.17
2842.85
2843.42
2838.68
2839.2
2834.4
2918.22
2918.28
2918.13
2917.91
2917.53
2917.03
2916.45
2915.61
2914.91
2913.65
2912.93
2911.17
2910.54
2908.16
2907.77
2904.65
2904.63
2900.71
2901
2896.44
2896.93
2891.9
2892.36
2887.2
2974.87
2974.93
2974.77
2974.54
2974.12
2973.59
2972.96
2972.06
2971.31
2969.95
2969.21
2967.27
2966.67
2964.04
2963.69
2960.29
2960.24
2956.12
2956.32
2951.54
2951.93
2946.63
2947.03
2941.51
3032.94
3033.02
3032.84
3032.6
3032.14
3031.58
3030.91
3029.94
3029.18
3027.68
3026.97
3024.81
3024.26
3021.4
3021.03
3017.47
3017.31
3013.03
3013.12
3008.14
3008.43
3002.87
3003.2
2997.34
3092.44
3092.53
3092.31
3092.09
3091.58
3091.02
3090.29
3089.26
3088.5
3086.86
3086.15
3083.87
3083.25
3080.29
3079.82
3076.14
3075.88
3071.44
3071.42
3066.25
3066.45
3060.63
3060.91
3054.7
3153.37
3153.45
3153.22
3153
3152.44
3151.89
3151.09
3150.04
3149.22
3147.53
3146.76
3144.4
3143.7
3140.65
3140.09
3136.29
3135.93
3131.35
3131.23
3125.87
3125.98
3119.92
3120.14
3113.61
3215.7
3215.79
3215.55
3215.32
3214.74
3214.16
3213.31
3212.29
3211.36
3209.65
3208.81
3206.38
3205.61
3202.48
3201.83
3197.94
3197.48
3192.77
3192.55
3187.02
3187.04
3180.74
3180.9
3174.05
3279.45
3279.55
3279.31
3279.05
3278.47
3277.87
3276.97
3275.97
3274.9
3273.26
3272.28
3269.83
3268.99
3265.79
3265.05
3261.07
3260.51
3255.68
3255.37
3249.67
3249.61
3243.1
3243.19
3236.05
3344.62
3344.72
3344.48
3344.21
3343.62
3343
3342.08
3341.06
3339.91
3338.31
3337.18
3334.77
3333.82
3330.56
3329.74
3325.67
3325.03
3320.09
3319.69
3313.83
3313.69
3306.97
3307.01
3299.58
3411.21
3411.31
3411.07
3410.79
3410.19
3409.56
3408.61
3407.59
3406.36
3404.78
3403.53
3401.16
3400.07
3396.8
3395.9
3391.76
3391.03
3385.98
3385.49
3379.49
3379.27
3372.36
3372.35
3364.64
3479.22
3479.32
3479.08
3478.8
3478.19
3477.55
3476.57
3475.54
3474.26
3472.7
3471.34
3469
3467.78
3464.51
3463.51
3459.29
3458.49
3453.33
3452.77
3446.64
3446.34
3439.24
3439.18
3431.22
3548.67
3548.78
3548.54
3548.26
3547.63
3546.98
3545.98
3544.93
3543.61
3542.05
3540.61
3538.27
3536.95
3533.66
3532.56
3528.28
3527.4
3522.14
3521.51
3515.24
3514.87
3507.61
3507.49
3499.29
3619.58
3619.69
3619.44
3619.16
3618.52
3617.86
3616.83
3615.77
3614.39
3612.84
3611.31
3608.97
3607.55
3604.23
3603.05
3598.69
3597.75
3592.39
3591.68
3585.29
3584.85
3577.43
3577.26
3568.84
3691.95
3692.08
3691.82
3691.54
3690.87
3690.2
3689.14
3688.06
3686.63
3685.06
3683.44
3681.09
3679.58
3676.21
3674.97
3670.51
3669.51
3664.05
3663.27
3656.77
3656.25
3648.68
3648.46
3639.84
3765.81
3765.94
3765.67
3765.38
3764.69
3764
3762.9
3761.79
3760.3
3758.71
3756.98
3754.63
3753
3749.6
3748.27
3743.73
3742.67
3737.1
3736.25
3729.64
3729.05
3721.35
3721.07
3712.27
3841.15
3841.28
3840.99
3840.69
3839.97
3839.25
3838.09
3836.94
3835.39
3833.76
3831.92
3829.57
3827.8
3824.38
3822.95
3818.32
3817.21
3811.53
3810.6
3803.89
3803.23
3795.41
3795.08
3786.11
3917.92
3918.06
3917.75
3917.43
3916.67
3915.91
3914.7
3913.49
3911.87
3910.18
3908.23
3905.87
3903.94
3900.54
3898.94
3894.29
3893.1
3887.3
3886.31
3879.51
3878.77
3870.85
3870.47
3861.36
3996.06
3996.21
3995.88
3995.53
3994.74
3993.92
3992.66
3991.39
3989.69
3987.94
3985.88
3983.52
3981.4
3978.04
3976.24
3971.62
3970.29
3964.42
3963.38
3956.49
3955.69
3947.68
3947.24
3938.01
4075.44
4075.59
4075.25
4074.87
4074.05
4073.19
4071.89
4070.56
4068.79
4066.98
4064.83
4062.45
4060.16
4056.86
4054.84
4050.3
4048.78
4042.9
4041.81
4034.84
4033.97
4025.89
4025.42
4016.08
4155.89
4156.03
4155.7
4155.3
4154.48
4153.58
4152.26
4150.89
4149.09
4147.25
4145.03
4142.63
4140.22
4136.97
4134.74
4130.31
4128.56
4122.8
4121.57
4114.56
4113.65
4105.52
4105.01
4095.6
4237.19
4237.33
4237.02
4236.63
4235.82
4234.94
4233.63
4232.27
4230.48
4228.64
4226.41
4224.02
4221.54
4218.36
4215.97
4211.67
4209.71
4204.07
4202.7
4195.7
4194.74
4186.59
4186.07
4176.59
4319.16
4319.32
4319.04
4318.68
4317.93
4317.11
4315.86
4314.57
4312.84
4311.07
4308.89
4306.57
4304.09
4301.01
4298.53
4294.38
4292.26
4286.76
4285.25
4278.28
4277.32
4269.13
4268.62
4259.1
4401.71
4401.88
4401.66
4401.37
4400.7
4399.97
4398.84
4397.67
4396.07
4394.43
4392.38
4390.2
4387.82
4384.89
4382.43
4378.46
4376.24
4370.93
4369.26
4362.42
4361.43
4353.2
4352.7
4343.15
4484.88
4485.09
4484.92
4484.71
4484.15
4483.55
4482.57
4481.56
4480.14
4478.7
4476.83
4474.87
4472.65
4469.94
4467.6
4463.86
4461.68
4456.6
4454.88
4448.16
4447.14
4438.86
4438.39
4428.77
4568.96
4569.19
4569.08
4568.96
4568.5
4568.04
4567.2
4566.38
4565.15
4563.92
4562.26
4560.55
4558.55
4556.1
4553.99
4550.5
4548.49
4543.68
4542.05
4535.5
4534.56
4526.22
4525.78
4516.01
4654.44
4654.72
4654.62
4654.6
4654.19
4653.86
4653.11
4652.46
4651.35
4650.33
4648.84
4647.37
4645.57
4643.37
4641.56
4638.24
4636.63
4631.9
4630.71
4624.22
4623.64
4615.32
4615
4605.09
4742.06
4742.42
4742.25
4742.35
4741.84
4741.69
4740.81
4740.38
4739.17
4738.38
4736.88
4735.61
4733.91
4731.86
4730.43
4726.92
4726.15
4720.96
4720.72
4713.98
4714.05
4705.87
4705.88
4696.34
4832.74
4833.07
4832.95
4832.92
4832.48
4832.12
4831.34
4830.67
4829.54
4828.55
4827.09
4825.75
4823.99
4822.12
4820.52
4817.19
4816.54
4811.42
4811.44
4804.8
4805.27
4797.22
4797.69
4788.8
4927.34
4927.64
4927.49
4927.34
4926.79
4926.26
4925.3
4924.4
4923.06
4921.82
4920.12
4918.53
4916.54
4914.53
4912.5
4909.47
4908.19
4903.39
4903.25
4896.57
4897.28
4889.07
4889.91
4881.09
5026.59
5026.87
5026.63
5026.36
5025.63
5024.86
5023.62
5022.39
5020.68
5019.03
5016.9
5014.86
5012.38
5009.95
5007.34
5004.09
5002.11
4997.29
4996.65
4989.67
4990.44
4981.74
4982.85
4973.65
5130.95
5131.25
5130.88
5130.5
5129.52
5128.51
5126.92
5125.34
5123.13
5121.02
5118.28
5115.67
5112.49
5109.4
5105.99
5102.1
5099.31
5093.83
5092.58
5084.79
5085.36
5075.8
5077.03
5067.01
5240.57
5240.92
5240.39
5239.95
5238.7
5237.5
5235.5
5233.65
5230.85
5228.42
5224.85
5221.82
5217.67
5213.91
5209.55
5204.7
5201.06
5194.18
5192.24
5183.1
5183.03
5172.15
5173.21
5161.83
5355.24
5355.56
5355.07
5354.4
5353.11
5351.6
5349.46
5347.15
5344.15
5341.06
5337.23
5333.36
5328.73
5324.09
5318.81
5313.28
5307.97
5300.43
5296.86
5286.38
5284.97
5272.23
5272.58
5259.04
5474.42
5474.76
5474.26
5473.49
5472.12
5470.46
5468.18
5465.64
5462.42
5459
5454.84
5450.53
5445.44
5440.21
5434.26
5428.01
5421.42
5413.69
5407.48
5396.88
5393
5378.39
5377.24
5360.42
5597.41
5597.76
5597.27
5596.46
5595.06
5593.34
5590.99
5588.35
5585.02
5581.45
5577.12
5572.61
5567.27
5561.74
5555.43
5548.76
5541.58
5533.43
5525.83
5515.35
5508.49
5493.74
5490.05
5469.35
5723.35
5723.73
5723.26
5722.46
5721.07
5719.37
5717.02
5714.39
5711.05
5707.48
5703.14
5698.61
5693.23
5687.67
5681.29
5674.57
5667.24
5659.02
5651.1
5640.69
5632.81
5618.64
5613.03
5590.51
5851.38
5851.82
5851.37
5850.61
5849.27
5847.63
5845.34
5842.8
5839.54
5836.08
5831.83
5827.43
5822.16
5816.75
5810.51
5803.98
5796.8
5788.8
5781.19
5770.86
5763.79
5749.49
5744.99
5724.35
5980.69
5981.16
5980.74
5980.06
5978.78
5977.25
5975.06
5972.65
5969.52
5966.24
5962.16
5957.98
5952.92
5947.79
5941.78
5935.6
5928.7
5921.13
5913.91
5904.05
5897.57
5883.83
5879.76
5860.55
6110.52
6110.98
6110.61
6110.01
6108.81
6107.41
6105.34
6103.11
6100.14
6097.09
6093.21
6089.32
6084.51
6079.72
6074.03
6068.25
6061.72
6054.66
6047.85
6038.62
6032.58
6019.73
6015.91
5998.02
6240.18
6240.63
6240.29
6239.8
6238.68
6237.42
6235.47
6233.46
6230.65
6227.88
6224.2
6220.66
6216.1
6211.73
6206.34
6201.03
6194.9
6188.4
6182
6173.4
6167.87
6155.93
6152.34
6135.77
6369.05
6369.53
6369.17
6368.85
6367.74
6366.71
6364.82
6363.1
6360.39
6358.01
6354.43
6351.38
6346.95
6343.15
6337.96
6333.23
6327.45
6321.54
6315.61
6307.65
6302.52
6291.57
6288.19
6272.96
6496.64
6497.13
6496.8
6496.61
6495.54
6494.73
6492.9
6491.49
6488.84
6486.89
6483.38
6480.87
6476.51
6473.38
6468.26
6464.32
6458.69
6453.47
6447.97
6440.71
6435.94
6426.01
6422.83
6408.94
6622.5
6623.01
6622.76
6622.58
6621.71
6620.91
6619.38
6618.01
6615.75
6613.86
6610.8
6608.45
6604.55
6601.69
6597.02
6593.5
6588.29
6583.73
6578.49
6572.03
6567.62
6558.7
6555.72
6543.14
6746.3
6746.81
6746.63
6746.49
6745.77
6745.04
6743.74
6742.47
6740.52
6738.76
6736.11
6733.89
6730.5
6727.82
6723.72
6720.48
6715.79
6711.75
6706.83
6701.32
6697.13
6689.2
6686.4
6675.12
6867.71
6868.22
6868.1
6868
6867.41
6866.78
6865.66
6864.53
6862.83
6861.25
6858.94
6856.93
6853.96
6851.53
6847.9
6845
6840.79
6837.25
6832.7
6828.07
6824.07
6817.11
6814.5
6804.49
6986.46
6986.97
6986.91
6986.86
6986.38
6985.85
6984.89
6983.92
6982.44
6981.06
6979.03
6977.28
6974.66
6972.53
6969.31
6966.79
6963.02
6959.97
6955.84
6951.92
6948.09
6942.18
6939.74
6930.97
7102.33
7102.84
7102.82
7102.83
7102.44
7102.02
7101.21
7100.4
7099.12
7097.95
7096.18
7094.68
7092.38
7090.56
7087.72
7085.56
7082.22
7079.64
7075.93
7072.66
7069.03
7064.13
7061.84
7054.27
7215.15
7215.66
7215.68
7215.74
7215.44
7215.12
7214.45
7213.78
7212.7
7211.72
7210.2
7208.94
7206.95
7205.42
7202.95
7201.14
7198.2
7196.05
7192.76
7190.07
7186.74
7182.76
7180.61
7174.18
7324.76
7325.27
7325.33
7325.43
7325.21
7324.99
7324.44
7323.92
7323.02
7322.23
7320.95
7319.92
7318.21
7316.97
7314.83
7313.37
7310.8
7309.07
7306.17
7303.99
7301.04
7297.9
7295.87
7290.5
7431.06
7431.56
7431.65
7431.8
7431.66
7431.52
7431.1
7430.71
7429.98
7429.37
7428.3
7427.49
7426.05
7425.08
7423.25
7422.12
7419.91
7418.57
7416.05
7414.37
7411.76
7409.38
7407.49
7403.09
7533.95
7534.44
7534.56
7534.75
7534.68
7534.62
7534.31
7534.05
7533.47
7533.04
7532.17
7531.58
7530.39
7529.67
7528.14
7527.31
7525.43
7524.47
7522.31
7521.09
7518.85
7517.06
7515.32
7511.9
7633.38
7633.86
7634.01
7634.23
7634.22
7634.25
7634.04
7633.9
7633.47
7633.19
7632.5
7632.11
7631.15
7630.68
7629.42
7628.88
7627.31
7626.69
7624.87
7624.08
7622.17
7620.95
7619.37
7616.85
7729.31
7729.79
7729.96
7730.21
7730.26
7730.35
7730.24
7730.21
7729.91
7729.78
7729.27
7729.06
7728.31
7728.07
7727.06
7726.79
7725.51
7725.22
7723.7
7723.3
7721.7
7720.97
7719.63
7717.92
7821.74
7822.2
7822.39
7822.67
7822.77
7822.93
7822.9
7822.97
7822.79
7822.8
7822.45
7822.42
7821.87
7821.83
7821.05
7821.04
7820.02
7820.03
7818.8
7818.78
7817.45
7817.19
7816.07
7815.1
7910.66
7911.1
7911.31
7911.61
7911.76
7911.98
7912.03
7912.19
7912.13
7912.26
7912.05
7912.18
7911.82
7911.97
7911.41
7911.63
7910.86
7911.15
7910.18
7910.5
7909.45
7909.63
7908.75
7908.39
7996.09
7996.52
7996.74
7997.06
7997.25
7997.52
7997.65
7997.89
7997.93
7998.18
7998.11
7998.38
7998.18
7998.51
7998.16
7998.58
7998.04
7998.59
7997.87
7998.51
7997.7
7998.3
7997.62
7997.84
8078.08
8078.49
8078.72
8079.06
8079.29
8079.6
8079.79
8080.11
8080.24
8080.59
8080.65
8081.05
8081
8081.5
8081.32
8081.94
8081.61
8082.39
8081.89
8082.82
8082.22
8083.2
8082.7
8083.45
8156.67
8157.06
8157.3
8157.66
8157.91
8158.27
8158.52
8158.91
8159.12
8159.56
8159.73
8160.25
8160.34
8160.98
8160.96
8161.76
8161.61
8162.6
8162.3
8163.5
8163.09
8164.41
8164.05
8165.29
8231.92
8232.3
8232.55
8232.91
8233.2
8233.59
8233.89
8234.34
8234.62
8235.15
8235.41
8236.04
8236.25
8237.02
8237.15
8238.11
8238.12
8239.3
8239.17
8240.61
8240.36
8242
8241.75
8243.42
8303.92
8304.28
8304.53
8304.9
8305.21
8305.64
8305.98
8306.48
8306.83
8307.43
8307.78
8308.5
8308.82
8309.71
8309.97
8311.06
8311.22
8312.57
8312.59
8314.24
8314.14
8316.05
8315.9
8317.96
8372.73
8373.08
8373.33
8373.71
8374.04
8374.49
8374.87
8375.42
8375.83
8376.49
8376.92
8377.72
8378.14
8379.13
8379.5
8380.72
8381
8382.51
8382.66
8384.5
8384.51
8386.67
8386.61
8389.01
8438.45
8438.78
8439.04
8439.42
8439.77
8440.24
8440.65
8441.24
8441.7
8442.42
8442.91
8443.8
8444.29
8445.38
8445.84
8447.17
8447.57
8449.21
8449.48
8451.48
8451.61
8453.99
8453.99
8456.69
8501.17
8501.49
8501.74
8502.13
8502.49
8502.98
8503.42
8504.04
8504.55
8505.32
8505.87
8506.81
8507.39
8508.55
8509.1
8510.53
8511.02
8512.78
8513.15
8515.3
8515.52
8518.09
8518.13
8521.15
8560.99
8561.29
8561.54
8561.93
8562.3
8562.81
8563.27
8563.93
8564.47
8565.28
8565.88
8566.89
8567.52
8568.75
8569.39
8570.89
8571.47
8573.33
8573.8
8576.07
8576.36
8579.12
8579.25
8582.41
8618.01
8618.28
8618.54
8618.92
8619.3
8619.83
8620.31
8620.99
8621.56
8622.41
8623.06
8624.11
8624.8
8626.09
8626.79
8628.37
8629.03
8630.97
8631.52
8633.9
8634.27
8637.16
8637.34
8640.72
8672.31
8672.58
8672.83
8673.21
8673.6
8674.13
8674.63
8675.33
8675.93
8676.81
8677.5
8678.59
8679.33
8680.67
8681.43
8683.07
8683.8
8685.82
8686.44
8688.91
8689.35
8692.36
8692.58
8696.14
8724.02
8724.26
8724.51
8724.9
8725.28
8725.83
8726.34
8727.06
8727.68
8728.59
8729.3
8730.43
8731.21
8732.6
8733.41
8735.11
8735.89
8737.97
8738.65
8741.21
8741.7
8744.82
8745.08
8748.79
8773.22
8773.45
8773.69
8774.08
8774.47
8775.02
8775.54
8776.27
8776.91
8777.84
8778.58
8779.74
8780.56
8781.98
8782.84
8784.58
8785.41
8787.54
8788.29
8790.9
8791.46
8794.66
8794.95
8798.81
8820.02
8820.24
8820.47
8820.85
8821.24
8821.8
8822.33
8823.07
8823.73
8824.68
8825.44
8826.62
8827.47
8828.92
8829.81
8831.59
8832.47
8834.64
8835.43
8838.1
8838.71
8841.98
8842.3
8846.28
8864.51
8864.72
8864.95
8865.33
8865.72
8866.28
8866.81
8867.56
8868.23
8869.19
8869.97
8871.18
8872.04
8873.52
8874.44
8876.25
8877.16
8879.37
8880.2
8882.9
8883.56
8886.88
8887.24
8891.31
8906.8
8907
8907.23
8907.6
8907.99
8908.54
8909.08
8909.84
8910.51
8911.49
8912.28
8913.5
8914.38
8915.88
8916.81
8918.65
8919.58
8921.82
8922.67
8925.42
8926.1
8929.47
8929.85
8933.98
8946.99
8947.17
8947.39
8947.76
8948.15
8948.7
8949.24
8950.01
8950.68
8951.67
8952.46
8953.7
8954.58
8956.11
8957.05
8958.91
8959.84
8962.12
8962.97
8965.76
8966.43
8969.85
8970.23
8974.4
8985.15
8985.33
8985.54
8985.9
8986.29
8986.84
8987.38
8988.15
8988.82
8989.82
8990.61
8991.86
8992.75
8994.29
8995.23
8997.11
8998.05
9000.35
9001.2
9004.02
9004.68
9008.13
9008.5
9012.68
9021.4
9021.56
9021.78
9022.13
9022.51
9023.06
9023.6
9024.37
9025.04
9026.04
9026.84
9028.09
9028.98
9030.52
9031.47
9033.36
9034.3
9036.62
9037.46
9040.3
9040.96
9044.42
9044.78
9048.97
9055.81
9055.96
9056.17
9056.52
9056.89
9057.45
9057.98
9058.74
9059.42
9060.41
9061.21
9062.47
9063.36
9064.91
9065.85
9067.75
9068.69
9071.01
9071.86
9074.7
9075.35
9078.82
9079.18
9083.37
9088.48
9088.62
9088.82
9089.16
9089.53
9090.08
9090.61
9091.37
9092.04
9093.04
9093.83
9095.09
9095.98
9097.53
9098.47
9100.37
9101.31
9103.63
9104.48
9107.31
9107.97
9111.43
9111.8
9115.98
9119.47
9119.61
9119.81
9120.14
9120.51
9121.05
9121.57
9122.33
9123
9123.99
9124.78
9126.03
9126.92
9128.47
9129.41
9131.3
9132.24
9134.55
9135.4
9138.23
9138.89
9142.34
9142.71
9146.88
9148.89
9149.01
9149.2
9149.54
9149.89
9150.43
9150.95
9151.71
9152.36
9153.36
9154.14
9155.39
9156.27
9157.81
9158.75
9160.64
9161.57
9163.87
9164.73
9167.54
9168.2
9171.64
9172
9176.16
9176.79
9176.91
9177.09
9177.42
9177.77
9178.31
9178.81
9179.57
9180.22
9181.21
9181.98
9183.23
9184.1
9185.64
9186.57
9188.45
9189.38
9191.67
9192.51
9195.31
9195.98
9199.4
9199.75
9203.9
9203.25
9203.36
9203.55
9203.87
9204.21
9204.74
9205.24
9205.99
9206.63
9207.62
9208.38
9209.63
9210.49
9212.02
9212.94
9214.81
9215.73
9218.01
9218.85
9221.64
9222.27
9225.71
9226.05
9230.16
9228.35
9228.45
9228.63
9228.95
9229.29
9229.81
9230.3
9231.05
9231.68
9232.66
9233.41
9234.65
9235.5
9237.03
9237.93
9239.8
9240.7
9242.97
9243.79
9246.57
9247.23
9250.58
9250.93
9255.04
9252.14
9252.24
9252.42
9252.73
9253.06
9253.58
9254.06
9254.81
9255.42
9256.4
9257.14
9258.38
9259.2
9260.73
9261.61
9263.48
9264.36
9266.63
9267.43
9270.18
9270.82
9274.17
9274.51
9278.57
9274.7
9274.8
9274.96
9275.27
9275.6
9276.11
9276.58
9277.33
9277.93
9278.91
9279.62
9280.86
9281.66
9283.19
9284.05
9285.91
9286.76
9289.03
9289.8
9292.56
9293.16
9296.5
9296.82
9300.84
9296.08
9296.17
9296.34
9296.64
9296.96
9297.47
9297.93
9298.67
9299.25
9300.23
9300.93
9302.17
9302.94
9304.48
9305.3
9307.17
9307.98
9310.25
9310.99
9313.74
9314.3
9317.64
9317.93
9321.91
9316.34
9316.43
9316.59
9316.89
9317.19
9317.71
9318.15
9318.89
9319.46
9320.44
9321.11
9322.35
9323.1
9324.64
9325.42
9327.3
9328.07
9330.35
9331.05
9333.8
9334.3
9337.64
9337.91
9341.84
9335.53
9335.62
9335.77
9336.07
9336.37
9336.88
9337.31
9338.05
9338.6
9339.58
9340.23
9341.47
9342.19
9343.74
9344.48
9346.37
9347.09
9349.38
9350
9352.8
9353.25
9356.56
9356.8
9360.69
9353.71
9353.8
9353.95
9354.24
9354.53
9355.04
9355.46
9356.2
9356.73
9357.71
9358.33
9359.58
9360.26
9361.82
9362.52
9364.42
9365.09
9367.41
9367.99
9370.75
9371.16
9374.47
9374.69
9378.52
9370.93
9371.01
9371.16
9371.45
9371.73
9372.24
9372.64
9373.38
9373.89
9374.87
9375.47
9376.72
9377.38
9378.93
9379.6
9381.51
9382.15
9384.45
9384.98
9387.76
9388.14
9391.41
9391.61
9395.4
9387.23
9387.3
9387.45
9387.73
9388.01
9388.51
9388.91
9389.64
9390.14
9391.12
9391.7
9392.95
9393.57
9395.13
9395.77
9397.67
9398.25
9400.59
9401.07
9403.84
9404.19
9407.43
9407.63
9411.37
9402.65
9402.73
9402.86
9403.15
9403.42
9403.92
9404.3
9405.04
9405.51
9406.5
9407.05
9408.3
9408.9
9410.46
9411.05
9412.98
9413.53
9415.84
9416.28
9419.05
9419.37
9422.59
9422.77
9426.46
9417.24
9417.32
9417.45
9417.74
9417.99
9418.5
9418.86
9419.6
9420.05
9421.04
9421.56
9422.83
9423.38
9424.97
9425.51
9427.45
9427.92
9430.28
9430.67
9433.43
9433.72
9436.91
9437.08
9440.72
9431.04
9431.11
9431.24
9431.53
9431.77
9432.28
9432.63
9433.37
9433.79
9434.8
9435.28
9436.57
9437.06
9438.69
9439.16
9441.13
9441.56
9443.91
9444.27
9447.01
9447.29
9450.44
9450.6
9454.19
9444.08
9444.15
9444.28
9444.56
9444.8
9445.31
9445.63
9446.39
9446.78
9447.81
9448.23
9449.57
9450
9451.64
9452.06
9454.05
9454.44
9456.78
9457.12
9459.84
9460.1
9463.21
9463.36
9466.91
9456.4
9456.47
9456.59
9456.88
9457.1
9457.62
9457.91
9458.7
9459.05
9460.09
9460.48
9461.82
9462.22
9463.88
9464.26
9466.25
9466.61
9468.94
9469.26
9471.95
9472.2
9475.27
9475.42
9478.91
9468.03
9468.1
9468.21
9468.51
9468.71
9469.24
9469.51
9470.3
9470.62
9471.69
9472.04
9473.39
9473.76
9475.41
9475.78
9477.75
9478.1
9480.4
9480.71
9483.37
9483.61
9486.65
9486.79
9490.24
9479
9479.07
9479.18
9479.47
9479.66
9480.2
9480.46
9481.25
9481.56
9482.61
9482.95
9484.29
9484.65
9486.29
9486.64
9488.6
9488.93
9491.22
9491.51
9494.14
9494.37
9497.38
9497.51
9500.92
9489.34
9489.41
9489.51
9489.81
9490
9490.53
9490.78
9491.56
9491.86
9492.91
9493.24
9494.57
9494.91
9496.54
9496.88
9498.82
9499.14
9501.4
9501.68
9504.29
9504.51
9507.48
9507.61
9510.97
9499.08
9499.15
9499.25
9499.54
9499.72
9500.25
9500.5
9501.27
9501.56
9502.6
9502.92
9504.24
9504.58
9506.19
9506.52
9508.44
9508.75
9510.99
9511.26
9513.84
9514.05
9516.99
9517.11
9520.43
9508.24
9508.31
9508.41
9508.7
9508.88
9509.4
9509.64
9510.41
9510.69
9511.72
9512.03
9513.34
9513.67
9515.26
9515.58
9517.48
9517.78
9520
9520.26
9522.81
9523.02
9525.92
9526.04
9529.32
9516.85
9516.92
9517.02
9517.3
9517.49
9517.99
9518.24
9518.99
9519.27
9520.29
9520.59
9521.89
9522.2
9523.79
9524.09
9525.98
9526.27
9528.46
9528.72
9531.24
9531.44
9534.31
9534.43
9537.67
9524.93
9525
9525.11
9525.36
9525.57
9526.04
9526.31
9527.03
9527.33
9528.32
9528.62
9529.91
9530.21
9531.78
9532.08
9533.94
9534.22
9536.4
9536.64
9539.14
9539.33
9542.17
9542.28
9545.49
9532.51
9532.56
9532.69
9532.92
9533.16
9533.58
9533.89
9534.55
9534.89
9535.82
9536.17
9537.41
9537.71
9539.26
9539.55
9541.4
9541.67
9543.83
9544.06
9546.53
9546.72
9549.53
9549.64
9552.8
9539.59
9539.65
9539.78
9539.99
9540.25
9540.63