/*--------------------------------*- C++ -*----------------------------------*\
  =========                 |
  \\      /  F ield         | OpenFOAM: The Open Source CFD Toolbox
   \\    /   O peration     | Website:  https://openfoam.org
    \\  /    A nd           | Version:  10
     \\/     M anipulation  |
\*---------------------------------------------------------------------------*/
FoamFile
{
    format      ascii;
    class       surfaceScalarField;
    location    "0.13";
    object      phi;
}
// * * * * * * * * * * * * * * * * * * * * * * * * * * * * * * * * * * * * * //

dimensions      [1 0 -1 0 0 0 0];

internalField   nonuniform List<scalar> 
8154
(
-6.01005e-09
-2.27217e-08
-5.79414e-08
-9.39699e-08
-1.74214e-07
-2.30274e-07
-3.74709e-07
-4.61519e-07
-6.81852e-07
-8.24105e-07
-1.11462e-06
-1.3502e-06
-1.67973e-06
-2.04086e-06
-2.37402e-06
-2.87952e-06
-3.27215e-06
-4.0009e-06
-4.5837e-06
-5.51678e-06
-6.83512e-06
-7.27824e-06
-6.85465e-06
-0.000277559
-0.000832734
2.38363e-08
-0.0013881
9.57144e-08
-0.00194372
2.12307e-07
-0.00249983
3.76401e-07
-0.00305633
5.74838e-07
-0.00361368
8.20264e-07
-0.00417152
1.08436e-06
-0.00473058
1.39257e-06
-0.00529023
1.70496e-06
-0.00585136
2.04861e-06
-0.00641339
2.39368e-06
-0.00697684
2.73729e-06
-0.00754197
3.10749e-06
-0.00810769
3.4246e-06
-0.00867692
3.83969e-06
-0.00924426
4.11609e-06
-0.00981917
4.56451e-06
-0.0103878
4.91748e-06
-0.0109694
5.1306e-06
-0.0115388
5.27184e-06
-0.0121288
5.10902e-06
-0.0127003
4.02291e-06
-0.0132988
2.44292e-06
-0.000277579
-0.000832794
2.61575e-08
-0.00138819
1.04277e-07
-0.00194385
2.337e-07
-0.00249999
4.08561e-07
-0.00305653
6.32745e-07
-0.0036139
8.86464e-07
-0.00417177
1.19056e-06
-0.00473082
1.49622e-06
-0.00529049
1.8607e-06
-0.00585162
2.18346e-06
-0.00641364
2.58455e-06
-0.0069771
2.88327e-06
-0.00754217
3.28894e-06
-0.00810798
3.52873e-06
-0.00867706
3.89369e-06
-0.00924457
4.09435e-06
-0.00981937
4.38011e-06
-0.0103879
4.99778e-06
-0.0109693
4.65837e-06
-0.0115385
5.22172e-06
-0.0121275
5.32481e-06
-0.0126985
5.03655e-06
-0.0132961
4.22138e-06
-0.000277602
-0.00083286
2.10913e-08
-0.0013883
8.43696e-08
-0.001944
1.86992e-07
-0.00250018
3.28815e-07
-0.00305674
4.993e-07
-0.00361415
7.04041e-07
-0.00417202
9.18352e-07
-0.00473112
1.16126e-06
-0.00529074
1.38742e-06
-0.00585194
1.63413e-06
-0.00641385
1.83667e-06
-0.00697741
2.03926e-06
-0.0075423
2.18558e-06
-0.00810823
2.27195e-06
-0.00867714
2.34151e-06
-0.00924472
2.19266e-06
-0.00981984
2.33102e-06
-0.0103874
1.88773e-06
-0.0109697
1.76565e-06
-0.0115384
1.38065e-06
-0.012127
1.15077e-06
-0.0126975
7.13415e-07
-0.0132917
5.05373e-07
-0.000277619
-0.000832912
2.53282e-08
-0.00138839
1.01327e-07
-0.00194411
2.2495e-07
-0.00250031
3.96084e-07
-0.00305691
6.03015e-07
-0.00361431
8.52347e-07
-0.0041722
1.11515e-06
-0.00473128
1.41539e-06
-0.00529092
1.69577e-06
-0.00585206
2.00919e-06
-0.00641397
2.26256e-06
-0.00697746
2.53804e-06
-0.00754229
2.72222e-06
-0.00810819
2.88357e-06
-0.00867687
2.97345e-06
-0.00924473
2.88433e-06
-0.00981927
2.96195e-06
-0.0103871
2.26711e-06
-0.0109692
2.49984e-06
-0.011538
1.71455e-06
-0.0121264
1.20249e-06
-0.0126972
3.72603e-07
-0.013291
-1.81094e-07
-0.000277641
-0.000832977
3.34434e-08
-0.00138849
1.33686e-07
-0.00194426
2.98092e-07
-0.00250049
5.24716e-07
-0.00305712
8.05356e-07
-0.00361453
1.13837e-06
-0.00417245
1.50769e-06
-0.0047315
1.91395e-06
-0.00529116
2.33241e-06
-0.00585224
2.76561e-06
-0.00641416
3.18474e-06
-0.00697756
3.58554e-06
-0.00754235
3.95281e-06
-0.00810817
4.24714e-06
-0.00867667
4.51033e-06
-0.00924469
4.60256e-06
-0.00981844
4.7177e-06
-0.0103872
4.38613e-06
-0.0109683
4.35276e-06
-0.0115374
3.66457e-06
-0.0121254
3.2077e-06
-0.0126964
2.26298e-06
-0.013291
1.34145e-06
-0.000277671
-0.000833067
3.7366e-08
-0.00138864
1.49343e-07
-0.00194446
3.33271e-07
-0.00250074
5.8671e-07
-0.00305741
9.01754e-07
-0.00361485
1.27502e-06
-0.0041728
1.69188e-06
-0.00473186
2.1487e-06
-0.00529153
2.62432e-06
-0.00585258
3.11323e-06
-0.00641448
3.593e-06
-0.00697783
4.04771e-06
-0.00754255
4.47028e-06
-0.00810833
4.80979e-06
-0.00867665
5.11202e-06
-0.00924468
5.23735e-06
-0.00981799
5.35607e-06
-0.010387
5.06798e-06
-0.0109674
4.9542e-06
-0.0115368
4.20403e-06
-0.0121243
3.66815e-06
-0.0126954
2.63129e-06
-0.0132895
1.60836e-06
-0.000277705
-0.000833169
4.12e-08
-0.00138881
1.64652e-07
-0.00194469
3.67535e-07
-0.00250102
6.47159e-07
-0.00305775
9.95198e-07
-0.00361523
1.40786e-06
-0.00417321
1.86969e-06
-0.00473227
2.37661e-06
-0.00529195
2.90572e-06
-0.00585299
3.45126e-06
-0.00641486
3.98709e-06
-0.00697817
4.49847e-06
-0.0075428
4.97088e-06
-0.00810854
5.35878e-06
-0.00867667
5.6948e-06
-0.00924469
5.84968e-06
-0.00981758
5.98357e-06
-0.0103868
5.70437e-06
-0.0109665
5.58622e-06
-0.0115361
4.79788e-06
-0.0121232
4.18539e-06
-0.0126942
2.98233e-06
-0.0132877
1.7945e-06
-0.000277744
-0.000833283
4.48971e-08
-0.001389
1.79393e-07
-0.00194495
4.00487e-07
-0.00250134
7.05086e-07
-0.00305813
1.08458e-06
-0.00361565
1.53431e-06
-0.00417367
2.03875e-06
-0.00473275
2.59222e-06
-0.00529244
3.17212e-06
-0.00585346
3.76995e-06
-0.00641529
4.35989e-06
-0.00697857
4.92338e-06
-0.0075431
5.44497e-06
-0.00810878
5.87649e-06
-0.00867673
6.24532e-06
-0.00924472
6.42811e-06
-0.00981719
6.56758e-06
-0.0103866
6.31429e-06
-0.0109656
6.16683e-06
-0.0115353
5.35972e-06
-0.0121218
4.80843e-06
-0.0126928
3.35316e-06
-0.0132858
2.01725e-06
-0.000277786
-0.000833409
4.85466e-08
-0.0013892
1.93932e-07
-0.00194523
4.32931e-07
-0.0025017
7.62014e-07
-0.00305854
1.17213e-06
-0.00361611
1.65783e-06
-0.00417417
2.20316e-06
-0.00473328
2.80129e-06
-0.00529298
3.42931e-06
-0.00585399
4.07709e-06
-0.00641578
4.71818e-06
-0.00697901
5.33194e-06
-0.00754344
5.90057e-06
-0.00810906
6.3747e-06
-0.00867681
6.77505e-06
-0.00924476
6.98316e-06
-0.00981683
7.1235e-06
-0.0103863
6.88919e-06
-0.0109647
6.71653e-06
-0.0115345
5.89674e-06
-0.0121203
4.85098e-06
-0.0126914
3.70175e-06
-0.0132836
2.20886e-06
-0.000277831
-0.000833545
5.21469e-08
-0.00138943
2.08272e-07
-0.00194554
4.64906e-07
-0.00250208
8.18063e-07
-0.00305899
1.25818e-06
-0.00361662
1.77893e-06
-0.00417473
2.36382e-06
-0.00473385
3.00483e-06
-0.00529357
3.67857e-06
-0.00585457
4.37353e-06
-0.00641633
5.06262e-06
-0.0069795
5.72369e-06
-0.00754384
6.33692e-06
-0.00810937
6.85193e-06
-0.00867693
7.28324e-06
-0.0092448
7.51476e-06
-0.00981649
7.65416e-06
-0.010386
7.43573e-06
-0.0109638
7.23489e-06
-0.0115337
6.38194e-06
-0.0121187
5.59418e-06
-0.0126897
4.02469e-06
-0.0132812
2.39468e-06
-0.000277881
-0.000833693
5.5713e-08
-0.00138967
2.22479e-07
-0.00194588
4.96595e-07
-0.00250249
8.7363e-07
-0.00305948
1.34346e-06
-0.00361717
1.8989e-06
-0.00417533
2.52267e-06
-0.00473448
3.20557e-06
-0.00529421
3.92342e-06
-0.0058552
4.66344e-06
-0.00641692
5.39765e-06
-0.00698005
6.10298e-06
-0.00754427
6.75759e-06
-0.00810972
7.3112e-06
-0.00867707
7.77268e-06
-0.00924484
8.02879e-06
-0.00981617
8.17417e-06
-0.0103857
7.95735e-06
-0.0109628
7.72992e-06
-0.0115329
6.8493e-06
-0.012117
5.99675e-06
-0.012688
4.34778e-06
-0.0132787
2.58132e-06
-0.000277934
-0.000833852
5.92366e-08
-0.00138993
2.36524e-07
-0.00194623
5.27954e-07
-0.00250294
9.28685e-07
-0.00306001
1.42804e-06
-0.00361776
2.01798e-06
-0.00417597
2.68035e-06
-0.00473515
3.40465e-06
-0.0052949
4.16566e-06
-0.00585587
4.94926e-06
-0.00641757
5.72627e-06
-0.00698063
6.47291e-06
-0.00754475
7.16537e-06
-0.0081101
7.75401e-06
-0.00867724
8.24274e-06
-0.00924489
8.52184e-06
-0.00981585
8.67392e-06
-0.0103854
8.45497e-06
-0.0109618
8.19288e-06
-0.0115319
7.27418e-06
-0.0121152
6.36421e-06
-0.0126861
4.64317e-06
-0.013276
2.75189e-06
-0.000277991
-0.000834021
6.27172e-08
-0.00139021
2.50404e-07
-0.00194662
5.58972e-07
-0.00250342
9.83215e-07
-0.00306057
1.51194e-06
-0.00361838
2.13628e-06
-0.00417665
2.83717e-06
-0.00473587
3.6028e-06
-0.00529563
4.40667e-06
-0.00585659
5.23316e-06
-0.00641825
6.05156e-06
-0.00698126
6.83727e-06
-0.00754527
7.56432e-06
-0.00811051
8.18426e-06
-0.00867743
8.69655e-06
-0.00924496
8.99549e-06
-0.00981554
9.15179e-06
-0.010385
8.93323e-06
-0.0109608
8.63114e-06
-0.0115308
7.66771e-06
-0.0121134
6.69645e-06
-0.012684
4.88805e-06
-0.0132731
2.89912e-06
-0.000278051
-0.000834202
6.61559e-08
-0.0013905
2.64117e-07
-0.00194702
5.89623e-07
-0.00250392
1.03713e-06
-0.00306117
1.59497e-06
-0.00361905
2.25349e-06
-0.00417738
2.99275e-06
-0.00473663
3.79965e-06
-0.00529641
4.64635e-06
-0.00585736
5.5156e-06
-0.00641898
6.37487e-06
-0.00698192
7.19845e-06
-0.00754582
7.95793e-06
-0.00811095
8.60578e-06
-0.00867765
9.13751e-06
-0.00924503
9.45222e-06
-0.00981523
9.61103e-06
-0.0103846
9.3949e-06
-0.0109597
9.05071e-06
-0.0115298
8.04246e-06
-0.0121114
7.00206e-06
-0.0126819
5.04879e-06
-0.0132701
3.02468e-06
-0.000278115
-0.000834392
6.956e-08
-0.00139082
2.77685e-07
-0.00194745
6.19927e-07
-0.00250446
1.09041e-06
-0.0030618
1.67696e-06
-0.00361976
2.36924e-06
-0.00417815
3.14645e-06
-0.00473743
3.99433e-06
-0.00529723
4.88371e-06
-0.00585817
5.79575e-06
-0.00641975
6.69596e-06
-0.00698262
7.5572e-06
-0.0075464
8.34824e-06
-0.00811141
9.02204e-06
-0.00867789
9.56974e-06
-0.0092451
9.89531e-06
-0.00981493
1.00527e-05
-0.0103842
9.83652e-06
-0.0109586
9.45129e-06
-0.0115286
8.40447e-06
-0.0121094
7.30141e-06
-0.0126798
5.26766e-06
-0.0132669
3.15565e-06
-0.000278182
-0.000834594
7.2932e-08
-0.00139115
2.91116e-07
-0.00194791
6.49882e-07
-0.00250502
1.14297e-06
-0.00306247
1.75769e-06
-0.00362051
2.48303e-06
-0.00417896
3.29739e-06
-0.00473828
4.18547e-06
-0.0052981
5.11692e-06
-0.00585902
6.07144e-06
-0.00642055
7.01268e-06
-0.00698335
7.91194e-06
-0.00754701
8.73506e-06
-0.00811189
9.43461e-06
-0.00867814
9.99704e-06
-0.00924518
1.03301e-05
-0.00981463
1.04794e-05
-0.0103837
1.02505e-05
-0.0109575
9.8314e-06
-0.0115274
8.74715e-06
-0.0121072
7.58269e-06
-0.0126776
5.48595e-06
-0.0132636
3.27802e-06
-0.000278253
-0.000834805
7.62635e-08
-0.0013915
3.04373e-07
-0.00194839
6.79389e-07
-0.00250562
1.19462e-06
-0.00306317
1.83681e-06
-0.00362129
2.59423e-06
-0.00417982
3.44453e-06
-0.00473918
4.37149e-06
-0.00529901
5.34373e-06
-0.00585991
6.33974e-06
-0.0064214
7.32151e-06
-0.00698412
8.25891e-06
-0.00754765
9.11484e-06
-0.00811238
9.8413e-06
-0.0086784
1.04197e-05
-0.00924525
1.07604e-05
-0.00981431
1.09004e-05
-0.0103832
1.06549e-05
-0.0109563
1.02013e-05
-0.0115262
9.08008e-06
-0.012105
7.85346e-06
-0.0126753
5.68655e-06
-0.0132602
3.39305e-06
-0.000278327
-0.000835027
7.95283e-08
-0.00139186
3.1735e-07
-0.00194889
7.08228e-07
-0.00250624
1.24499e-06
-0.0030639
1.91375e-06
-0.00362211
2.70205e-06
-0.00418071
3.58677e-06
-0.00474011
4.55084e-06
-0.00529996
5.56196e-06
-0.00586085
6.59767e-06
-0.00642229
7.61861e-06
-0.00698492
8.59349e-06
-0.00754831
9.48271e-06
-0.0081129
1.02373e-05
-0.00867867
1.08338e-05
-0.00924532
1.11844e-05
-0.00981399
1.13172e-05
-0.0103826
1.10571e-05
-0.0109551
1.05647e-05
-0.0115248
9.40961e-06
-0.0121028
8.11994e-06
-0.0126729
5.88133e-06
-0.0132567
3.50447e-06
-0.000278405
-0.000835258
8.26696e-08
-0.00139224
3.2983e-07
-0.00194941
7.35946e-07
-0.00250689
1.29335e-06
-0.00306467
1.98752e-06
-0.00362297
2.80524e-06
-0.00418165
3.72257e-06
-0.00474109
4.72161e-06
-0.00530096
5.76921e-06
-0.00586182
6.84211e-06
-0.00642321
7.89985e-06
-0.00698575
8.91036e-06
-0.00754901
9.83195e-06
-0.00811343
1.06151e-05
-0.00867896
1.12319e-05
-0.00924538
1.15954e-05
-0.00981365
1.17249e-05
-0.0103821
1.14529e-05
-0.0109538
1.09213e-05
-0.0115235
9.73879e-06
-0.0121004
8.38808e-06
-0.0126704
6.07593e-06
-0.0132531
3.61602e-06
-0.000278485
-0.0008355
8.56096e-08
-0.00139264
3.41516e-07
-0.00194995
7.61917e-07
-0.00250757
1.3387e-06
-0.00306546
2.05674e-06
-0.00362386
2.90207e-06
-0.00418261
3.84993e-06
-0.0047421
4.88154e-06
-0.00530199
5.96288e-06
-0.00586284
7.06996e-06
-0.00642417
8.16138e-06
-0.00698662
9.20457e-06
-0.00754974
1.01564e-05
-0.00811398
1.09668e-05
-0.00867925
1.16047e-05
-0.00924544
1.19838e-05
-0.00981331
1.21153e-05
-0.0103814
1.1836e-05
-0.0109526
1.12688e-05
-0.011522
1.0067e-05
-0.012098
8.65989e-06
-0.0126678
6.27684e-06
-0.0132494
3.73235e-06
-0.000278569
-0.00083575
8.82601e-08
-0.00139305
3.52063e-07
-0.00195051
7.85408e-07
-0.00250827
1.37983e-06
-0.00306628
2.1197e-06
-0.00362478
2.99038e-06
-0.00418362
3.96632e-06
-0.00474315
5.02784e-06
-0.00530306
6.14e-06
-0.00586389
7.278e-06
-0.00642517
8.39952e-06
-0.00698752
9.47163e-06
-0.00755049
1.04499e-05
-0.00811456
1.12848e-05
-0.00867957
1.19423e-05
-0.00924551
1.23376e-05
-0.00981296
1.24753e-05
-0.0103808
1.2196e-05
-0.0109513
1.1607e-05
-0.0115205
1.03864e-05
-0.0120955
8.92803e-06
-0.0126652
6.48479e-06
-0.0132456
3.85538e-06
-0.000278655
-0.000836008
9.05338e-08
-0.00139347
3.61126e-07
-0.0019511
8.0566e-07
-0.00250899
1.41545e-06
-0.00306713
2.1745e-06
-0.00362574
3.06763e-06
-0.00418465
4.06863e-06
-0.00474423
5.15694e-06
-0.00530416
6.29669e-06
-0.00586497
7.46217e-06
-0.0064262
8.61007e-06
-0.00698845
9.70702e-06
-0.00755127
1.07076e-05
-0.00811516
1.15626e-05
-0.0086799
1.22362e-05
-0.00924558
1.26452e-05
-0.00981261
1.27893e-05
-0.0103801
1.25142e-05
-0.01095
1.19145e-05
-0.011519
1.0676e-05
-0.012093
9.17444e-06
-0.0126624
6.68946e-06
-0.0132416
3.97949e-06
-0.000278744
-0.000836273
9.23611e-08
-0.00139391
3.68426e-07
-0.00195169
8.22032e-07
-0.00250973
1.44439e-06
-0.00306801
2.21931e-06
-0.00362671
3.13127e-06
-0.00418571
4.15354e-06
-0.00474533
5.26485e-06
-0.00530529
6.42844e-06
-0.00586608
7.61764e-06
-0.00642725
8.78806e-06
-0.00698941
9.90567e-06
-0.00755208
1.0924e-05
-0.00811578
1.17943e-05
-0.00868025
1.24792e-05
-0.00924566
1.28975e-05
-0.00981226
1.3045e-05
-0.0103795
1.27724e-05
-0.0109487
1.21614e-05
-0.0115174
1.09126e-05
-0.0120904
9.37515e-06
-0.0126596
6.8642e-06
-0.0132375
4.08409e-06
-0.000278835
-0.000836544
9.36926e-08
-0.00139435
3.73754e-07
-0.0019523
8.34027e-07
-0.00251049
1.46571e-06
-0.0030689
2.25254e-06
-0.00362771
3.17887e-06
-0.00418679
4.21765e-06
-0.00474647
5.34715e-06
-0.00530645
6.52992e-06
-0.00586721
7.73839e-06
-0.00642833
8.92711e-06
-0.00699038
1.00612e-05
-0.0075529
1.1093e-05
-0.00811641
1.19737e-05
-0.00868061
1.26648e-05
-0.00924574
1.30871e-05
-0.00981192
1.32335e-05
-0.0103788
1.29599e-05
-0.0109473
1.23364e-05
-0.0115158
1.10813e-05
-0.0120878
9.50545e-06
-0.0126568
6.96495e-06
-0.0132334
4.13149e-06
-0.000278927
-0.000836819
9.45179e-08
-0.0013948
3.7706e-07
-0.00195292
8.41488e-07
-0.00251126
1.47903e-06
-0.00306981
2.27345e-06
-0.00362873
3.20912e-06
-0.0041879
4.25889e-06
-0.00474762
5.40091e-06
-0.00530762
6.59717e-06
-0.00586836
7.81982e-06
-0.00642942
9.022e-06
-0.00699137
1.01686e-05
-0.00755373
1.12096e-05
-0.00811705
1.20972e-05
-0.00868098
1.27896e-05
-0.00924583
1.32118e-05
-0.00981159
1.33509e-05
-0.0103781
1.30727e-05
-0.010946
1.24354e-05
-0.0115141
1.11771e-05
-0.0120852
9.55566e-06
-0.0126538
6.95595e-06
-0.0132291
4.09339e-06
-0.00027902
-0.000837096
9.52159e-08
-0.00139526
3.79849e-07
-0.00195355
8.47771e-07
-0.00251204
1.49023e-06
-0.00307072
2.29107e-06
-0.00362976
3.23472e-06
-0.00418901
4.29417e-06
-0.00474879
5.44764e-06
-0.00530881
6.65708e-06
-0.00586953
7.89447e-06
-0.00643053
9.11235e-06
-0.00699236
1.0275e-05
-0.00755457
1.1331e-05
-0.00811769
1.22319e-05
-0.00868135
1.29336e-05
-0.00924591
1.33628e-05
-0.00981124
1.35032e-05
-0.0103774
1.32269e-05
-0.0109447
1.25848e-05
-0.0115124
1.13285e-05
-0.0120825
9.68676e-06
-0.0126509
7.04801e-06
-0.013225
4.17906e-06
-0.000279113
-0.000837376
9.55201e-08
-0.00139572
3.81058e-07
-0.00195418
8.50479e-07
-0.00251283
1.49504e-06
-0.00307165
2.29865e-06
-0.00363079
3.24585e-06
-0.00419014
4.30985e-06
-0.00474997
5.46913e-06
-0.00531002
6.68593e-06
-0.00587071
7.93245e-06
-0.00643165
9.16129e-06
-0.00699338
1.03363e-05
-0.00755543
1.14054e-05
-0.00811835
1.2319e-05
-0.00868172
1.30315e-05
-0.00924599
1.34688e-05
-0.00981091
1.36125e-05
-0.0103767
1.3338e-05
-0.0109434
1.26917e-05
-0.0115107
1.1433e-05
-0.0120798
9.79281e-06
-0.0126479
7.13108e-06
-0.0132207
4.34427e-06
-0.000279207
-0.000837657
9.53185e-08
-0.00139618
3.80241e-07
-0.00195481
8.48629e-07
-0.00251362
1.49175e-06
-0.00307258
2.29355e-06
-0.00363184
3.23872e-06
-0.00419128
4.30069e-06
-0.00475116
5.45828e-06
-0.00531123
6.67423e-06
-0.0058719
7.92129e-06
-0.00643279
9.1526e-06
-0.00699441
1.03323e-05
-0.00755629
1.14084e-05
-0.00811901
1.23303e-05
-0.00868211
1.30512e-05
-0.00924608
1.34956e-05
-0.00981057
1.36424e-05
-0.010376
1.3369e-05
-0.010942
1.27176e-05
-0.011509
1.14609e-05
-0.0120771
9.8122e-06
-0.0126448
7.18319e-06
-0.0132165
3.93677e-06
-0.000279301
-0.000837937
9.4649e-08
-0.00139664
3.7756e-07
-0.00195544
8.42618e-07
-0.0025144
1.48113e-06
-0.00307351
2.27713e-06
-0.00363288
3.21546e-06
-0.00419241
4.26974e-06
-0.00475235
5.41918e-06
-0.00531245
6.62699e-06
-0.0058731
7.86672e-06
-0.00643393
9.09223e-06
-0.00699544
1.02687e-05
-0.00755717
1.13445e-05
-0.00811969
1.22697e-05
-0.0086825
1.29966e-05
-0.00924617
1.34488e-05
-0.00981024
1.36017e-05
-0.0103753
1.33326e-05
-0.0109407
1.26774e-05
-0.0115073
1.14229e-05
-0.0120744
9.74835e-06
-0.0126418
7.15988e-06
-0.0132122
3.89731e-06
-0.000279394
-0.000838215
9.35359e-08
-0.0013971
3.73121e-07
-0.00195607
8.32718e-07
-0.00251519
1.46375e-06
-0.00307443
2.25042e-06
-0.00363391
3.17777e-06
-0.00419354
4.21966e-06
-0.00475353
5.35566e-06
-0.00531366
6.54937e-06
-0.00587429
7.77511e-06
-0.00643507
8.98752e-06
-0.00699648
1.01531e-05
-0.00755806
1.12214e-05
-0.00812037
1.21435e-05
-0.0086829
1.28724e-05
-0.00924627
1.33317e-05
-0.00980992
1.34947e-05
-0.0103746
1.32374e-05
-0.0109394
1.2588e-05
-0.0115055
1.13369e-05
-0.0120717
9.64122e-06
-0.0126389
7.08092e-06
-0.0132078
4.20229e-06
-0.000279487
-0.000838491
9.20071e-08
-0.00139755
3.67038e-07
-0.00195669
8.19203e-07
-0.00251596
1.44014e-06
-0.00307534
2.21434e-06
-0.00363493
3.12716e-06
-0.00419465
4.15281e-06
-0.0047547
5.27121e-06
-0.00531486
6.44631e-06
-0.00587548
7.65308e-06
-0.0064362
8.84675e-06
-0.00699751
9.99506e-06
-0.00755894
1.10486e-05
-0.00812105
1.19607e-05
-0.00868331
1.26855e-05
-0.00924638
1.31485e-05
-0.0098096
1.33228e-05
-0.0103738
1.30839e-05
-0.0109381
1.24545e-05
-0.0115038
1.12253e-05
-0.0120691
9.53703e-06
-0.012636
7.01201e-06
-0.0132035
4.16232e-06
-0.000279577
-0.000838761
9.01006e-08
-0.00139799
3.59463e-07
-0.0019573
8.02398e-07
-0.00251672
1.41086e-06
-0.00307623
2.16976e-06
-0.00363594
3.06493e-06
-0.00419575
4.07105e-06
-0.00475585
5.16852e-06
-0.00531604
6.3217e-06
-0.00587664
7.5061e-06
-0.00643732
8.67732e-06
-0.00699852
9.80415e-06
-0.00755981
1.08378e-05
-0.00812173
1.17338e-05
-0.00868373
1.24475e-05
-0.00924651
1.2908e-05
-0.00980931
1.30895e-05
-0.0103732
1.28698e-05
-0.0109368
1.22695e-05
-0.011502
1.10792e-05
-0.0120665
9.42801e-06
-0.012633
6.93234e-06
-0.0131993
4.1164e-06
-0.000279666
-0.000839026
8.78764e-08
-0.00139843
3.50626e-07
-0.0019579
7.82796e-07
-0.00251747
1.37672e-06
-0.00307711
2.11784e-06
-0.00363693
2.9926e-06
-0.00419682
3.97632e-06
-0.00475698
5.05006e-06
-0.00531719
6.17875e-06
-0.00587778
7.3385e-06
-0.00643841
8.48522e-06
-0.00699952
9.58842e-06
-0.00756066
1.05994e-05
-0.0081224
1.14756e-05
-0.00868414
1.21729e-05
-0.00924664
1.26244e-05
-0.00980904
1.28059e-05
-0.0103725
1.26001e-05
-0.0109355
1.20292e-05
-0.0115003
1.08854e-05
-0.0120639
9.28452e-06
-0.0126301
6.85252e-06
-0.0131951
4.06166e-06
-0.000279752
-0.000839285
8.54076e-08
-0.00139886
3.40813e-07
-0.00195849
7.61005e-07
-0.0025182
1.33871e-06
-0.00307797
2.05996e-06
-0.00363789
2.9119e-06
-0.00419787
3.87064e-06
-0.00475808
4.91807e-06
-0.00531833
6.01993e-06
-0.0058789
7.15317e-06
-0.00643948
8.27415e-06
-0.0070005
9.35311e-06
-0.0075615
1.03413e-05
-0.00812306
1.1197e-05
-0.00868455
1.18759e-05
-0.00924677
1.23142e-05
-0.00980878
1.24888e-05
-0.0103719
1.22882e-05
-0.0109343
1.17393e-05
-0.0114986
1.06399e-05
-0.0120614
9.10271e-06
-0.0126273
6.77055e-06
-0.013191
4.00247e-06
-0.000279836
-0.000839536
8.27791e-08
-0.00139927
3.30354e-07
-0.00195905
7.37739e-07
-0.0025189
1.29804e-06
-0.00307881
1.99785e-06
-0.00363883
2.82504e-06
-0.0041989
3.75655e-06
-0.00475916
4.77529e-06
-0.00531943
5.84797e-06
-0.00587999
6.95271e-06
-0.00644053
8.04663e-06
-0.00700145
9.10093e-06
-0.00756232
1.00669e-05
-0.0081237
1.09037e-05
-0.00868494
1.15659e-05
-0.0092469
1.19916e-05
-0.00980853
1.21569e-05
-0.0103713
1.1955e-05
-0.0109332
1.14159e-05
-0.011497
1.0347e-05
-0.012059
8.86855e-06
-0.0126244
6.6446e-06
-0.0131869
3.92571e-06
-0.000279918
-0.00083978
8.00664e-08
-0.00139967
3.19548e-07
-0.00195961
7.13652e-07
-0.00251959
1.25582e-06
-0.00307962
1.93314e-06
-0.00363975
2.73419e-06
-0.0041999
3.63671e-06
-0.00476021
4.62464e-06
-0.00532051
5.66578e-06
-0.00588105
6.73966e-06
-0.00644155
7.8045e-06
-0.00700238
8.83296e-06
-0.00756312
9.77704e-06
-0.00812432
1.05966e-05
-0.00868532
1.12456e-05
-0.00924702
1.16627e-05
-0.00980828
1.18228e-05
-0.0103707
1.16203e-05
-0.0109321
1.10856e-05
-0.0114955
1.00333e-05
-0.0120567
8.58588e-06
-0.0126217
6.41667e-06
-0.0131829
3.81547e-06
-0.000279997
-0.000840015
7.73297e-08
-0.00140006
3.08633e-07
-0.00196014
6.89281e-07
-0.00252026
1.21299e-06
-0.00308041
1.8673e-06
-0.00364063
2.64137e-06
-0.00420087
3.5137e-06
-0.00476123
4.46917e-06
-0.00532156
5.47666e-06
-0.00588209
6.51717e-06
-0.00644255
7.55022e-06
-0.00700329
8.55031e-06
-0.0075639
9.47066e-06
-0.00812493
1.02729e-05
-0.0086857
1.09111e-05
-0.00924714
1.13242e-05
-0.00980803
1.1487e-05
-0.0103701
1.12919e-05
-0.010931
1.0768e-05
-0.011494
9.7329e-06
-0.0120545
8.307e-06
-0.012619
6.18329e-06
-0.013179
3.67272e-06
-0.000280073
-0.000840243
7.45995e-08
-0.00140043
2.97734e-07
-0.00196065
6.64912e-07
-0.0025209
1.17009e-06
-0.00308117
1.80119e-06
-0.00364149
2.54787e-06
-0.0042018
3.38928e-06
-0.00476221
4.31117e-06
-0.00532258
5.28331e-06
-0.00588309
6.28813e-06
-0.00644352
7.28646e-06
-0.00700418
8.2548e-06
-0.00756467
9.14812e-06
-0.00812553
9.93013e-06
-0.00868607
1.05563e-05
-0.00924725
1.09666e-05
-0.00980779
1.11383e-05
-0.0103695
1.09599e-05
-0.0109299
1.04602e-05
-0.0114925
9.4528e-06
-0.0120523
8.05253e-06
-0.0126164
5.96476e-06
-0.0131753
3.48698e-06
-0.000280146
-0.000840462
7.18765e-08
-0.00140079
2.86856e-07
-0.00196115
6.40568e-07
-0.00252152
1.12718e-06
-0.0030819
1.73498e-06
-0.00364231
2.45403e-06
-0.00420271
3.26409e-06
-0.00476316
4.15162e-06
-0.00532356
5.08719e-06
-0.00588407
6.05441e-06
-0.00644446
7.01529e-06
-0.00700504
7.94819e-06
-0.00756541
8.80975e-06
-0.00812612
9.56645e-06
-0.00868644
1.01759e-05
-0.00924738
1.05795e-05
-0.00980756
1.07605e-05
-0.010369
1.06033e-05
-0.0109288
1.01413e-05
-0.0114911
9.17834e-06
-0.0120502
7.83048e-06
-0.0126139
5.78256e-06
-0.0131717
3.31375e-06
-0.000280217
-0.000840673
6.91365e-08
-0.00140114
2.75906e-07
-0.00196163
6.16051e-07
-0.00252212
1.08394e-06
-0.00308261
1.66818e-06
-0.00364311
2.35926e-06
-0.00420357
3.13748e-06
-0.00476408
3.98995e-06
-0.0053245
4.88791e-06
-0.005885
5.81592e-06
-0.00644536
6.73719e-06
-0.00700587
7.63143e-06
-0.00756613
8.45706e-06
-0.0081267
9.1823e-06
-0.0086868
9.76805e-06
-0.00924752
1.01569e-05
-0.00980736
1.03403e-05
-0.0103685
1.01989e-05
-0.0109278
9.77743e-06
-0.0114897
8.86675e-06
-0.0120481
7.60387e-06
-0.0126113
5.63509e-06
-0.0131683
3.28911e-06
-0.000280285
-0.000840876
6.63302e-08
-0.00140147
2.64687e-07
-0.00196209
5.9093e-07
-0.00252269
1.03961e-06
-0.00308328
1.59968e-06
-0.00364387
2.26199e-06
-0.00420441
3.00744e-06
-0.00476495
3.82373e-06
-0.0053254
4.68276e-06
-0.00588589
5.56985e-06
-0.00644622
6.44944e-06
-0.00700666
7.3021e-06
-0.00756682
8.0878e-06
-0.00812725
8.77621e-06
-0.00868715
9.33137e-06
-0.00924766
9.69642e-06
-0.00980717
9.87068e-06
-0.010368
9.73272e-06
-0.0109268
9.34111e-06
-0.0114883
8.472e-06
-0.0120461
7.30023e-06
-0.0126089
5.42332e-06
-0.013165
3.22309e-06
-0.00028035
-0.000841071
6.33867e-08
-0.00140179
2.52909e-07
-0.00196253
5.64551e-07
-0.00252324
9.93045e-07
-0.00308393
1.52767e-06
-0.0036446
2.15972e-06
-0.0042052
2.87062e-06
-0.00476579
3.64879e-06
-0.00532627
4.4666e-06
-0.00588675
5.31044e-06
-0.00644705
6.14542e-06
-0.00700741
6.95397e-06
-0.00756748
7.6957e-06
-0.00812776
8.34343e-06
-0.00868748
8.86054e-06
-0.00924779
9.19617e-06
-0.00980698
9.34624e-06
-0.0103676
9.20101e-06
-0.0109259
8.81615e-06
-0.0114871
7.97508e-06
-0.0120441
6.87313e-06
-0.0126067
5.09165e-06
-0.0131617
3.03989e-06
-0.000280412
-0.000841257
6.05608e-08
-0.0014021
2.41582e-07
-0.00196295
5.39194e-07
-0.00252376
9.48305e-07
-0.00308455
1.45854e-06
-0.00364529
2.06168e-06
-0.00420596
2.73961e-06
-0.00476659
3.48161e-06
-0.00532709
4.26042e-06
-0.00588756
5.06385e-06
-0.00644783
5.85714e-06
-0.00700812
6.62562e-06
-0.00756809
7.32666e-06
-0.00812825
7.93921e-06
-0.00868777
8.42189e-06
-0.0092479
8.73475e-06
-0.00980679
8.85934e-06
-0.0103671
8.70948e-06
-0.010925
8.32077e-06
-0.0114859
7.50487e-06
-0.0120423
6.44958e-06
-0.0126046
4.75628e-06
-0.0131586
2.8124e-06
-0.000280471
-0.000841434
5.80607e-08
-0.00140239
2.31565e-07
-0.00196335
5.16801e-07
-0.00252426
9.08851e-07
-0.00308514
1.39771e-06
-0.00364595
1.97567e-06
-0.00420669
2.62518e-06
-0.00476735
3.33617e-06
-0.00532787
4.08236e-06
-0.00588832
4.85207e-06
-0.00644857
5.6123e-06
-0.00700879
6.34897e-06
-0.00756867
7.0213e-06
-0.00812869
7.60794e-06
-0.00868805
8.07258e-06
-0.00924799
8.37356e-06
-0.0098066
8.49284e-06
-0.0103667
8.34359e-06
-0.0109242
7.97373e-06
-0.0114848
7.17945e-06
-0.0120405
6.19004e-06
-0.0126026
4.5619e-06
-0.0131557
2.73538e-06
-0.000280528
-0.000841604
5.53556e-08
-0.00140267
2.20731e-07
-0.00196373
4.92594e-07
-0.00252474
8.66209e-07
-0.00308571
1.33196e-06
-0.00364659
1.88275e-06
-0.00420738
2.50155e-06
-0.00476807
3.17896e-06
-0.00532862
3.8899e-06
-0.00588906
4.62312e-06
-0.00644928
5.34754e-06
-0.00700944
6.04944e-06
-0.00756923
6.69027e-06
-0.00812912
7.2486e-06
-0.00868831
7.69434e-06
-0.00924807
7.9829e-06
-0.00980641
8.0983e-06
-0.0103663
7.94869e-06
-0.0109233
7.60152e-06
-0.0114838
6.82754e-06
-0.0120389
5.88936e-06
-0.0126007
4.32077e-06
-0.0131529
2.65364e-06
-0.000280582
-0.000841766
5.24157e-08
-0.00140294
2.08967e-07
-0.0019641
4.66332e-07
-0.00252519
8.19975e-07
-0.00308624
1.26068e-06
-0.00364719
1.78211e-06
-0.00420804
2.3677e-06
-0.00476876
3.00879e-06
-0.00532933
3.68166e-06
-0.00588976
4.37555e-06
-0.00644995
5.06127e-06
-0.00701005
5.7255e-06
-0.00756975
6.33234e-06
-0.00812953
6.85938e-06
-0.00868856
7.28407e-06
-0.00924815
7.55837e-06
-0.00980622
7.67068e-06
-0.0103659
7.52196e-06
-0.0109225
7.20833e-06
-0.0114828
6.46459e-06
-0.0120373
5.56453e-06
-0.0125989
4.03671e-06
-0.0131502
2.45313e-06
-0.000280633
-0.000841919
4.92174e-08
-0.00140319
1.9619e-07
-0.00196444
4.37833e-07
-0.00252563
7.69857e-07
-0.00308675
1.18348e-06
-0.00364776
1.67318e-06
-0.00420866
2.22294e-06
-0.00476942
2.82484e-06
-0.00533
3.45678e-06
-0.00589042
4.10844e-06
-0.00645059
4.75265e-06
-0.00701062
5.37608e-06
-0.00757025
5.94634e-06
-0.00812992
6.43953e-06
-0.00868879
6.8414e-06
-0.00924823
7.09744e-06
-0.00980603
7.20664e-06
-0.0103655
7.05786e-06
-0.0109217
6.78681e-06
-0.0114819
6.08966e-06
-0.0120357
5.25183e-06
-0.0125973
4.07586e-06
-0.0131477
2.29001e-06
-0.000280681
-0.000842062
4.57378e-08
-0.00140342
1.82322e-07
-0.00196477
4.06922e-07
-0.00252603
7.15552e-07
-0.00308723
1.09991e-06
-0.0036483
1.55535e-06
-0.00420925
2.06649e-06
-0.00477003
2.62619e-06
-0.00533063
3.21422e-06
-0.00589104
3.82058e-06
-0.00645118
4.4205e-06
-0.00701117
4.99998e-06
-0.00757072
5.53201e-06
-0.00813028
5.98876e-06
-0.008689
6.36661e-06
-0.0092483
6.59976e-06
-0.00980583
6.70711e-06
-0.0103652
6.55581e-06
-0.0109209
6.31821e-06
-0.011481
5.67013e-06
-0.0120341
4.96355e-06
-0.0125958
3.6232e-06
-0.0131453
2.16178e-06
-0.000280726
-0.000842195
4.1967e-08
-0.00140364
1.67323e-07
-0.00196507
3.73502e-07
-0.0025264
6.5687e-07
-0.00308767
1.00969e-06
-0.00364879
1.42815e-06
-0.00420979
1.89771e-06
-0.0047706
2.41209e-06
-0.00533121
2.95311e-06
-0.00589162
3.51087e-06
-0.00645174
4.06363e-06
-0.00701167
4.59553e-06
-0.00757114
5.08733e-06
-0.00813063
5.50548e-06
-0.0086892
5.85884e-06
-0.00924837
6.06485e-06
-0.00980564
6.17769e-06
-0.0103649
6.02645e-06
-0.0109203
5.81016e-06
-0.0114802
5.18124e-06
-0.0120327
4.59586e-06
-0.0125943
3.31503e-06
-0.0131431
1.9853e-06
-0.000280767
-0.000842317
3.79118e-08
-0.00140384
1.5121e-07
-0.00196534
3.37574e-07
-0.00252675
5.93755e-07
-0.00308808
9.12727e-07
-0.00364925
1.29136e-06
-0.00421029
1.71626e-06
-0.00477112
2.18208e-06
-0.00533175
2.67284e-06
-0.00589214
3.17839e-06
-0.00645224
3.68116e-06
-0.00701213
4.16177e-06
-0.00757153
4.61238e-06
-0.00813095
4.98885e-06
-0.00868937
5.31694e-06
-0.00924845
5.49032e-06
-0.00980546
5.61691e-06
-0.0103647
5.47266e-06
-0.0109196
5.29494e-06
-0.0114796
5.06885e-06
-0.0120314
4.06803e-06
-0.0125929
3.01013e-06
-0.0131411
1.79343e-06
-0.000280804
-0.000842427
3.35971e-08
-0.00140402
1.34056e-07
-0.00196559
2.99264e-07
-0.00252706
5.26381e-07
-0.00308844
8.09174e-07
-0.00364966
1.14517e-06
-0.00421074
1.52237e-06
-0.00477159
1.93637e-06
-0.00533223
2.37344e-06
-0.00589262
2.82271e-06
-0.0064527
3.27277e-06
-0.00701256
3.69797e-06
-0.00757187
4.10672e-06
-0.00813124
4.43824e-06
-0.00868951
4.74264e-06
-0.00924853
4.87728e-06
-0.0098053
5.02258e-06
-0.0103644
4.87546e-06
-0.0109189
4.80789e-06
-0.0114789
4.33581e-06
-0.0120303
3.66344e-06
-0.0125916
2.7265e-06
-0.0131392
1.61016e-06
-0.000280836
-0.000842524
2.90369e-08
-0.00140418
1.15925e-07
-0.00196581
2.58716e-07
-0.00252733
4.54999e-07
-0.00308877
6.99388e-07
-0.00365002
9.90142e-07
-0.00421113
1.31684e-06
-0.00477201
1.67594e-06
-0.00533266
2.05585e-06
-0.00589305
2.44426e-06
-0.0064531
2.83941e-06
-0.00701294
3.20453e-06
-0.00757217
3.57363e-06
-0.00813152
3.85345e-06
-0.00868961
4.14203e-06
-0.00924864
4.23274e-06
-0.00980513
4.40394e-06
-0.0103643
4.63199e-06
-0.0109183
4.11625e-06
-0.0114783
3.74107e-06
-0.0120293
3.20291e-06
-0.0125905
2.39281e-06
-0.0131376
1.41241e-06
-0.000280864
-0.000842608
2.41986e-08
-0.00140432
9.68281e-08
-0.001966
2.16087e-07
-0.00252756
3.80046e-07
-0.00308905
5.84107e-07
-0.00365033
8.27396e-07