/*--------------------------------*- C++ -*----------------------------------*\
  =========                 |
  \\      /  F ield         | OpenFOAM: The Open Source CFD Toolbox
   \\    /   O peration     | Website:  https://openfoam.org
    \\  /    A nd           | Version:  10
     \\/     M anipulation  |
\*---------------------------------------------------------------------------*/
FoamFile
{
    format      ascii;
    class       volScalarField;
    location    "0.13";
    object      T;
}
// * * * * * * * * * * * * * * * * * * * * * * * * * * * * * * * * * * * * * //

dimensions      [0 0 0 1 0 0 0];

internalField   nonuniform List<scalar> 
4176
(
180.326
180.331
180.346
180.365
180.398
180.428
180.479
180.519
180.589
180.639
180.727
180.787
180.891
180.963
181.078
181.168
181.284
181.407
181.511
181.679
181.754
181.987
182.001
182.302
180.336
180.341
180.356
180.376
180.409
180.44
180.491
180.534
180.604
180.657
180.745
180.808
180.913
180.988
181.106
181.199
181.318
181.443
181.549
181.72
181.796
182.039
182.056
182.387
180.363
180.368
180.383
180.402
180.434
180.466
180.515
180.557
180.624
180.677
180.762
180.824
180.927
181
181.116
181.205
181.324
181.445
181.549
181.716
181.787
182.025
182.042
182.383
180.414
180.419
180.434
180.454
180.485
180.517
180.566
180.608
180.675
180.727
180.814
180.875
180.979
181.05
181.168
181.256
181.376
181.499
181.599
181.771
181.84
182.074
182.089
182.415
180.489
180.494
180.509
180.528
180.559
180.59
180.639
180.681
180.747
180.798
180.884
180.944
181.047
181.117
181.234
181.32
181.441
181.562
181.66
181.833
181.9
182.132
182.147
182.462
180.588
180.593
180.607
180.627
180.657
180.688
180.736
180.778
180.843
180.895
180.979
181.039
181.141
181.211
181.328
181.412
181.535
181.65
181.754
181.921
181.991
182.221
182.239
182.553
180.711
180.716
180.73
180.749
180.779
180.81
180.857
180.899
180.963
181.014
181.097
181.157
181.257
181.326
181.442
181.524
181.648
181.758
181.866
182.027
182.098
182.325
182.345
182.658
180.858
180.862
180.876
180.895
180.925
180.956
181.002
181.043
181.107
181.157
181.239
181.298
181.397
181.466
181.58
181.661
181.784
181.891
182.001
182.157
182.231
182.454
182.475
182.784
181.028
181.033
181.047
181.066
181.095
181.125
181.171
181.212
181.274
181.324
181.405
181.463
181.561
181.628
181.741
181.821
181.943
182.045
182.157
182.308
182.384
182.602
182.625
182.929
181.222
181.227
181.241
181.259
181.288
181.318
181.363
181.403
181.465
181.514
181.593
181.651
181.747
181.813
181.926
182.003
182.125
182.224
182.337
182.482
182.561
182.773
182.798
183.097
181.441
181.446
181.459
181.477
181.506
181.535
181.58
181.619
181.68
181.728
181.806
181.862
181.958
182.022
182.133
182.209
182.329
182.425
182.538
182.678
182.758
182.965
182.991
183.285
181.682
181.687
181.7
181.718
181.746
181.775
181.819
181.858
181.918
181.965
182.042
182.097
182.191
182.254
182.363
182.437
182.556
182.649
182.763
182.898
182.979
183.18
183.207
183.495
181.948
181.953
181.966
181.984
182.011
182.04
182.083
182.12
182.179
182.226
182.301
182.355
182.447
182.509
182.616
182.688
182.806
182.896
183.009
183.139
183.221
183.416
183.443
183.726
182.237
182.242
182.255
182.272
182.299
182.327
182.369
182.406
182.464
182.509
182.583
182.636
182.727
182.787
182.893
182.962
183.078
183.165
183.279
183.403
183.486
183.675
183.702
183.979
182.551
182.555
182.568
182.585
182.611
182.639
182.68
182.716
182.773
182.817
182.89
182.941
183.03
183.088
183.192
183.259
183.373
183.457
183.569
183.689
183.772
183.955
183.982
184.253
182.887
182.892
182.904
182.921
182.947
182.973
183.013
183.049
183.104
183.147
183.218
183.268
183.355
183.412
183.514
183.579
183.691
183.772
183.883
183.998
184.081
184.258
184.285
184.549
183.248
183.253
183.265
183.281
183.306
183.332
183.371
183.406
183.46
183.501
183.571
183.619
183.704
183.759
183.858
183.921
184.031
184.109
184.219
184.328
184.411
184.582
184.61
184.866
183.632
183.637
183.648
183.664
183.689
183.714
183.752
183.785
183.838
183.878
183.946
183.992
184.075
184.128
184.226
184.286
184.394
184.469
184.577
184.681
184.764
184.928
184.956
185.206
184.041
184.045
184.056
184.072
184.096
184.12
184.157
184.189
184.24
184.279
184.345
184.39
184.471
184.521
184.616
184.674
184.779
184.851
184.956
185.056
185.138
185.296
185.324
185.566
184.472
184.476
184.487
184.502
184.525
184.549
184.585
184.615
184.665
184.702
184.767
184.809
184.888
184.936
185.029
185.084
185.187
185.255
185.359
185.453
185.535
185.686
185.715
185.949
184.928
184.932
184.943
184.957
184.98
185.002
185.037
185.066
185.115
185.15
185.212
185.253
185.329
185.375
185.465
185.517
185.617
185.682
185.783
185.873
185.953
186.098
186.127
186.353
185.407
185.411
185.421
185.435
185.456
185.478
185.511
185.54
185.586
185.62
185.68
185.718
185.793
185.836
185.923
185.973
186.07
186.131
186.23
186.315
186.394
186.532
186.561
186.779
185.91
185.914
185.924
185.937
185.958
185.978
186.011
186.037
186.082
186.114
186.172
186.208
186.28
186.32
186.405
186.451
186.545
186.603
186.698
186.778
186.857
186.988
187.016
187.226
186.436
186.44
186.449
186.462
186.481
186.501
186.532
186.557
186.6
186.63
186.686
186.72
186.789
186.827
186.909
186.952
187.043
187.097
187.189
187.265
187.342
187.465
187.492
187.696
186.986
186.99
186.999
187.011
187.03
187.048
187.078
187.101
187.142
187.17
187.224
187.256
187.322
187.357
187.435
187.476
187.563
187.614
187.703
187.773
187.848
187.965
187.99
188.186
187.559
187.562
187.571
187.582
187.6
187.617
187.645
187.667
187.706
187.732
187.784
187.813
187.877
187.909
187.985
188.022
188.106
188.153
188.238
188.304
188.377
188.486
188.511
188.699
188.156
188.159
188.167
188.178
188.195
188.211
188.237
188.258
188.295
188.319
188.368
188.395
188.455
188.485
188.557
188.591
188.671
188.714
188.796
188.858
188.927
189.03
189.053
189.233
188.774
188.777
188.785
188.795
188.811
188.826
188.851
188.87
188.905
188.927
188.973
188.997
189.055
189.082
189.151
189.182
189.259
189.298
189.376
189.433
189.499
189.596
189.618
189.789
189.417
189.42
189.427
189.436
189.451
189.465
189.489
189.506
189.539
189.559
189.603
189.624
189.68
189.703
189.768
189.796
189.869
189.904
189.979
190.031
190.094
190.183
190.205
190.366
190.081
190.084
190.09
190.099
190.113
190.126
190.148
190.163
190.195
190.212
190.254
190.273
190.325
190.346
190.408
190.431
190.501
190.532
190.603
190.651
190.711
190.793
190.813
190.966
190.769
190.771
190.778
190.786
190.799
190.81
190.831
190.845
190.874
190.889
190.929
190.945
190.994
191.011
191.07
191.09
191.156
191.183
191.25
191.293
191.349
191.424
191.442
191.587
191.477
191.48
191.486
191.493
191.505
191.515
191.535
191.547
191.574
191.587
191.624
191.638
191.684
191.699
191.754
191.771
191.833
191.856
191.919
191.957
192.01
192.078
192.095
192.23
192.209
192.212
192.217
192.224
192.235
192.244
192.262
192.272
192.298
192.309
192.344
192.354
192.398
192.409
192.461
192.474
192.532
192.551
192.61
192.643
192.692
192.754
192.77
192.895
192.962
192.964
192.969
192.975
192.985
192.993
193.01
193.019
193.042
193.051
193.083
193.091
193.132
193.14
193.19
193.199
193.254
193.268
193.323
193.351
193.396
193.452
193.465
193.583
193.738
193.74
193.745
193.75
193.759
193.766
193.781
193.788
193.81
193.817
193.846
193.852
193.89
193.894
193.941
193.946
193.998
194.007
194.059
194.082
194.123
194.173
194.184
194.291
194.533
194.536
194.54
194.544
194.553
194.558
194.572
194.577
194.597
194.602
194.629
194.632
194.668
194.67
194.713
194.714
194.763
194.768
194.817
194.834
194.872
194.915
194.924
195.022
195.352
195.354
195.358
195.362
195.369
195.374
195.386
195.39
195.408
195.411
195.436
195.436
195.469
195.467
195.507
195.505
195.55
195.551
195.596
195.609
195.642
195.68
195.686
195.774
196.19
196.192
196.195
196.198
196.205
196.209
196.219
196.222
196.238
196.239
196.262
196.26
196.29
196.285
196.322
196.317
196.358
196.355
196.397
196.404
196.435
196.466
196.468
196.548
197.05
197.052
197.055
197.058
197.063
197.066
197.076
197.077
197.091
197.09
197.111
197.106
197.133
197.125
197.159
197.15
197.188
197.181
197.219
197.222
197.248
197.274
197.274
197.344
197.929
197.931
197.933
197.936
197.941
197.943
197.951
197.95
197.963
197.96
197.978
197.972
197.996
197.986
198.017
198.004
198.039
198.028
198.062
198.06
198.083
198.103
198.1
198.162
198.831
198.833
198.835
198.837
198.841
198.841
198.848
198.846
198.858
198.852
198.869
198.86
198.882
198.868
198.896
198.88
198.912
198.896
198.927
198.919
198.939
198.953
198.947
199.001
199.751
199.752
199.754
199.756
199.759
199.758
199.764
199.761
199.77
199.764
199.778
199.766
199.786
199.77
199.795
199.775
199.804
199.784
199.812
199.799
199.816
199.824
199.814
199.862
200.693
200.694
200.695
200.696
200.699
200.698
200.702
200.698
200.705
200.697
200.709
200.695
200.712
200.693
200.715
200.692
200.718
200.693
200.719
200.7
200.715
200.716
200.704
200.743
201.653
201.654
201.655
201.655
201.657
201.655
201.658
201.652
201.658
201.648
201.658
201.642
201.657
201.635
201.655
201.628
201.652
201.623
201.645
201.621
201.633
201.628
201.613
201.644
202.634
202.635
202.636
202.636
202.636
202.633
202.635
202.628
202.633
202.62
202.628
202.61
202.623
202.597
202.615
202.585
202.605
202.572
202.592
202.563
202.573
202.561
202.544
202.567
203.633
203.634
203.634
203.634
203.633
203.629
203.63
203.622
203.624
203.61
203.617
203.596
203.606
203.579
203.594
203.56
203.578
203.541
203.558
203.524
203.532
203.513
203.495
203.509
204.652
204.654
204.653
204.652
204.651
204.646
204.646
204.636
204.637
204.622
204.626
204.603
204.611
204.58
204.593
204.556
204.571
204.529
204.545
204.505
204.511
204.484
204.467
204.471
205.689
205.69
205.689
205.688
205.686
205.68
205.678
205.667
205.667
205.65
205.652
205.627
205.633
205.6
205.61
205.569
205.582
205.537
205.549
205.505
205.508
205.475
205.458
205.453
206.745
206.746
206.745
206.743
206.741
206.734
206.731
206.719
206.717
206.698
206.698
206.671
206.675
206.638
206.646
206.602
206.613
206.563
206.573
206.523
206.526
206.485
206.468
206.454
207.818
207.819
207.817
207.815
207.811
207.804
207.8
207.786
207.783
207.762
207.76
207.731
207.733
207.694
207.7
207.652
207.662
207.607
207.615
207.559
207.562
207.513
207.496
207.474
208.909
208.91
208.909
208.906
208.901
208.893
208.888
208.873
208.868
208.846
208.842
208.811
208.811
208.769
208.772
208.721
208.729
208.669
208.677
208.613
208.618
208.559
208.544
208.513
210.016
210.016
210.014
210.011
210.006
209.997
209.991
209.975
209.968
209.944
209.939
209.906
209.904
209.86
209.861
209.807
209.813
209.748
209.756
209.686
209.69
209.624
209.608
209.569
211.14
211.141
211.139
211.135
211.129
211.119
211.112
211.095
211.087
211.061
211.055
211.019
211.016
210.968
210.968
210.91
210.915
210.844
210.853
210.776
210.78
210.708
210.691
210.644
212.278
212.278
212.276
212.272
212.265
212.255
212.247
212.229
212.219
212.192
212.184
212.146
212.142
212.092
212.091
212.028
212.033
211.957
211.966
211.882
211.886
211.808
211.79
211.737
213.433
213.433
213.43
213.426
213.419
213.408
213.398
213.38
213.369
213.34
213.331
213.291
213.286
213.231
213.231
213.163
213.169
213.087
213.096
213.007
213.009
212.926
212.907
212.847
214.599
214.6
214.597
214.592
214.584
214.573
214.562
214.543
214.531
214.501
214.491
214.448
214.443
214.385
214.386
214.312
214.319
214.232
214.24
214.147
214.147
214.06
214.039
213.973
215.781
215.782
215.778
215.773
215.765
215.754
215.742
215.721
215.71
215.677
215.668
215.621
215.617
215.554
215.555
215.478
215.483
215.394
215.4
215.304
215.303
215.21
215.189
215.117
216.973
216.974
216.97
216.965
216.957
216.945
216.933
216.911
216.899
216.864
216.855
216.806
216.802
216.737
216.737
216.658
216.662
216.57
216.573
216.475
216.472
216.375
216.353
216.275
218.18
218.181
218.177
218.172
218.162
218.151
218.137
218.115
218.103
218.067
218.058
218.007
218.001
217.935
217.933
217.853
217.854
217.76
217.763
217.661
217.657
217.556
217.534
217.449
219.395
219.396
219.392
219.387
219.377
219.365
219.351
219.329
219.315
219.279
219.269
219.217
219.21
219.144
219.14
219.059
219.059
218.964
218.963
218.86
218.854
218.75
218.727
218.637
220.624
220.625
220.62
220.615
220.605
220.593
220.578
220.557
220.541
220.506
220.494
220.442
220.434
220.366
220.36
220.279
220.276
220.18
220.179
220.073
220.066
219.959
219.935
219.841
221.859
221.86
221.856
221.851
221.84
221.828
221.813
221.792
221.774
221.741
221.726
221.675
221.666
221.598
221.592
221.509
221.505
221.408
221.404
221.297
221.289
221.179
221.154
221.056
223.107
223.108
223.104
223.098
223.088
223.076
223.06
223.04
223.02
222.988
222.971
222.921
222.91
222.841
222.834
222.751
222.745
222.648
222.643
222.534
222.525
222.413
222.387
222.285
224.361
224.362
224.358
224.353
224.342
224.33
224.314
224.293
224.273
224.242
224.223
224.175
224.16
224.095
224.086
224.001
223.995
223.897
223.89
223.781
223.77
223.655
223.63
223.524
225.627
225.627
225.623
225.618
225.608
225.595
225.579
225.559
225.538
225.507
225.487
225.439
225.423
225.357
225.347
225.262
225.255
225.156
225.149
225.038
225.027
224.91
224.884
224.775
226.897
226.898
226.894
226.889
226.878
226.866
226.85
226.829
226.808
226.778
226.756
226.71
226.692
226.627
226.615
226.531
226.523
226.423
226.414
226.303
226.29
226.172
226.146
226.033
228.179
228.18
228.176
228.171
228.16
228.148
228.131
228.111
228.089
228.059
228.036
227.99
227.971
227.905
227.892
227.808
227.799
227.698
227.689
227.577
227.564
227.444
227.418
227.302
229.466
229.467
229.463
229.458
229.447
229.434
229.417
229.397
229.374
229.344
229.32
229.275
229.254
229.19
229.175
229.091
229.081
228.978
228.969
228.857
228.842
228.721
228.695
228.578
230.763
230.765
230.76
230.755
230.743
230.731
230.713
230.692
230.669
230.639
230.613
230.568
230.546
230.481
230.465
230.38
230.37
230.267
230.257
230.144
230.129
230.007
229.981
229.862
232.064
232.065
232.06
232.055
232.043
232.03
232.012
231.991
231.967
231.936
231.909
231.865
231.84
231.777
231.76
231.674
231.663
231.56
231.549
231.435
231.419
231.297
231.271
231.15
233.373
233.375
233.369
233.364
233.351
233.338
233.319
233.297
233.272
233.241
233.212
233.169
233.141
233.078
233.059
232.974
232.961
232.859
232.848
232.732
232.716
232.595
232.568
232.446
234.682
234.684
234.678
234.672
234.66
234.645
234.626
234.603
234.578
234.546
234.516
234.473
234.443
234.383
234.36
234.278
234.262
234.16
234.149
234.032
234.016
233.895
233.868
233.745
235.995
235.996
235.991
235.985
235.972
235.957
235.938
235.915
235.889
235.857
235.826
235.783
235.751
235.691
235.665
235.586
235.568
235.467
235.455
235.34
235.324
235.201
235.175
235.053
237.302
237.303
237.298
237.292
237.28
237.265
237.245
237.223
237.196
237.165
237.134
237.091
237.059
237.002
236.973
236.897
236.876
236.777
236.762
236.65
236.633
236.511
236.486
236.363
238.606
238.608
238.603
238.597
238.586
238.572
238.553
238.531
238.506
238.475
238.445
238.404
238.37
238.315
238.285
238.211
238.188
238.094
238.077
237.966
237.95
237.828
237.804
237.681
239.899
239.901
239.897
239.892
239.882
239.869
239.852
239.832
239.808
239.78
239.751
239.713
239.681
239.629
239.599
239.529
239.503
239.412
239.395
239.285
239.269
239.149
239.125
239.003
241.187
241.189
241.187
241.183
241.174
241.163
241.149
241.131
241.11
241.084
241.058
241.023
240.993
240.944
240.915
240.849
240.825
240.738
240.72
240.612
240.597
240.477
240.455
240.333
242.466
242.469
242.467
242.465
242.457
242.449
242.437
242.422
242.404
242.382
242.359
242.328
242.302
242.258
242.232
242.17
242.148
242.066
242.047
241.944
241.93
241.81
241.789
241.667
243.749
243.753
243.752
243.75
243.744
243.738
243.728
243.716
243.7
243.682
243.662
243.635
243.612
243.571
243.55
243.492
243.475
243.396
243.382
243.282
243.271
243.153
243.134
243.01
245.038
245.043
245.041
245.041
245.035
245.031
245.02
245.011
244.996
244.981
244.963
244.94
244.92
244.883
244.867
244.811
244.801
244.721
244.718
244.617
244.614
244.498
244.483
244.363
246.352
246.356
246.354
246.355
246.348
246.344
246.334
246.324
246.31
246.295
246.277
246.255
246.235
246.201
246.186
246.131
246.128
246.047
246.053
245.952
245.957
245.844
245.836
245.724
247.694
247.697
247.696
247.694
247.688
247.681
247.67
247.658
247.642
247.624
247.605
247.581
247.561
247.528
247.509
247.457
247.452
247.372
247.381
247.281
247.29
247.179
247.176
247.071
249.083
249.085
249.082
249.08
249.071
249.062
249.047
249.031
249.012
248.99
248.966
248.938
248.911
248.874
248.848
248.798
248.784
248.708
248.711
248.611
248.623
248.507
248.51
248.403
250.516
250.517
250.513
250.509
250.497
250.485
250.466
250.446
250.421
250.393
250.363
250.327
250.294
250.251
250.215
250.16
250.135
250.056
250.05
249.943
249.955
249.831
249.836
249.722
252.005
252.004
251.998
251.993
251.979
251.963
251.94
251.915
251.883
251.85
251.811
251.769
251.723
251.672
251.625
251.559
251.524
251.432
251.417
251.297
251.303
251.165
251.171
251.042
253.538
253.533
253.527
253.521
253.504
253.485
253.459
253.43
253.393
253.354
253.307
253.258
253.205
253.144
253.085
253.009
252.957
252.851
252.822
252.685
252.677
252.52
252.52
252.368
255.114
255.107
255.101
255.094
255.076
255.055
255.026
254.994
254.954
254.91
254.86
254.803
254.743
254.673
254.603
254.52
254.449
254.341
254.283
254.139
254.106
253.925
253.911
253.724
256.717
256.706
256.701
256.694
256.675
256.652
256.623
256.589
256.548
256.501
256.449
256.388
256.326
256.252
256.176
256.087
256.004
255.893
255.81
255.667
255.6
255.408
255.369
255.135
258.341
258.328
258.324
258.317
258.298
258.276
258.247
258.212
258.171
258.124
258.071
258.01
257.945
257.871
257.792
257.703
257.616
257.505
257.411
257.272
257.18
256.993
256.927
256.659
259.965
259.952
259.949
259.942
259.924
259.902
259.874
259.841
259.801
259.755
259.703
259.645
259.582
259.51
259.433
259.346
259.26
259.151
259.058
258.923
258.831
258.649
258.58
258.314
261.588
261.576
261.574
261.567
261.55
261.53
261.503
261.472
261.434
261.391
261.341
261.286
261.223
261.156
261.083
260.999
260.919
260.816
260.729
260.599
260.517
260.341
260.283
260.041
263.188
263.182
263.179
263.172
263.157
263.139
263.113
263.085
263.049
263.009
262.962
262.912
262.854
262.792
262.723
262.645
262.569
262.474
262.392
262.272
262.196
262.032
261.98
261.757
264.768
264.77
264.766
264.76
264.746
264.73
264.706
264.681
264.647
264.611
264.567
264.521
264.466
264.409
264.344
264.275
264.203
264.117
264.041
263.931
263.862
263.711
263.663
263.459
266.318
266.322
266.318
266.313
266.3
266.287
266.264
266.242
266.21
266.179
266.137
266.097
266.046
265.996
265.936
265.873
265.805
265.729
265.657
265.558
265.494
265.358
265.312
265.128
267.839
267.844
267.84
267.837
267.824
267.814
267.792
267.774
267.743
267.718
267.677
267.643
267.593
267.551
267.492
267.44
267.375
267.309
267.243
267.153
267.095
266.972
266.93
266.763
269.317
269.321
269.318
269.316
269.305
269.295
269.276
269.26
269.232
269.21
269.173
269.145
269.099
269.063
269.008
268.963
268.902
268.844
268.783
268.704
268.649
268.541
268.501
268.352
270.756
270.762
270.759
270.757
270.748
270.74
270.724
270.709
270.685
270.664
270.632
270.605
270.564
270.532
270.483
270.444
270.389
270.339
270.282
270.213
270.163
270.069
270.03
269.899
272.147
272.152
272.15
272.149
272.141
272.134
272.12
272.107
272.087
272.068
272.04
272.017
271.982
271.954
271.91
271.875
271.825
271.783
271.728
271.673
271.624
271.542
271.506
271.392
273.496
273.502
273.501
273.5
273.494
273.488
273.476
273.465
273.447
273.431
273.407
273.385
273.354
273.329
273.291
273.262
273.217
273.181
273.132
273.086
273.039
272.971
272.936
272.837
274.793
274.799
274.798
274.798
274.793
274.788
274.778
274.769
274.754
274.74
274.719
274.702
274.676
274.654
274.621
274.595
274.555
274.525
274.48
274.444
274.398
274.342
274.31
274.226
276.049
276.054
276.054
276.054
276.051
276.047
276.039
276.031
276.018
276.007
275.989
275.973
275.949
275.932
275.902
275.882
275.847
275.823
275.784
275.752
275.711
275.667
275.635
275.566
277.249
277.255
277.255
277.256
277.253
277.251
277.244
277.238
277.227
277.218
277.203
277.192
277.172
277.158
277.132
277.115
277.084
277.065
277.029
277.006
276.967
276.933
276.903
276.846
278.41
278.414
278.415
278.417
278.415
278.413
278.408
278.403
278.394
278.387
278.374
278.364
278.347
278.336
278.314
278.302
278.275
278.261
278.229
278.212
278.177
278.153
278.123
278.079
279.515
279.52
279.521
279.523
279.521
279.521
279.517
279.514
279.507
279.501
279.491
279.485
279.471
279.463
279.444
279.435
279.411
279.401
279.373
279.362
279.33
279.313
279.286
279.252
280.581
280.585
280.587
280.589
280.588
280.588
280.586
280.584
280.578
280.575
280.566
280.561
280.549
280.544
280.528
280.523
280.503
280.498
280.473
280.466
280.438
280.429
280.402
280.379
281.593
281.597
281.599
281.602
281.602
281.603
281.601
281.6
281.596
281.594
281.589
281.587
281.577
281.575
281.561
281.558
281.541
281.539
281.517
281.516
281.491
281.487
281.463
281.448
282.567
282.572
282.574
282.577
282.577
282.579
282.578
282.578
282.576
282.576
282.57
282.569
282.561
282.561
282.551
282.552
282.537
282.539
282.521
282.523
282.501
282.503
282.48
282.474
283.491
283.495
283.497
283.5
283.501
283.503
283.503
283.505
283.503
283.504
283.502
283.504
283.498
283.5
283.491
283.494
283.481
283.486
283.47
283.477
283.457
283.464
283.444
283.445
284.378
284.383
284.385
284.388
284.39
284.392
284.393
284.395
284.395
284.397
284.394
284.397
284.393
284.397
284.391
284.397
284.387
284.395
284.382
284.391
284.374
284.386
284.368
284.375
285.217
285.221
285.223
285.227
285.229
285.232
285.233
285.236
285.237
285.24
285.241
285.245
285.243
285.248
285.243
285.25
285.243
285.253
285.242
285.254
285.24
285.255
285.239
285.251
286.023
286.027
286.029
286.033
286.035
286.039
286.041
286.045
286.046
286.05
286.05
286.055
286.054
286.062
286.059
286.069
286.063
286.076
286.066
286.082
286.069
286.088
286.074
286.091
286.783
286.787
286.789
286.792
286.795
286.799
286.801
286.806
286.808
286.813
286.816
286.823
286.823
286.831
286.829
286.84
286.836
286.85
286.843
286.861
286.85
286.872
286.859
286.88
287.513
287.516
287.519
287.522
287.525
287.53
287.533
287.538
287.54
287.546
287.547
287.555
287.556
287.566
287.566
287.579
287.577
287.593
287.587
287.607
287.598
287.623
287.611
287.636
288.199
288.203
288.205
288.208
288.211
288.216
288.219
288.224
288.228
288.235
288.239
288.247
288.249
288.259
288.26
288.273
288.272
288.29
288.285
288.307
288.3
288.327
288.315
288.344
288.858
288.861
288.864
288.868
288.871
288.876
288.88
288.885
288.889
288.896
288.898
288.908
288.911
288.923
288.925
288.94
288.94
288.959
288.956
288.98
288.973
289.002
288.991
289.024
289.477
289.48
289.483
289.486
289.489
289.494
289.498
289.504
289.509
289.517
289.522
289.531
289.535
289.546
289.549
289.564
289.565
289.585
289.583
289.608
289.603
289.634
289.624
289.658
290.071
290.074
290.077
290.081
290.084
290.09
290.094
290.1
290.104
290.111
290.116
290.126
290.131
290.145
290.148
290.165
290.167
290.187
290.186
290.212
290.208
290.241
290.231
290.268
290.629
290.631
290.634
290.637
290.641
290.645
290.649
290.656
290.662
290.671
290.676
290.687
290.691
290.704
290.708
290.725
290.728
290.749
290.749
290.776
290.772
290.806
290.799
290.835
291.163
291.166
291.168
291.172
291.176
291.182
291.186
291.193
291.197
291.205
291.211
291.222
291.228
291.242
291.247
291.265
291.268
291.29
291.291
291.319
291.316
291.351
291.341
291.384
291.665
291.667
291.669
291.673
291.676
291.681
291.685
291.692
291.699
291.708
291.714
291.725
291.73
291.744
291.749
291.767
291.771
291.794
291.795
291.824
291.821
291.857
291.85
291.89
292.145
292.147
292.15
292.154
292.157
292.163
292.168
292.175
292.179
292.188
292.195
292.207
292.214
292.228
292.234
292.252
292.257
292.28
292.282
292.311
292.309
292.345
292.338
292.381
292.596
292.598
292.6
292.603
292.607
292.611
292.616
292.623
292.63
292.639
292.645
292.657
292.663
292.677
292.684
292.702
292.707
292.73
292.733
292.762
292.761
292.797
292.791
292.834
293.027
293.029
293.031
293.035
293.039
293.045
293.049
293.056
293.062
293.071
293.078
293.09
293.097
293.112
293.119
293.138
293.143
293.166
293.17
293.199
293.199
293.235
293.229
293.274
293.432
293.433
293.435
293.438
293.442
293.447
293.452
293.459
293.465
293.475
293.481
293.492
293.499
293.514
293.521
293.54
293.546
293.569
293.573
293.602
293.602
293.639
293.634
293.678
293.818
293.82
293.822
293.826
293.83
293.836
293.84
293.847
293.853
293.863
293.87
293.882
293.89
293.905
293.912
293.931
293.937
293.96
293.964
293.994
293.994
294.031
294.026
294.07
294.181
294.183
294.185
294.188
294.191
294.196
294.201
294.209
294.214
294.224
294.23
294.242
294.249
294.264
294.271
294.29
294.296
294.32
294.324
294.354
294.354
294.391
294.386
294.43
294.529
294.53
294.532
294.536
294.539
294.545
294.55
294.557
294.563
294.573
294.58
294.592
294.6
294.615
294.622
294.641
294.647
294.671
294.675
294.704
294.705
294.741
294.737
294.781
294.854
294.855
294.857
294.86
294.863
294.868
294.873
294.88
294.886
294.895
294.902
294.914
294.921
294.936
294.943
294.962
294.968
294.992
294.996
295.025
295.027
295.062
295.058
295.102
295.165
295.167
295.169
295.172
295.176
295.181
295.186
295.193
295.2
295.209
295.216
295.228
295.236
295.251
295.258
295.277
295.283
295.306
295.311
295.34
295.341
295.377
295.373
295.416
295.457
295.458
295.46
295.463
295.466
295.471
295.475
295.482
295.488
295.497
295.504
295.515
295.523
295.538
295.545
295.563
295.57
295.593
295.598
295.626
295.628
295.663
295.659
295.702
295.737
295.738
295.74
295.743
295.747
295.752
295.757
295.764
295.77
295.779
295.786
295.798
295.805
295.82
295.827
295.846
295.852
295.875
295.88
295.908
295.91
295.945
295.942
295.984
295.997
295.998
296
296.003
296.006
296.01
296.015
296.022
296.027
296.036
296.043
296.055
296.062
296.076
296.084
296.102
296.109
296.131
296.136
296.164
296.166
296.2
296.197
296.238
296.249
296.25
296.252
296.255
296.258
296.263
296.268
296.275
296.281
296.29
296.297
296.308
296.316
296.33
296.337
296.355
296.362
296.384
296.389
296.417
296.419
296.453
296.45
296.491
296.481
296.482
296.484
296.486
296.489
296.494
296.498
296.505
296.51
296.519
296.526
296.538
296.545
296.559
296.566
296.584
296.591
296.612
296.618
296.645
296.646
296.681
296.678
296.718
296.708
296.709
296.711
296.714
296.717
296.722
296.726
296.733
296.739
296.747
296.754
296.765
296.772
296.787
296.794
296.811
296.818
296.84
296.845
296.872
296.875
296.906
296.904
296.944
296.915
296.916
296.917
296.92
296.923
296.927
296.932
296.938
296.944
296.952
296.959
296.97
296.977
296.991
296.998
297.015
297.022
297.043
297.049
297.075
297.076
297.11
297.107
297.146
297.119
297.12
297.122
297.124
297.127
297.132
297.136
297.143
297.148
297.157
297.163
297.174
297.181
297.195
297.202
297.219
297.226
297.247
297.252
297.278
297.28
297.312
297.31
297.348
297.303
297.304
297.306
297.308
297.311
297.316
297.32
297.326
297.331
297.34
297.346
297.357
297.364
297.378
297.384
297.402
297.408
297.429
297.433
297.459
297.461
297.493
297.491
297.529
297.487
297.488
297.489
297.492
297.495
297.499
297.503
297.51
297.515
297.524
297.53
297.541
297.547
297.561
297.567
297.584
297.59
297.611
297.616
297.641
297.643
297.675
297.672
297.708
297.652
297.652
297.654
297.656
297.659
297.663
297.667
297.674
297.679
297.687
297.693
297.704
297.71
297.724
297.73
297.747
297.753
297.773
297.776
297.804
297.804
297.835
297.833
297.87
297.816
297.817
297.818
297.821
297.823
297.828
297.832
297.838
297.843
297.852
297.857
297.868
297.874
297.888
297.894
297.911
297.916
297.937
297.941
297.966
297.967
297.999
297.996
298.029
297.963
297.964
297.965
297.968
297.97
297.975
297.978
297.985
297.989
297.998
298.003
298.014
298.02
298.033
298.039
298.056
298.061
298.081
298.084
298.111
298.111
298.141
298.139
298.175
298.11
298.111
298.112
298.115
298.117
298.122
298.125
298.132
298.136
298.145
298.15
298.161
298.167
298.18
298.186
298.203
298.206
298.229
298.231
298.256
298.257
298.287
298.285
298.316
298.242
298.243
298.244
298.247
298.249
298.253
298.257
298.263
298.267
298.276
298.281
298.291
298.297
298.31
298.315
298.332
298.336
298.356
298.359
298.385
298.385
298.414
298.412
298.448
298.373
298.374
298.375
298.377
298.38
298.384
298.388
298.394
298.398
298.407
298.411
298.422
298.427
298.441
298.446
298.463
298.466
298.488
298.49
298.515
298.515
298.545
298.542
298.571
298.491
298.492
298.493
298.496
298.498
298.502
298.505
298.512
298.515
298.524
298.528
298.539
298.543
298.558
298.561
298.579
298.582
298.602
298.604
298.629
298.629
298.658
298.655
298.691
298.607
298.608
298.609
298.612
298.614
298.618
298.621
298.628
298.631
298.64
298.644
298.656
298.66
298.674
298.677
298.695
298.698
298.719
298.721
298.745
298.745
298.774
298.772
298.799
298.713
298.714
298.715
298.718
298.72
298.724
298.726
298.733
298.736
298.745
298.749
298.76
298.763
298.778
298.781
298.798
298.801
298.821
298.823
298.846
298.847
298.874
298.872
298.907
298.816
298.817
298.817
298.82
298.822
298.827
298.829
298.836
298.839
298.848
298.851
298.863
298.866
298.881
298.884
298.902
298.904
298.925
298.926
298.95
298.95
298.978
298.975
299.002
298.911
298.911
298.912
298.915
298.917
298.921
298.923
298.93
298.933
298.942
298.945
298.956
298.959
298.973
298.976
298.993
298.995
299.015
299.017
299.04
299.04
299.067
299.065
299.097
299.002
299.002
299.003
299.006
299.007
299.012
299.014
299.021
299.024
299.033
299.036
299.048
299.05
299.065
299.067
299.084
299.087
299.107
299.108
299.131
299.131
299.158
299.156
299.183
299.086
299.086
299.087
299.09
299.091
299.096
299.098
299.105
299.107
299.116
299.119
299.13
299.133
299.147
299.15
299.166
299.168
299.188
299.189
299.212
299.212
299.238
299.236
299.266
299.166
299.166
299.167
299.17
299.171
299.176
299.178
299.184
299.187
299.196
299.199
299.21
299.213
299.227
299.229
299.246
299.248
299.268
299.269
299.292
299.292
299.317
299.315
299.342
299.241
299.241
299.242
299.245
299.246
299.251
299.253
299.259
299.262
299.27
299.273
299.284
299.287
299.3
299.303
299.319
299.321
299.339
299.341
299.363
299.363
299.388
299.387
299.414
299.31
299.31
299.312
299.314
299.316
299.32
299.322
299.328
299.331
299.339
299.342
299.353
299.356
299.369
299.372
299.388
299.39