/*--------------------------------*- C++ -*----------------------------------*\
  =========                 |
  \\      /  F ield         | OpenFOAM: The Open Source CFD Toolbox
   \\    /   O peration     | Website:  https://openfoam.org
    \\  /    A nd           | Version:  10
     \\/     M anipulation  |
\*---------------------------------------------------------------------------*/
FoamFile
{
    format      ascii;
    class       volVectorField;
    location    "0.13";
    object      U;
}
// * * * * * * * * * * * * * * * * * * * * * * * * * * * * * * * * * * * * * //

dimensions      [0 1 -1 0 0 0 0];

internalField   nonuniform List<vector> 
4176
(
(497.415 -0.0150971 -2.03922e-09)
(497.402 0.0651026 6.21456e-10)
(497.371 -0.000487295 -1.31444e-10)
(497.332 0.0922118 1.53221e-11)
(497.266 0.0486156 8.3447e-11)
(497.204 0.0916417 -7.64614e-11)
(497.101 0.123062 -1.9541e-10)
(497.018 0.062822 -8.11363e-11)
(496.877 0.222058 4.18364e-11)
(496.775 0.00739259 9.15264e-11)
(496.597 0.34084 2.10055e-11)
(496.474 -0.0662279 1.015e-10)
(496.263 0.465941 1.60265e-10)
(496.116 -0.136238 3.77619e-11)
(495.88 0.563568 -6.57477e-11)
(495.696 -0.13185 -4.12915e-11)
(495.46 0.523913 -1.03874e-10)
(495.209 0.0276219 -1.01612e-10)
(494.996 0.330079 1.11508e-10)
(494.652 0.327143 1.37158e-10)
(494.498 -0.0213857 -1.55513e-11)
(494.019 0.775853 -7.99392e-11)
(493.989 -0.521054 6.04922e-12)
(493.364 1.44679 3.80077e-11)
(497.396 0.00398229 -2.03899e-09)
(497.383 0.115896 6.21947e-10)
(497.352 0.0745703 -1.31885e-10)
(497.311 0.20508 1.46755e-11)
(497.244 0.183874 8.37758e-11)
(497.179 0.266318 -7.6268e-11)
(497.076 0.318968 -1.96588e-10)
(496.989 0.297887 -8.13879e-11)
(496.847 0.479027 4.23238e-11)
(496.74 0.300496 9.17821e-11)
(496.56 0.659321 2.06544e-11)
(496.433 0.281541 1.01821e-10)
(496.218 0.846392 1.59119e-10)
(496.066 0.261525 3.79935e-11)
(495.825 1.00818 -6.56034e-11)
(495.637 0.305788 -4.09518e-11)
(495.393 1.03755 -1.05315e-10)
(495.138 0.514729 -1.0188e-10)
(494.919 0.90965 1.1065e-10)
(494.568 0.859194 1.36906e-10)
(494.413 0.623837 -1.55526e-11)
(493.914 1.33503 -8.23222e-11)
(493.878 0.120472 6.80465e-12)
(493.19 1.99675 3.755e-11)
(497.342 0.0223289 -2.04322e-09)
(497.329 0.162552 6.21086e-10)
(497.299 0.145732 -1.33634e-10)
(497.258 0.309411 1.57464e-11)
(497.195 0.311453 8.39508e-11)
(497.13 0.428489 -7.69744e-11)
(497.031 0.503062 -1.94543e-10)
(496.944 0.517097 -8.00872e-11)
(496.807 0.719716 4.40177e-11)
(496.701 0.575119 9.20919e-11)
(496.527 0.957075 1.97658e-11)
(496.401 0.608919 1.01462e-10)
(496.191 1.20222 1.613e-10)
(496.043 0.637107 3.83754e-11)
(495.804 1.42436 -6.58482e-11)
(495.624 0.717452 -3.99189e-11)
(495.381 1.51796 -1.08418e-10)
(495.135 0.969918 -1.03792e-10)
(494.919 1.45245 1.11437e-10)
(494.578 1.34774 1.3676e-10)
(494.431 1.24297 -1.64621e-11)
(493.941 1.88622 -7.98026e-11)
(493.906 0.833958 6.97961e-12)
(493.195 2.61278 3.83873e-11)
(497.24 0.0410589 -2.04355e-09)
(497.227 0.210052 6.24588e-10)
(497.196 0.218212 -1.34571e-10)
(497.156 0.415714 1.88732e-11)
(497.092 0.441396 8.35416e-11)
(497.027 0.59382 -8.13364e-11)
(496.928 0.690586 -1.95073e-10)
(496.841 0.740694 -8.31712e-11)
(496.704 0.964892 3.69986e-11)
(496.599 0.855382 9.55667e-11)
(496.423 1.26036 2.07712e-11)
(496.299 0.943204 1.00194e-10)
(496.086 1.56482 1.63397e-10)
(495.941 1.02121 3.71307e-11)
(495.699 1.84917 -7.29445e-11)
(495.521 1.13881 -4.13442e-11)
(495.274 2.01227 -1.06384e-10)
(495.024 1.43024 -1.04448e-10)
(494.818 2.00436 1.13815e-10)
(494.467 1.84443 1.36413e-10)
(494.325 1.8535 -1.92117e-11)
(493.841 2.42406 -8.07605e-11)
(493.812 1.5208 5.08522e-12)
(493.131 3.20944 2.87636e-11)
(497.09 0.0593863 -2.04559e-09)
(497.077 0.256573 6.30719e-10)
(497.047 0.289116 -1.30428e-10)
(497.007 0.519888 1.89462e-11)
(496.944 0.568506 8.71544e-11)
(496.88 0.755967 -7.58709e-11)
(496.782 0.874026 -1.97585e-10)
(496.696 0.960212 -8.1567e-11)
(496.561 1.20473 4.21616e-11)
(496.456 1.13083 9.34605e-11)
(496.282 1.55711 2.09938e-11)
(496.16 1.27196 1.03471e-10)
(495.948 1.92006 1.6051e-10)
(495.807 1.3989 3.64152e-11)
(495.564 2.26687 -7.09984e-11)
(495.391 1.55337 -4.40757e-11)
(495.14 2.50755 -1.07818e-10)
(494.896 1.87343 -1.03923e-10)
(494.693 2.54931 1.08482e-10)
(494.339 2.34225 1.42425e-10)
(494.199 2.44793 -1.14602e-11)
(493.721 2.94982 -7.7967e-11)
(493.691 2.16332 8.57797e-12)
(493.03 3.76727 3.94712e-11)
(496.891 0.0777062 -2.05757e-09)
(496.878 0.302797 6.28161e-10)
(496.848 0.359867 -1.2882e-10)
(496.808 0.623474 1.43441e-11)
(496.746 0.695313 7.64003e-11)
(496.682 0.917256 -8.09755e-11)
(496.585 1.05703 -1.95687e-10)
(496.499 1.17868 -8.60287e-11)
(496.366 1.44399 4.24023e-11)
(496.261 1.40518 9.87986e-11)
(496.089 1.85297 2.12752e-11)
(495.967 1.59986 9.80733e-11)
(495.758 2.27366 1.58349e-10)
(495.617 1.77648 3.91132e-11)
(495.375 2.68125 -7.39827e-11)
(495.205 1.97222 -4.16443e-11)
(494.949 2.99818 -9.7646e-11)
(494.718 2.31622 -1.01327e-10)
(494.502 3.09868 1.18385e-10)
(494.159 2.83906 1.44792e-10)
(494.014 3.04407 -1.56719e-11)
(493.541 3.4777 -8.88809e-11)
(493.505 2.81016 5.25692e-12)
(492.842 4.32414 3.96156e-11)
(496.644 0.0958496 -2.05497e-09)
(496.631 0.348357 6.24912e-10)
(496.601 0.42983 -1.44577e-10)
(496.562 0.725623 1.44677e-11)
(496.5 0.820666 9.14226e-11)
(496.436 1.07633 -8.00171e-11)
(496.341 1.23794 -2.07579e-10)
(496.256 1.39421 -8.20549e-11)
(496.124 1.6805 4.85674e-11)
(496.02 1.67605 9.39314e-11)
(495.85 2.14539 1.83936e-11)
(495.729 1.92399 1.09416e-10)
(495.521 2.62288 1.74638e-10)
(495.382 2.15043 4.13297e-11)
(495.141 3.08954 -6.94408e-11)
(494.976 2.38945 -3.84959e-11)
(494.718 3.47778 -1.07429e-10)
(494.497 2.76081 -1.07284e-10)
(494.27 3.64603 1.12944e-10)
(493.942 3.32404 1.42562e-10)
(493.791 3.639 -1.70433e-11)
(493.324 4.00507 -8.91235e-11)
(493.284 3.46676 7.47991e-12)
(492.623 4.88635 4.45544e-11)
(496.348 0.113856 -2.06907e-09)
(496.335 0.393451 6.3457e-10)
(496.306 0.499171 -1.24084e-10)
(496.266 0.826752 1.79829e-11)
(496.206 0.944852 7.90094e-11)
(496.142 1.23381 -7.69647e-11)
(496.048 1.4171 -1.91622e-10)
(495.963 1.60759 -8.39028e-11)
(495.833 1.91469 3.002e-11)
(495.73 1.9443 9.14009e-11)
(495.562 2.43488 2.91606e-11)
(495.442 2.24523 1.04013e-10)
(495.236 2.96849 1.49624e-10)
(495.099 2.52141 3.29986e-11)
(494.859 3.49332 -6.2318e-11)
(494.697 2.80418 -4.6725e-11)
(494.438 3.94999 -1.04132e-10)
(494.226 3.20301 -9.10242e-11)
(493.993 4.18872 1.16819e-10)
(493.676 3.80457 1.28091e-10)
(493.519 4.23204 -1.71807e-11)
(493.06 4.52763 -7.313e-11)
(493.016 4.11808 4.84355e-12)
(492.363 5.44131 2.12127e-11)
(496.003 0.131682 -2.07898e-09)
(495.99 0.43799 6.20241e-10)
(495.962 0.56773 -1.45738e-10)
(495.923 0.926655 5.7805e-12)
(495.863 1.06758 7.93042e-11)
(495.8 1.38935 -8.51483e-11)
(495.707 1.59408 -2.07419e-10)
(495.623 1.81832 -8.76665e-11)
(495.494 2.14595 3.61857e-11)
(495.392 2.20927 8.82325e-11)
(495.226 2.7207 1.72657e-11)
(495.108 2.5627 1.02813e-10)
(494.903 3.30964 1.58532e-10)
(494.768 2.88839 3.46211e-11)
(494.53 3.89168 -6.89127e-11)
(494.372 3.21508 -4.37684e-11)
(494.112 4.41372 -1.08737e-10)
(493.909 3.64227 -1.02429e-10)
(493.67 4.72459 1.1339e-10)
(493.365 4.27843 1.35209e-10)
(493.202 4.82255 -1.90843e-11)
(492.752 5.04547 -8.4347e-11)
(492.705 4.76498 6.47243e-12)
(492.06 5.98961 3.7449e-11)
(495.61 0.149324 -2.06061e-09)
(495.598 0.481983 6.48472e-10)
(495.569 0.635504 -1.268e-10)
(495.53 1.02535 2.89787e-11)
(495.471 1.18885 9.82291e-11)
(495.409 1.54299 -6.79165e-11)
(495.317 1.76889 -1.90992e-10)
(495.234 2.02643 -7.09002e-11)
(495.107 2.37426 5.41647e-11)
(495.006 2.47092 1.04863e-10)
(494.841 3.00275 3.5513e-11)
(494.725 2.87628 1.18951e-10)
(494.523 3.64619 1.77567e-10)
(494.39 3.25114 4.76611e-11)
(494.153 4.2845 -5.51337e-11)
(493.999 3.62186 -3.31613e-11)
(493.74 4.86931 -9.52437e-11)
(493.544 4.0778 -9.18216e-11)
(493.3 5.25294 1.27247e-10)
(493.007 4.74605 1.47033e-10)
(492.839 5.40845 -6.89437e-12)
(492.399 5.55667 -7.23056e-11)
(492.348 5.40564 1.57887e-11)
(491.713 6.52957 4.64766e-11)
(495.169 0.166756 -2.07841e-09)
(495.156 0.525377 6.36271e-10)
(495.128 0.702396 -1.36217e-10)
(495.09 1.12273 2.14691e-11)
(495.031 1.30851 9.16782e-11)
(494.97 1.69457 -7.57732e-11)
(494.879 1.94132 -1.96558e-10)
(494.797 2.23171 -7.32643e-11)
(494.671 2.59936 5.20317e-11)
(494.572 2.72895 1.03052e-10)
(494.409 3.28069 3.57016e-11)
(494.295 3.18553 1.21707e-10)
(494.094 3.97771 1.80705e-10)
(493.965 3.60908 4.97552e-11)
(493.729 4.67129 -5.0324e-11)
(493.579 4.02378 -2.72317e-11)
(493.32 5.31665 -8.80575e-11)
(493.131 4.50902 -8.59651e-11)
(492.885 5.77296 1.37659e-10)
(492.603 5.20698 1.58025e-10)
(492.429 5.98798 -1.84885e-11)
(492.002 6.0601 -1.06339e-10)
(491.946 6.03971 -1.35206e-11)
(491.322 7.06074 1.51947e-11)
(494.679 0.183956 -2.08343e-09)
(494.666 0.568126 6.38103e-10)
(494.639 0.768327 -1.39265e-10)
(494.6 1.21869 1.59975e-11)
(494.543 1.42644 8.69941e-11)
(494.482 1.84397 -8.15619e-11)
(494.392 2.11122 -2.05105e-10)
(494.311 2.43403 -8.378e-11)
(494.187 2.82109 4.17807e-11)
(494.089 2.98321 9.34817e-11)
(493.928 3.55432 2.50822e-11)
(493.816 3.49022 1.12697e-10)
(493.618 4.30388 1.70245e-10)
(493.491 3.96178 4.0416e-11)
(493.258 5.05169 -6.46901e-11)
(493.112 4.42025 -4.10029e-11)
(492.854 5.75577 -1.05436e-10)
(492.672 4.93556 -9.97009e-11)
(492.422 6.28401 1.19171e-10)
(492.152 5.66138 1.39779e-10)
(491.973 6.55915 -1.3476e-11)
(491.558 6.55399 -7.71205e-11)
(491.499 6.66677 1.23082e-11)
(490.886 7.58257 4.15624e-11)
(494.14 0.200895 -2.08873e-09)
(494.127 0.610173 6.36683e-10)
(494.1 0.833199 -1.45274e-10)
(494.062 1.31312 1.00297e-11)
(494.005 1.54247 7.91095e-11)
(493.945 1.991 -9.37125e-11)
(493.857 2.2784 -2.20057e-10)
(493.777 2.63317 -1.00935e-10)
(493.655 3.03922 2.46272e-11)
(493.559 3.23346 7.46421e-11)
(493.4 3.82339 -1.26077e-12)
(493.29 3.79004 8.67766e-11)
(493.094 4.6244 1.37871e-10)
(492.97 4.30883 3.5219e-11)
(492.739 5.42524 -4.06447e-11)
(492.597 4.81057 -2.36872e-11)
(492.34 6.18655 -8.75768e-11)
(492.165 5.35707 -8.76737e-11)
(491.913 6.78544 1.31647e-10)
(491.655 6.10793 1.5034e-10)
(491.471 7.12161 -5.2447e-12)
(491.069 7.03804 -7.20368e-11)
(491.007 7.28509 1.75681e-11)
(490.406 8.09449 4.45948e-11)
(493.552 0.217548 -2.08731e-09)
(493.539 0.651463 6.60018e-10)
(493.513 0.896917 -1.46262e-10)
(493.475 1.40587 -9.33398e-12)
(493.419 1.65645 7.65447e-11)
(493.36 2.13548 -8.46726e-11)
(493.273 2.44263 -1.99509e-10)
(493.195 2.82889 -6.40038e-11)
(493.074 3.25349 4.37885e-11)
(492.98 3.47945 7.50804e-11)
(492.823 4.08763 1.16534e-11)
(492.715 4.08471 1.1045e-10)
(492.521 4.93898 1.80593e-10)
(492.401 4.64987 5.47877e-11)
(492.172 5.79158 -7.35779e-11)
(492.035 5.19424 -6.46608e-11)
(491.78 6.60858 -1.24163e-10)
(491.611 5.77295 -1.06676e-10)
(491.358 7.27676 1.25847e-10)
(491.111 6.54625 1.56263e-10)
(490.923 7.67469 -1.74999e-11)
(490.534 7.51117 -1.00983e-10)
(490.469 7.89334 6.53209e-13)
(489.88 8.59597 4.17559e-11)
(492.915 0.233893 -2.10851e-09)
(492.902 0.691948 6.20301e-10)
(492.876 0.959393 -1.37518e-10)
(492.839 1.49685 4.73141e-11)
(492.784 1.76819 1.02618e-10)
(492.726 2.27721 -8.17281e-11)
(492.641 2.60366 -2.2006e-10)
(492.564 3.02093 -1.10364e-10)
(492.445 3.46362 4.09199e-11)
(492.352 3.72085 1.17163e-10)
(492.198 4.34673 3.23337e-11)
(492.092 4.37393 1.04886e-10)
(491.901 5.24733 1.46702e-10)
(491.784 4.98456 3.36128e-11)
(491.558 6.15038 -4.92955e-11)
(491.425 5.57079 -3.55251e-11)
(491.172 7.02142 -1.14155e-10)
(491.01 6.18247 -1.1841e-10)
(490.755 7.75737 8.51472e-11)
(490.52 6.976 1.27368e-10)
(490.328 8.21801 -4.45004e-12)
(489.952 7.97256 -7.67889e-11)
(489.885 8.49029 7.35357e-13)
(489.31 9.08647 1.63264e-11)
(492.228 0.249909 -2.09836e-09)
(492.216 0.73158 6.71144e-10)
(492.19 1.02055 -1.44598e-10)
(492.154 1.58592 -1.25307e-11)
(492.1 1.87755 7.54896e-11)
(492.043 2.41599 -8.22183e-11)
(491.959 2.76124 -1.92672e-10)
(491.884 3.209 -5.73952e-11)
(491.767 3.66926 4.49423e-11)
(491.676 3.95732 7.63738e-11)
(491.524 4.60033 1.8023e-11)
(491.421 4.6573 1.1896e-10)
(491.233 5.54909 1.91598e-10)
(491.119 5.31253 3.04903e-11)
(490.895 6.50132 -1.05525e-10)
(490.767 5.93977 -6.09064e-11)
(490.516 7.4247 -1.14708e-10)
(490.361 6.58483 -9.38569e-11)
(490.106 8.22651 1.41025e-10)
(489.883 7.39695 1.34107e-10)
(489.687 8.75088 -4.32916e-11)
(489.325 8.42186 -9.00824e-11)
(489.255 9.07533 1.40295e-11)
(488.694 9.56531 5.37888e-11)
(491.493 0.265573 -2.11802e-09)
(491.48 0.770315 6.35099e-10)
(491.455 1.0803 -1.62902e-10)
(491.42 1.67298 -1.64288e-11)
(491.367 1.98437 8.65526e-11)
(491.311 2.55161 -5.56907e-11)
(491.228 2.91512 -1.89638e-10)
(491.154 3.39279 -7.62603e-11)
(491.04 3.87006 4.17217e-11)
(490.951 4.18845 8.78103e-11)
(490.802 4.848 6.76144e-12)
(490.702 4.93439 8.76385e-11)
(490.517 5.84384 1.72719e-10)
(490.406 5.63335 6.15125e-11)
(490.186 6.84405 -5.47838e-11)
(490.062 6.3008 -3.7518e-11)
(489.814 7.81816 -1.11307e-10)
(489.665 6.97917 -1.10644e-10)
(489.411 8.68336 9.88369e-11)
(489.199 7.80874 1.11172e-10)
(489 9.27181 -5.47892e-11)
(488.653 8.85973 -8.69259e-11)
(488.578 9.6489 3.18751e-11)
(488.032 10.0312 5.04375e-11)
(490.707 0.28086 -2.11546e-09)
(490.695 0.808098 6.60854e-10)
(490.67 1.13856 -1.29392e-10)
(490.635 1.7579 3.81521e-11)
(490.583 2.08848 1.10302e-10)
(490.529 2.68388 -6.02357e-11)
(490.448 3.06505 -1.82596e-10)
(490.376 3.57201 -5.24656e-11)
(490.264 4.06569 8.22595e-11)
(490.178 4.41386 9.99202e-11)
(490.031 5.08932 -9.31941e-12)
(489.934 5.20471 8.44636e-11)
(489.752 6.13111 1.40489e-10)
(489.645 5.94654 1.01098e-11)
(489.428 7.17814 -9.67426e-11)
(489.309 6.65347 -6.27693e-11)
(489.064 8.20156 -1.28566e-10)
(488.922 7.36475 -1.14468e-10)
(488.669 9.12725 1.11937e-10)
(488.468 8.21109 1.39824e-10)
(488.266 9.78037 -1.11622e-11)
(487.934 9.28574 -7.26788e-11)
(487.854 10.2102 2.07116e-11)
(487.325 10.4836 5.44208e-11)
(489.871 0.295743 -2.12752e-09)
(489.859 0.844867 6.48837e-10)
(489.835 1.19523 -1.50175e-10)
(489.801 1.84055 1.17878e-11)
(489.75 2.18971 7.80687e-11)
(489.697 2.81259 -1.0364e-10)
(489.618 3.21078 -2.2921e-10)
(489.548 3.74638 -1.02932e-10)
(489.438 4.25579 2.37306e-11)
(489.355 4.63316 7.58091e-11)
(489.211 5.32383 3.61879e-12)
(489.117 5.46778 8.91577e-11)
(488.939 6.41038 1.36891e-10)
(488.836 6.25151 2.26557e-12)
(488.622 7.50307 -1.14691e-10)
(488.509 6.9972 -8.57066e-11)
(488.266 8.57444 -1.16168e-10)
(488.131 7.74106 -7.39397e-11)
(487.879 9.55773 1.51838e-10)
(487.69 8.60359 1.66388e-10)
(487.485 10.276 9.74651e-12)
(487.168 9.69956 -6.15235e-11)
(487.084 10.7586 2.88564e-11)
(486.571 10.9222 5.8557e-11)
(488.986 0.310187 -2.1491e-09)
(488.974 0.880543 6.61605e-10)
(488.95 1.25018 -1.2136e-10)
(488.917 1.92076 1.66279e-11)
(488.867 2.28785 1.04315e-10)
(488.815 2.93751 -5.45296e-11)
(488.738 3.35206 -2.08353e-10)
(488.67 3.9156 -1.0749e-10)
(488.563 4.44005 4.17094e-11)
(488.482 4.84598 1.15142e-10)
(488.342 5.55113 1.72727e-11)
(488.252 5.72313 1.19342e-10)
(488.077 6.68112 1.87528e-10)
(487.978 6.5477 2.2634e-11)
(487.768 7.81824 -6.9543e-11)
(487.66 7.33137 -2.60797e-11)
(487.421 8.93628 -1.21399e-10)
(487.293 8.10753 -1.36771e-10)
(487.043 9.97441 1.02316e-10)
(486.864 8.98582 1.39678e-10)
(486.657 10.7583 -4.34743e-11)
(486.355 10.1009 -8.96915e-11)
(486.268 11.2935 1.63949e-11)
(485.771 11.3464 2.18372e-11)
(488.049 0.324153 -2.13508e-09)
(488.038 0.915039 6.74917e-10)
(488.015 1.30328 -1.22091e-10)
(487.982 1.99835 5.10841e-11)
(487.934 2.38269 1.22827e-10)
(487.884 3.05839 -9.27903e-11)
(487.809 3.48858 -2.55116e-10)
(487.743 4.07938 -1.1692e-10)
(487.638 4.61813 2.35363e-11)
(487.56 5.05197 8.41937e-11)
(487.424 5.77082 1.74767e-11)
(487.337 5.97031 1.15657e-10)
(487.165 6.94287 1.78986e-10)
(487.071 6.83455 4.83623e-11)
(486.865 8.12309 -5.1002e-11)
(486.763 7.65531 -2.20879e-11)
(486.527 9.28648 -8.36468e-11)
(486.407 8.46348 -1.12617e-10)
(486.159 10.3769 7.42759e-11)
(485.992 9.35739 1.07571e-10)
(485.782 11.2265 -4.36943e-11)
(485.496 10.4894 -1.02498e-10)
(485.404 11.8144 -1.01104e-11)
(484.926 11.7558 3.0572e-11)
(487.062 0.3376 -2.16065e-09)
(487.051 0.948262 6.2926e-10)
(487.028 1.35437 -1.45996e-10)
(486.997 2.07313 5.14014e-11)
(486.95 2.47397 9.99021e-11)
(486.902 3.17494 -9.33435e-11)
(486.829 3.62007 -2.32427e-10)
(486.765 4.2374 -7.37344e-11)
(486.664 4.78971 8.67418e-11)
(486.589 5.25079 1.22543e-10)
(486.456 5.98253 3.2341e-11)
(486.372 6.20893 1.02666e-10)
(486.205 7.19516 1.3554e-10)
(486.116 7.11153 2.58823e-11)
(485.914 8.41704 -5.63463e-11)
(485.817 7.96837 -4.41563e-11)
(485.586 9.6244 -1.29121e-10)
(485.472 8.80809 -1.34563e-10)
(485.227 10.7649 1.19545e-10)
(485.071 9.71796 1.63428e-10)
(484.86 11.6797 -9.8916e-12)
(484.59 10.8646 -9.42031e-11)
(484.494 12.3208 -2.3993e-11)
(484.034 12.1501 3.52181e-11)
(486.025 0.350491 -2.17101e-09)
(486.013 0.980127 6.32277e-10)
(485.992 1.40331 -1.46866e-10)
(485.961 2.14489 5.701e-11)
(485.916 2.56147 1.10385e-10)
(485.869 3.2869 -8.84941e-11)
(485.799 3.74619 -2.33491e-10)
(485.738 4.38933 -1.24088e-10)
(485.639 4.95442 3.72119e-11)
(485.567 5.44208 1.28141e-10)
(485.438 6.1859 4.27476e-11)
(485.358 6.43861 1.13059e-10)
(485.195 7.4376 1.46607e-10)
(485.111 7.37822 3.51399e-11)
(484.913 8.69962 -4.63302e-11)
(484.822 8.26993 -3.97685e-11)
(484.596 9.94941 -1.24567e-10)
(484.49 9.14051 -1.26042e-10)
(484.248 11.138 1.30382e-10)
(484.103 10.0671 1.72943e-10)
(483.891 12.117 1.46744e-13)
(483.637 11.226 -8.56026e-11)
(483.537 12.8121 -9.32907e-12)
(483.095 12.5288 7.93223e-12)
(484.936 0.362794 -2.18639e-09)
(484.925 1.01056 6.75571e-10)
(484.904 1.45 -1.22434e-10)
(484.874 2.21348 1.34546e-11)
(484.831 2.64497 5.5169e-11)
(484.786 3.39401 -1.05089e-10)
(484.718 3.86665 -2.08896e-10)
(484.659 4.53482 -1.08656e-10)
(484.564 5.11189 4.27133e-11)
(484.495 5.62545 1.18717e-10)
(484.37 6.38053 1.68952e-11)
(484.295 6.65896 1.28815e-10)
(484.136 7.66979 2.05766e-10)
(484.056 7.63419 3.02491e-11)
(483.864 8.97039 -1.15997e-10)
(483.779 8.55951 -6.38186e-11)
(483.557 10.261 -1.09075e-10)
(483.459 9.46003 -1.21812e-10)
(483.221 11.4958 1.2556e-10)
(483.086 10.4042 1.59772e-10)
(482.874 12.5374 -2.62381e-11)
(482.637 11.5729 -7.19574e-11)
(482.533 13.2872 4.15789e-11)
(482.11 12.8913 4.13535e-11)
(483.796 0.374488 -2.16349e-09)
(483.785 1.03951 7.02367e-10)
(483.765 1.49433 -1.07758e-10)
(483.737 2.27877 2.47922e-11)
(483.695 2.72429 6.08691e-11)
(483.652 3.49604 -1.05907e-10)
(483.586 3.98118 -2.15238e-10)
(483.53 4.67356 -6.56637e-11)
(483.438 5.26178 8.08817e-11)
(483.373 5.80054 9.85475e-11)
(483.252 6.56602 -1.0051e-11)
(483.181 6.86959 9.86562e-11)
(483.026 7.89134 1.6846e-10)
(482.952 7.87906 4.02439e-11)
(482.764 9.22896 -5.58274e-11)
(482.686 8.83667 -1.46975e-11)
(482.468 10.5586 -1.20559e-10)
(482.378 9.76613 -1.41554e-10)
(482.145 11.8376 9.84518e-11)
(482.021 10.7287 1.31808e-10)
(481.809 12.9404 -1.00666e-11)
(481.588 11.9043 -6.25713e-11)
(481.482 13.7448 4.71102e-11)
(481.079 13.2369 4.15102e-11)
(482.605 0.385556 -2.16651e-09)
(482.594 1.06695 6.74818e-10)
(482.575 1.53625 -1.67804e-10)
(482.548 2.34066 3.67205e-11)
(482.508 2.79929 8.82789e-11)
(482.466 3.59281 -1.12279e-10)
(482.404 4.08952 -1.99881e-10)
(482.351 4.80526 -8.80058e-11)
(482.262 5.40373 2.0526e-11)
(482.201 5.96695 1.157e-10)
(482.083 6.74196 2.93108e-11)
(482.017 7.07007 9.94891e-11)
(481.867 8.10182 1.91934e-10)
(481.798 8.11241 2.98429e-11)
(481.615 9.47493 -1.07655e-10)
(481.543 9.10102 -4.54502e-11)
(481.331 10.842 -1.32361e-10)
(481.249 10.0583 -1.3206e-10)
(481.02 12.1631 1.27834e-10)
(480.907 11.0397 1.27432e-10)
(480.696 13.3253 -4.99434e-11)
(480.491 12.2195 -8.26551e-11)
(480.383 14.1836 -1.27199e-11)
(479.999 13.5651 6.40584e-12)
(481.363 0.395989 -2.23344e-09)
(481.352 1.09283 6.52728e-10)
(481.334 1.57571 -1.68833e-10)
(481.308 2.39908 7.17963e-12)
(481.269 2.86988 8.90454e-11)
(481.23 3.68418 -8.97465e-11)
(481.17 4.19152 -2.12186e-10)
(481.12 4.9297 -7.0817e-11)
(481.035 5.53746 6.66551e-11)
(480.977 6.12435 1.2777e-10)
(480.864 6.90794 6.42864e-11)
(480.802 7.25998 1.05898e-10)
(480.657 8.30078 1.63827e-10)
(480.594 8.33382 2.42611e-11)
(480.417 9.70789 -8.50051e-11)
(480.351 9.35216 -5.08963e-11)
(480.144 11.1108 -1.15405e-10)
(480.07 10.3361 -9.63894e-11)
(479.846 12.4719 1.40396e-10)
(479.743 11.3367 1.58385e-10)
(479.534 13.6913 -5.02725e-11)
(479.346 12.5182 -1.08395e-10)
(479.235 14.6032 -1.23833e-11)
(478.872 13.8758 2.2194e-11)
(480.069 0.405775 -2.20112e-09)
(480.059 1.11715 7.08596e-10)
(480.041 1.61267 -1.12829e-10)
(480.016 2.45399 1.9749e-11)
(479.98 2.93599 5.51917e-11)
(479.942 3.77006 -1.2058e-10)
(479.885 4.28703 -2.30558e-10)
(479.838 5.0467 -7.70083e-11)
(479.757 5.66275 6.71226e-11)
(479.703 6.27245 1.40189e-10)
(479.594 7.06363 2.9319e-11)
(479.537 7.43891 8.39187e-11)
(479.397 8.48778 1.52797e-10)
(479.34 8.54282 1.86367e-11)
(479.168 9.92739 -7.96858e-11)
(479.109 9.58964 -3.48379e-11)
(478.908 11.3646 -8.59924e-11)
(478.842 10.5992 -5.95776e-11)
(478.623 12.7638 1.29412e-10)
(478.53 11.6187 1.06747e-10)
(478.324 14.0372 -3.84311e-11)
(478.153 12.8007 -8.77431e-11)
(478.038 15.0046 2.28609e-11)
(477.696 14.1693 7.02825e-11)
(478.724 0.414901 -2.19707e-09)
(478.714 1.13987 6.79264e-10)
(478.697 1.64709 -1.89392e-10)
(478.673 2.50531 1.3477e-11)
(478.639 2.99754 1.26258e-10)
(478.604 3.85037 -8.4153e-11)
(478.549 4.37595 -2.43641e-10)
(478.505 5.15613 -7.71625e-11)
(478.427 5.77942 3.17417e-11)
(478.377 6.41106 6.36425e-11)
(478.273 7.20876 2.96211e-11)
(478.221 7.60655 1.5471e-10)
(478.086 8.66242 1.78377e-10)
(478.035 8.73896 7.12387e-12)
(477.868 10.133 -7.41469e-11)
(477.817 9.81299 -1.26628e-11)
(477.621 11.603 -1.1124e-10)
(477.563 10.8471 -1.25417e-10)
(477.349 13.0384 1.43009e-10)
(477.268 11.885 1.34079e-10)
(477.064 14.3621 -5.73295e-11)
(476.91 13.0668 -9.34443e-11)
(476.793 15.3864 3.50026e-11)
(476.471 14.444 4.33555e-11)
(477.328 0.423352 -2.26634e-09)
(477.318 1.16096 6.55453e-10)
(477.302 1.67892 -1.78282e-10)
(477.279 2.55297 7.34296e-13)
(477.246 3.05446 7.87263e-11)
(477.213 3.92501 -1.09982e-10)
(477.161 4.4582 -2.32827e-10)
(477.12 5.25792 -8.97894e-11)
(477.046 5.88738 4.46481e-11)
(477 6.54004 1.00813e-10)
(476.901 7.34314 3.61072e-11)
(476.854 7.76267 1.37787e-10)
(476.724 8.82438 1.92123e-10)
(476.679 8.92186 4.20811e-11)
(476.518 10.3241 -6.82888e-11)
(476.474 10.0217 -3.56412e-11)
(476.284 11.8254 -1.05254e-10)
(476.235 11.0793 -9.21125e-11)
(476.026 13.2954 1.50527e-10)
(475.955 12.1351 1.67797e-10)
(475.755 14.6654 1.21616e-11)
(475.618 13.3151 -1.1582e-10)
(475.499 15.7488 -2.68965e-11)
(475.198 14.7012 1.56528e-11)
(475.879 0.431111 -2.20076e-09)
(475.87 1.18038 7.22329e-10)
(475.855 1.7081 -1.37052e-10)
(475.833 2.59692 4.0673e-11)
(475.803 3.10666 1.10041e-10)
(475.771 3.9939 -8.48012e-11)
(475.723 4.53368 -2.15378e-10)
(475.684 5.35197 -7.7249e-11)
(475.614 5.98655 5.16027e-11)
(475.572 6.65933 1.0156e-10)
(475.477 7.46668 3.00708e-11)
(475.435 7.90714 1.20352e-10)
(475.311 8.97347 1.67658e-10)
(475.272 9.09126 1.80022e-11)
(475.117 10.5005 -1.0752e-10)
(475.08 10.2153 -8.27748e-11)
(474.896 12.0314 -1.58039e-10)
(474.856 11.2954 -8.09156e-11)
(474.653 13.5345 1.51984e-10)
(474.593 12.3687 1.57434e-10)
(474.397 14.9467 -5.67124e-13)
(474.276 13.546 -7.7047e-11)
(474.155 16.0899 1.1303e-11)
(473.876 14.9389 4.42656e-11)
(474.38 0.438162 -2.22759e-09)
(474.37 1.19809 6.97709e-10)
(474.356 1.73458 -1.75363e-10)
(474.336 2.63707 4.05994e-11)
(474.307 3.15405 9.82728e-11)
(474.278 4.05695 -1.12002e-10)
(474.232 4.60231 -2.03912e-10)
(474.197 5.43819 -8.37908e-11)
(474.131 6.07683 3.28999e-11)
(474.093 6.76886 1.27838e-10)
(474.002 7.57931 3.68568e-11)
(473.965 8.03991 1.14985e-10)
(473.846 9.10956 2.07733e-10)
(473.813 9.24701 3.6374e-11)
(473.664 10.6618 -1.01768e-10)
(473.635 10.3935 -3.51405e-11)
(473.457 12.2205 -1.25765e-10)
(473.426 11.4946 -1.28103e-10)
(473.229 13.7549 1.53169e-10)
(473.18 12.5851 1.46567e-10)
(472.988 15.2063 -4.04993e-11)
(472.883 13.76 -6.57946e-11)
(472.76 16.4082 1.18605e-11)
(472.505 15.1557 2.15765e-11)
(472.828 0.444499 -2.28684e-09)
(472.819 1.21408 7.01102e-10)
(472.806 1.75833 -1.38499e-10)
(472.787 2.67338 -4.11287e-14)
(472.76 3.19659 1.05245e-10)
(472.733 4.11409 -6.54712e-11)
(472.69 4.664 -2.4382e-10)
(472.658 5.5165 -7.73843e-11)
(472.595 6.15815 7.91013e-11)
(472.562 6.86855 8.97089e-11)
(472.475 7.68097 4.36623e-11)
(472.443 8.16096 1.66881e-10)
(472.33 9.23265 1.75789e-10)
(472.303 9.38911 4.25551e-11)
(472.16 10.808 -4.8751e-11)
(472.138 10.556 -6.58972e-11)
(471.967 12.3924 -1.19847e-10)
(471.944 11.6765 -8.06083e-11)
(471.754 13.9562 1.20385e-10)
(471.716 12.7833 1.53124e-10)
(471.529 15.4443 1.33673e-11)
(471.439 13.9572 -9.52961e-11)
(471.315 16.7034 1.87479e-11)
(471.082 15.3519 6.8895e-11)
(471.225 0.450121 -2.25931e-09)
(471.216 1.22835 7.42095e-10)
(471.204 1.77936 -1.07322e-10)
(471.186 2.70584 3.52342e-11)
(471.161 3.23426 6.71949e-11)
(471.136 4.16527 -1.0725e-10)
(471.096 4.71869 -2.12323e-10)
(471.067 5.58684 -5.06705e-11)
(471.008 6.23042 1.06359e-10)
(470.979 6.95833 1.23661e-10)
(470.897 7.77159 3.69709e-12)
(470.87 8.27024 1.22698e-10)
(470.762 9.34269 2.03896e-10)
(470.741 9.51758 6.80213e-11)
(470.604 10.939 -2.87991e-11)
(470.59 10.703 -4.76123e-11)
(470.425 12.5468 -1.69013e-10)
(470.411 11.8409 -1.23668e-10)
(470.228 14.1379 1.35301e-10)
(470.2 12.9626 1.66026e-10)
(470.019 15.6604 3.39825e-11)
(469.944 14.1377 -8.41453e-11)
(469.819 16.9749 -3.57297e-11)
(469.609 15.527 2.13553e-11)
(469.57 0.455034 -2.32882e-09)
(469.561 1.24091 6.71045e-10)
(469.55 1.79767 -1.92895e-10)
(469.533 2.73448 -1.38528e-11)
(469.51 3.26707 6.76823e-11)
(469.488 4.21052 -1.28896e-10)
(469.45 4.76639 -2.60177e-10)
(469.424 5.64916 -1.19194e-10)
(469.369 6.29359 1.96845e-11)
(469.344 7.03813 7.7326e-11)
(469.267 7.85108 3.92315e-12)
(469.245 8.36767 1.03859e-10)
(469.142 9.43963 1.57196e-10)
(469.128 9.6324 3.24501e-12)
(468.996 11.055 -1.19171e-10)
(468.989 10.8344 -8.60004e-11)
(468.831 12.684 -1.62947e-10)
(468.826 11.9876 -1.42688e-10)
(468.649 14.2998 9.44956e-11)
(468.633 13.1226 1.12008e-10)
(468.458 15.8539 -5.71463e-11)
(468.397 14.3009 -1.20924e-10)
(468.272 17.2222 -2.8698e-11)
(468.086 15.6806 9.55584e-12)
(467.863 0.459251 -2.27389e-09)
(467.855 1.2518 7.13637e-10)
(467.844 1.81333 -1.81183e-10)
(467.829 2.75935 5.08236e-11)
(467.807 3.29508 1.08346e-10)
(467.787 4.24987 -1.0864e-10)
(467.752 4.80713 -1.94013e-10)
(467.73 5.7035 -7.08193e-11)
(467.678 6.34765 4.74848e-11)
(467.657 7.10789 1.53107e-10)
(467.585 7.91935 5.94145e-11)
(467.568 8.45315 1.31634e-10)
(467.471 9.52333 2.3472e-10)
(467.462 9.73349 5.56482e-11)
(467.337 11.1557 -8.47472e-11)
(467.337 10.9504 -7.34541e-11)
(467.185 12.8039 -1.70937e-10)
(467.19 12.117 -1.05283e-10)
(467.018 14.442 1.1723e-10)
(467.013 13.2631 1.12802e-10)
(466.844 16.0244 -7.56908e-12)
(466.798 14.4456 -9.7011e-11)
(466.674 17.4442 -2.85823e-11)
(466.511 15.8126 5.30306e-11)
(466.104 0.462785 -2.27757e-09)
(466.096 1.26103 7.25572e-10)
(466.086 1.82637 -1.76003e-10)
(466.072 2.7805 5.85105e-11)
(466.052 3.31837 1.15774e-10)
(466.034 4.28342 -1.02477e-10)
(466.002 4.84099 -1.88356e-10)
(465.983 5.74991 -6.38221e-11)
(465.935 6.39265 5.48174e-11)
(465.918 7.16764 9.19221e-11)
(465.85 7.97637 -2.87725e-12)
(465.839 8.52661 1.46265e-10)
(465.747 9.59367 1.79809e-10)
(465.744 9.82072 2.41732e-12)
(465.625 11.2411 -7.13458e-11)
(465.633 11.0508 -6.08442e-11)
(465.487 12.9065 -1.57892e-10)
(465.501 12.2291 -9.27524e-11)
(465.336 14.5649 1.33185e-10)
(465.341 13.3843 1.26124e-10)
(465.178 16.1725 6.36599e-12)
(465.146 14.5704 -8.54363e-11)
(465.025 17.6393 -7.2952e-12)
(464.884 15.9232 7.22659e-11)
(464.293 0.465645 -2.30715e-09)
(464.285 1.26864 7.76587e-10)
(464.276 1.83685 -1.50109e-10)
(464.263 2.798 2.38261e-14)
(464.245 3.33702 1.16276e-10)
(464.229 4.31125 -4.55165e-11)
(464.2 4.86807 -2.17101e-10)
(464.183 5.7885 -1.13564e-10)
(464.139 6.42866 6.23445e-11)
(464.126 7.21744 1.55672e-10)
(464.063 8.02218 4.67343e-11)
(464.057 8.58803 1.12955e-10)
(463.97 9.65056 2.02262e-10)
(463.974 9.89394 7.6463e-11)
(463.861 11.3109 -8.60667e-11)
(463.876 11.1354 -8.76559e-11)
(463.736 12.9917 -1.30023e-10)
(463.759 12.3239 -8.00222e-11)
(463.601 14.6684 1.34855e-10)
(463.617 13.4866 1.14234e-10)
(463.459 16.2988 -2.32411e-11)
(463.441 14.6745 -6.71576e-11)
(463.324 17.8059 2.1425e-13)
(463.206 16.012 3.68723e-12)
(462.43 0.467838 -2.34587e-09)
(462.422 1.27465 7.10215e-10)
(462.414 1.84477 -1.85098e-10)
(462.402 2.81187 -1.48467e-11)
(462.386 3.35106 5.48956e-11)
(462.372 4.33342 -1.55444e-10)
(462.345 4.88844 -2.25503e-10)
(462.331 5.81936 -2.04582e-11)
(462.291 6.4558 1.12356e-10)
(462.282 7.2574 1.63761e-10)
(462.223 8.05685 7.56142e-11)
(462.222 8.63748 1.62543e-10)
(462.141 9.69402 2.10734e-10)
(462.151 9.9531 4.25435e-11)
(462.044 11.3651 -9.3824e-11)
(462.067 11.2041 -7.4729e-11)
(461.933 13.0591 -1.60184e-10)
(461.966 12.4011 -1.45856e-10)
(461.813 14.7524 8.46842e-11)
(461.841 13.5701 9.56203e-11)
(461.689 16.4036 -1.65751e-11)
(461.684 14.7586 -3.5679e-11)
(461.57 17.9441 5.96275e-11)
(461.475 16.0784 8.00386e-11)
(460.514 0.469365 -2.38512e-09)
(460.506 1.27904 7.22327e-10)
(460.499 1.85017 -1.52222e-10)
(460.488 2.82214 -2.2103e-11)
(460.474 3.36053 7.58717e-11)
(460.461 4.34996 -1.04735e-10)
(460.438 4.90216 -2.19928e-10)
(460.427 5.84256 -5.64326e-11)
(460.39 6.47415 2.81264e-11)
(460.385 7.28762 1.07681e-10)
(460.331 8.0805 5.46684e-11)
(460.334 8.67507 1.00627e-10)
(460.259 9.72411 1.75687e-10)
(460.275 9.99826 3.56758e-11)
(460.174 11.4034 -7.26426e-11)
(460.205 11.2567 -2.79114e-11)
(460.078 13.1085 -1.53664e-10)
(460.119 12.4605 -1.13254e-10)
(459.973 14.8164 1.52799e-10)
(460.012 13.6343 1.09123e-10)
(459.866 16.4868 -4.73063e-11)
(459.875 14.8232 -9.3789e-11)
(459.764 18.0548 2.24703e-11)
(459.69 16.1231 6.7529e-11)
(458.545 0.470224 -2.32496e-09)
(458.537 1.28183 7.50581e-10)
(458.531 1.85303 -1.74139e-10)
(458.521 2.8288 -6.98037e-12)
(458.509 3.36543 6.24433e-11)
(458.498 4.36087 -8.32624e-11)
(458.478 4.90923 -2.42541e-10)