#           x            Ma
     0.086207      0.240956
     0.143678      0.241662
      0.20115      0.242366
     0.258621      0.243047
     0.316092      0.243762
     0.373564      0.244543
     0.431035      0.245403
     0.488507      0.246343
     0.545978      0.247367
     0.603449      0.248482
     0.660921      0.249693
     0.718392      0.251003
     0.775863      0.252418
     0.833334      0.253939
     0.890806      0.255572
     0.948277       0.25732
      1.00575      0.259184
      1.06322      0.261169
      1.12069      0.263278
      1.17816      0.265514
      1.23563       0.26788
       1.2931      0.270378
      1.35058      0.273014
      1.40805      0.275789
      1.46552      0.278709
      1.52299      0.281775
      1.58046      0.284993
      1.63793      0.288368
       1.6954      0.291902
      1.75287      0.295601
      1.81035      0.299469
      1.86782      0.303511
      1.92529      0.307733
      1.98276       0.31214
      2.04023      0.316738
       2.0977      0.321531
      2.15517      0.326527
      2.21264      0.331732
      2.27011      0.337151
      2.32758      0.342792
      2.38506      0.348661
      2.44253      0.354765
          2.5      0.361113
      2.55747      0.367711
      2.61494      0.374566
      2.67241      0.381687
      2.72988      0.389082
      2.78735      0.396759
      2.84482      0.404726
      2.90229      0.412993
      2.95977      0.421566
      3.01724      0.430456
      3.07471      0.439671
      3.13218      0.449219
      3.18965      0.459108
      3.24712      0.469349
      3.30459      0.479949
      3.36206      0.490916
      3.41953      0.502258
        3.477      0.513985
      3.53447      0.526102
      3.59195      0.538618
      3.64942      0.551538
      3.70689       0.56487
      3.76436      0.578617
      3.82183      0.592784
       3.8793      0.607375
      3.93677      0.622391
      3.99424      0.637832
      4.05171        0.6537
      4.10918       0.66999
      4.16666        0.6867
      4.22413      0.703822
       4.2816      0.721348
      4.33907      0.739265
      4.39654      0.757557
      4.45401      0.776205
      4.51148      0.795183
      4.56895      0.814459
      4.62643      0.833993
       4.6839      0.853734
      4.74137      0.873621
      4.79884      0.893579
      4.85631      0.913518
      4.91378      0.933333
      4.97125      0.952905
      5.02873      0.972108
       5.0862      0.990825
      5.14367       1.00895
      5.20114       1.02643
      5.25861       1.04325
      5.31608       1.05943
      5.37355       1.07507
      5.43103       1.09028
       5.4885       1.10521
      5.54597       1.11998
      5.60344       1.13469
      5.66091       1.14943
      5.71838       1.16422
      5.77585       1.17907
      5.83333       1.19396
       5.8908       1.20887
      5.94827       1.22375
      6.00574       1.23858
      6.06321       1.25334
      6.12068       1.26802
      6.17815       1.28261
      6.23563       1.29712
       6.2931       1.31153
      6.35057       1.32585
      6.40804       1.34008
      6.46551       1.35422
      6.52298       1.36827
      6.58045       1.38221
      6.63793       1.39605
       6.6954       1.40978
      6.75287       1.42338
      6.81034       1.43687
      6.86781       1.45022
      6.92528       1.46344
      6.98275       1.47651
      7.04022       1.48942
       7.0977       1.50218
      7.15517       1.51478
      7.21264       1.52719
      7.27011       1.53943
      7.32758       1.55149
      7.38505       1.56335
      7.44252       1.57502
          7.5        1.5865
      7.55747       1.59777
      7.61494       1.60885
      7.67241        1.6197
      7.72988       1.63034
      7.78735       1.64077
      7.84482       1.65098
      7.90229       1.66097
      7.95977       1.67072
      8.01724       1.68025
      8.07471       1.68955
      8.13218        1.6986
      8.18965       1.70742
      8.24712       1.71599
      8.30459       1.72431
      8.36207       1.73237
      8.41954       1.74017
      8.47701       1.74772
      8.53448       1.75499
      8.59195         1.762
      8.64942       1.76874
      8.70689        1.7752
      8.76437       1.78139
      8.82184       1.78729
      8.87931       1.79291
      8.93678       1.79824
      8.99425       1.80329
      9.05172       1.80804
      9.10919       1.81251
      9.16666       1.81668
      9.22414       1.82057
      9.28161       1.82416
      9.33908       1.82745
      9.39655       1.83045
      9.45402       1.83315
      9.51149       1.83556
      9.56896       1.83766
      9.62644       1.83946
      9.68391       1.84096
      9.74138       1.84216
      9.79885       1.84306
      9.85632       1.84366
      9.91379       1.84397