/*--------------------------------*- C++ -*----------------------------------*\
  =========                 |
  \\      /  F ield         | OpenFOAM: The Open Source CFD Toolbox
   \\    /   O peration     | Website:  https://openfoam.org
    \\  /    A nd           | Version:  10
     \\/     M anipulation  |
\*---------------------------------------------------------------------------*/
FoamFile
{
    format      ascii;
    class       volScalarField;
    location    "0.21";
    object      Ma;
}
// * * * * * * * * * * * * * * * * * * * * * * * * * * * * * * * * * * * * * //

dimensions      [0 0 0 0 0 0 0];

internalField   nonuniform List<scalar> 
4176
(
1.84512
1.84505
1.84485
1.84461
1.84419
1.84381
1.84316
1.84266
1.84178
1.84115
1.84004
1.83928
1.83797
1.83706
1.83561
1.83447
1.83301
1.83146
1.83015
1.82803
1.82708
1.82415
1.82397
1.82016
1.84501
1.84493
1.84473
1.84448
1.84406
1.84366
1.84301
1.84248
1.8416
1.84093
1.83982
1.83903
1.8377
1.83675
1.83527
1.8341
1.8326
1.83103
1.82968
1.82752
1.82657
1.82351
1.82329
1.81911
1.84465
1.84457
1.84438
1.84414
1.84373
1.84334
1.84271
1.84218
1.84133
1.84067
1.83959
1.83881
1.83751
1.8366
1.83513
1.834
1.83251
1.83099
1.82967
1.82757
1.82666
1.82367
1.82345
1.81913
1.844
1.84393
1.84373
1.84349
1.84308
1.84269
1.84207
1.84154
1.84069
1.84003
1.83895
1.83817
1.83686
1.83596
1.83448
1.83336
1.83186
1.8303
1.82905
1.82688
1.82601
1.82307
1.82287
1.81875
1.84306
1.84298
1.84279
1.84255
1.84215
1.84176
1.84115
1.84062
1.83978
1.83914
1.83806
1.8373
1.836
1.83512
1.83364
1.83255
1.83103
1.82951
1.82828
1.8261
1.82524
1.82233
1.82213
1.81815
1.84181
1.84173
1.84155
1.84131
1.84091
1.84053
1.83992
1.8394
1.83857
1.83792
1.83686
1.8361
1.83482
1.83394
1.83247
1.8314
1.82986
1.82841
1.82711
1.825
1.82411
1.82124
1.821
1.81702
1.84026
1.84019
1.84
1.83976
1.83937
1.83899
1.83839
1.83788
1.83706
1.83642
1.83538
1.83462
1.83336
1.83249
1.83103
1.82999
1.82844
1.82705
1.8257
1.82366
1.82275
1.81992
1.81965
1.8157
1.83841
1.83834
1.83816
1.83792
1.83754
1.83716
1.83657
1.83606
1.83525
1.83462
1.83359
1.83285
1.8316
1.83074
1.8293
1.82827
1.82673
1.82539
1.82401
1.82204
1.8211
1.81832
1.81803
1.81414
1.83627
1.83619
1.83601
1.83578
1.8354
1.83503
1.83445
1.83394
1.83315
1.83252
1.83151
1.83078
1.82955
1.8287
1.82728
1.82627
1.82474
1.82345
1.82205
1.82015
1.81918
1.81646
1.81615
1.81232
1.83382
1.83375
1.83357
1.83334
1.83297
1.8326
1.83203
1.83153
1.83075
1.83014
1.82914
1.82842
1.8272
1.82637
1.82497
1.82399
1.82246
1.82122
1.8198
1.81797
1.81699
1.81432
1.814
1.81023
1.83108
1.83101
1.83084
1.83061
1.83024
1.82988
1.82932
1.82883
1.82806
1.82746
1.82648
1.82577
1.82457
1.82376
1.82237
1.82142
1.81991
1.8187
1.81728
1.81552
1.81451
1.81192
1.81159
1.80789
1.82805
1.82798
1.82781
1.82758
1.82722
1.82687
1.82631
1.82583
1.82508
1.82449
1.82352
1.82283
1.82165
1.82086
1.8195
1.81856
1.81707
1.81591
1.81448
1.81279
1.81176
1.80926
1.8089
1.80528
1.82472
1.82465
1.82448
1.82426
1.82391
1.82356
1.82302
1.82255
1.82181
1.82123
1.82028
1.8196
1.81845
1.81767
1.81633
1.81543
1.81395
1.81283
1.81141
1.80978
1.80875
1.80631
1.80595
1.8024
1.8211
1.82103
1.82087
1.82065
1.82031
1.81996
1.81943
1.81897
1.81825
1.81768
1.81675
1.81609
1.81496
1.8142
1.81289
1.81201
1.81056
1.80947
1.80806
1.80649
1.80545
1.80309
1.80274
1.79927
1.81719
1.81712
1.81696
1.81675
1.81641
1.81608
1.81555
1.81511
1.8144
1.81384
1.81293
1.81229
1.81118
1.81045
1.80916
1.80831
1.80688
1.80584
1.80443
1.80293
1.80189
1.79961
1.79925
1.79586
1.81298
1.81292
1.81276
1.81255
1.81222
1.8119
1.81139
1.81095
1.81026
1.80972
1.80883
1.80821
1.80712
1.80642
1.80515
1.80433
1.80293
1.80192
1.80054
1.7991
1.79806
1.79585
1.7955
1.7922
1.80849
1.80842
1.80827
1.80807
1.80775
1.80743
1.80693
1.80651
1.80584
1.80532
1.80445
1.80385
1.80279
1.8021
1.80087
1.80007
1.79871
1.79774
1.79637
1.795
1.79396
1.79184
1.79148
1.78827
1.80371
1.80364
1.80349
1.8033
1.80298
1.80268
1.8022
1.80179
1.80113
1.80063
1.79978
1.79921
1.79817
1.79751
1.7963
1.79554
1.79421
1.79328
1.79193
1.79063
1.78959
1.78755
1.78719
1.78407
1.79864
1.79857
1.79843
1.79824
1.79793
1.79764
1.79717
1.79678
1.79614
1.79566
1.79484
1.79428
1.79327
1.79264
1.79147
1.79074
1.78944
1.78854
1.78723
1.78599
1.78496
1.783
1.78264
1.77961
1.79328
1.79322
1.79308
1.7929
1.7926
1.79232
1.79186
1.79149
1.79087
1.79041
1.78961
1.78908
1.7881
1.7875
1.78636
1.78566
1.78439
1.78354
1.78226
1.78108
1.78006
1.77819
1.77783
1.7749
1.78764
1.78758
1.78744
1.78727
1.78698
1.78671
1.78627
1.78591
1.78531
1.78488
1.7841
1.7836
1.78265
1.78208
1.78097
1.78032
1.77908
1.77828
1.77702
1.77591
1.7749
1.77311
1.77275
1.76992
1.78172
1.78166
1.78153
1.78136
1.78109
1.78083
1.7804
1.78006
1.77948
1.77907
1.77832
1.77785
1.77693
1.77639
1.77532
1.7747
1.7735
1.77274
1.77152
1.77047
1.76948
1.76778
1.76742
1.76469
1.77552
1.77546
1.77533
1.77517
1.77491
1.77466
1.77426
1.77393
1.77338
1.77298
1.77227
1.77182
1.77094
1.77043
1.76939
1.76881
1.76766
1.76694
1.76576
1.76476
1.7638
1.76218
1.76182
1.7592
1.76903
1.76898
1.76886
1.76871
1.76846
1.76823
1.76784
1.76753
1.767
1.76663
1.76594
1.76552
1.76467
1.7642
1.7632
1.76266
1.76154
1.76087
1.75974
1.7588
1.75785
1.75632
1.75598
1.75345
1.76228
1.76223
1.76211
1.76197
1.76173
1.76151
1.76114
1.76086
1.76035
1.76
1.75934
1.75895
1.75814
1.7577
1.75674
1.75624
1.75516
1.75454
1.75345
1.75257
1.75165
1.75021
1.74987
1.74746
1.75525
1.7552
1.75509
1.75496
1.75473
1.75453
1.75418
1.75391
1.75343
1.75311
1.75248
1.75212
1.75134
1.75094
1.75001
1.74955
1.74852
1.74795
1.7469
1.74608
1.74519
1.74383
1.74351
1.74121
1.74796
1.74791
1.74781
1.74768
1.74747
1.74728
1.74694
1.7467
1.74624
1.74595
1.74535
1.74502
1.74427
1.74391
1.74303
1.74261
1.74162
1.74109
1.74009
1.73933
1.73848
1.73721
1.7369
1.7347
1.7404
1.74035
1.74026
1.74014
1.73994
1.73976
1.73944
1.73922
1.73879
1.73852
1.73795
1.73766
1.73695
1.73662
1.73578
1.7354
1.73446
1.73398
1.73302
1.73232
1.73151
1.73032
1.73003
1.72794
1.73258
1.73254
1.73244
1.73234
1.73214
1.73198
1.73169
1.73148
1.73107
1.73083
1.7303
1.73003
1.72936
1.72907
1.72827
1.72794
1.72704
1.72661
1.7257
1.72506
1.72428
1.72319
1.72292
1.72092
1.72451
1.72446
1.72437
1.72427
1.7241
1.72395
1.72367
1.72349
1.7231
1.72289
1.72238
1.72215
1.72152
1.72127
1.72051
1.72022
1.71937
1.71899
1.71812
1.71754
1.71681
1.7158
1.71556
1.71366
1.71618
1.71613
1.71605
1.71596
1.71579
1.71566
1.7154
1.71524
1.71488
1.71469
1.71422
1.71402
1.71342
1.71321
1.71249
1.71225
1.71145
1.71112
1.7103
1.70978
1.70908
1.70817
1.70793
1.70616
1.7076
1.70755
1.70748
1.7074
1.70724
1.70713
1.70688
1.70674
1.70641
1.70625
1.7058
1.70564
1.70507
1.7049
1.70422
1.70403
1.70327
1.70299
1.70222
1.70176
1.70111
1.70027
1.70006
1.6984
1.69877
1.69873
1.69866
1.69859
1.69845
1.69834
1.69812
1.698
1.69769
1.69755
1.69714
1.697
1.69648
1.69634
1.69571
1.69555
1.69484
1.69462
1.69389
1.69349
1.69289
1.69213
1.69194
1.69039
1.6897
1.68967
1.6896
1.68954
1.68941
1.68932
1.68911
1.68901
1.68872
1.68862
1.68823
1.68813
1.68763
1.68754
1.68694
1.68683
1.68616
1.68599
1.68532
1.68498
1.68443
1.68374
1.68357
1.68214
1.6804
1.68036
1.6803
1.68025
1.68013
1.68005
1.67987
1.67978
1.67952
1.67944
1.67908
1.67901
1.67855
1.67849
1.67794
1.67787
1.67725
1.67713
1.6765
1.67622
1.67572
1.67511
1.67496
1.67365
1.67086
1.67083
1.67077
1.67072
1.67061
1.67055
1.67038
1.67032
1.67008
1.67002
1.66969
1.66966
1.66923
1.66921
1.66869
1.66867
1.66809
1.66802
1.66743
1.66722
1.66677
1.66623
1.66612
1.66491
1.66109
1.66106
1.66101
1.66097
1.66087
1.66082
1.66067
1.66063
1.66041
1.66038
1.66008
1.66007
1.65968
1.65969
1.65921
1.65924
1.65869
1.65867
1.65813
1.65798
1.65757
1.65711
1.65703
1.65594
1.6511
1.65107
1.65103
1.65099
1.6509
1.65087
1.65073
1.6507
1.65051
1.6505
1.65023
1.65025
1.64989
1.64994
1.6495
1.64957
1.64906
1.6491
1.6486
1.6485
1.64814
1.64774
1.64771
1.64672
1.64088
1.64085
1.64082
1.64079
1.64071
1.64069
1.64056
1.64056
1.64038
1.6404
1.64015
1.6402
1.63988
1.63996
1.63956
1.63967
1.63921
1.63929
1.63883
1.6388
1.63847
1.63815
1.63815
1.63728
1.63045
1.63042
1.63039
1.63036
1.6303
1.63029
1.63018
1.63019
1.63003
1.63007
1.62985
1.62993
1.62964
1.62976
1.62939
1.62954
1.62912
1.62925
1.62884
1.62886
1.62858
1.62833
1.62836
1.62759
1.6198
1.61977
1.61974
1.61973
1.61967
1.61967
1.61958
1.6196
1.61947
1.61953
1.61933
1.61944
1.61918
1.61933
1.619
1.61919
1.61881
1.61899
1.61862
1.6187
1.61846
1.61828
1.61835
1.61767
1.60894
1.60891
1.60889
1.60887
1.60883
1.60884
1.60876
1.60881
1.60869
1.60877
1.6086
1.60874
1.6085
1.60869
1.60839
1.60863
1.60828
1.60851
1.60818
1.60832
1.60812
1.60801
1.60812
1.60752
1.59787
1.59784
1.59782
1.59781
1.59778
1.5978
1.59774
1.5978
1.5977
1.5978
1.59766
1.59782
1.59761
1.59784
1.59757
1.59785
1.59753
1.59781
1.59752
1.59772
1.59755
1.59753
1.59766
1.59716
1.58659
1.58656
1.58655
1.58655
1.58652
1.58655
1.58651
1.58658
1.58651
1.58663
1.58651
1.5867
1.58652
1.58677
1.58653
1.58685
1.58657
1.5869
1.58664
1.58691
1.58677
1.58682
1.58697
1.58658
1.57511
1.57508
1.57507
1.57508
1.57506
1.57511
1.57508
1.57516
1.57511
1.57525
1.57516
1.57537
1.57522
1.57551
1.5753
1.57566
1.5754
1.57579
1.57555
1.57588
1.57577
1.5759
1.57607
1.57578
1.56343
1.56341
1.5634
1.56341
1.56341
1.56346
1.56344
1.56355
1.56351
1.56368
1.5636
1.56384
1.56372
1.56404
1.56386
1.56426
1.56404
1.56447
1.56426
1.56466
1.56456
1.56477
1.56496
1.56477
1.55156
1.55154
1.55153
1.55155
1.55156
1.55162
1.55162
1.55174
1.55172
1.5519
1.55185
1.55212
1.55202
1.55237
1.55222
1.55266
1.55247
1.55295
1.55277
1.55323
1.55315
1.55344
1.55364
1.55355
1.5395
1.53948
1.53948
1.53951
1.53952
1.53959
1.5396
1.53974
1.53974
1.53994
1.53992
1.5402
1.54013
1.54051
1.54039
1.54087
1.54071
1.54124
1.54108
1.5416
1.54154
1.54191
1.54212
1.54213
1.52725
1.52724
1.52724
1.52727
1.52729
1.52738
1.5274
1.52755
1.52757
1.52779
1.52779
1.5281
1.52806
1.52847
1.52837
1.52889
1.52875
1.52934
1.5292
1.52979
1.52974
1.5302
1.53039
1.53052
1.51483
1.51481
1.51482
1.51486
1.51489
1.51498
1.51502
1.51518
1.51522
1.51546
1.51548
1.51582
1.5158
1.51624
1.51617
1.51672
1.51661
1.51725
1.51713
1.51778
1.51774
1.5183
1.51848
1.51871
1.50224
1.50222
1.50223
1.50227
1.50231
1.50242
1.50247
1.50264
1.5027
1.50296
1.503
1.50336
1.50336
1.50383
1.50379
1.50438
1.50429
1.50498
1.50487
1.50559
1.50555
1.5062
1.50638
1.5067
1.48947
1.48946
1.48948
1.48952
1.48957
1.48968
1.48974
1.48993
1.49
1.49028
1.49034
1.49072
1.49075
1.49125
1.49123
1.49186
1.49179
1.49253
1.49243
1.49323
1.49318
1.49392
1.4941
1.49451
1.47655
1.47654
1.47656
1.47661
1.47666
1.47678
1.47686
1.47706
1.47715
1.47744
1.47752
1.47793
1.47797
1.47851
1.4785
1.47917
1.47911
1.47991
1.47981
1.4807
1.48063
1.48145
1.48164
1.48214
1.46348
1.46347
1.46349
1.46354
1.46361
1.46373
1.46382
1.46403
1.46413
1.46445
1.46454
1.46497
1.46503
1.4656
1.4656
1.46633
1.46626
1.46713
1.46702
1.46798
1.46793
1.46881
1.46901
1.46958
1.45026
1.45025
1.45027
1.45033
1.4504
1.45053
1.45063
1.45086
1.45097
1.4513
1.4514
1.45186
1.45192
1.45254
1.45254
1.45332
1.45324
1.45419
1.45407
1.45509
1.45505
1.45599
1.4562
1.45686
1.4369
1.43689
1.43692
1.43698
1.43706
1.4372
1.4373
1.43754
1.43766
1.43801
1.43812
1.43861
1.43867
1.43933
1.43932
1.44016
1.44008
1.44107
1.44097
1.44203
1.44201
1.44301
1.44323
1.44396
1.42341
1.4234
1.42343
1.4235
1.42358
1.42372
1.42384
1.42409
1.42421
1.42458
1.42469
1.42522
1.42527
1.42598
1.42596
1.42685
1.42678
1.4278
1.42772
1.42881
1.42882
1.42986
1.43009
1.43089
1.4098
1.40979
1.40982
1.40989
1.40998
1.41012
1.41025
1.41051
1.41064
1.41103
1.41113
1.41169
1.41174
1.41248
1.41247
1.41338
1.41333
1.41437
1.41432
1.41545
1.41547
1.41656
1.4168
1.41766
1.39607
1.39606
1.3961
1.39616
1.39626
1.3964
1.39654
1.3968
1.39694
1.39735
1.39745
1.39803
1.39809
1.39884
1.39885
1.39978
1.39975
1.40081
1.40078
1.40193
1.40198
1.4031
1.40336
1.40428
1.38223
1.38222
1.38226
1.38232
1.38243
1.38257
1.38272
1.38298
1.38313
1.38354
1.38366
1.38424
1.38432
1.38508
1.38511
1.38604
1.38603
1.38712
1.3871
1.38828
1.38834
1.38951
1.38977
1.39075
1.36829
1.36827
1.36832
1.36838
1.36849
1.36863
1.36879
1.36904
1.36921
1.36962
1.36975
1.37034
1.37043
1.37119
1.37124
1.37219
1.37219
1.37329
1.3733
1.37449
1.37457
1.37577
1.37604
1.37707
1.35425
1.35423
1.35427
1.35434
1.35444
1.35459
1.35476
1.355
1.3552
1.35558
1.35575
1.35632
1.35643
1.3572
1.35726
1.35821
1.35824
1.35935
1.35937
1.36059
1.36067
1.3619
1.36218
1.36326
1.34011
1.34009
1.34013
1.3402
1.34031
1.34046
1.34062
1.34087
1.34107
1.34145
1.34164
1.34219
1.34233
1.34309
1.34317
1.34412
1.34416
1.34528
1.34532
1.34656
1.34666
1.34791
1.34819
1.34932
1.32588
1.32586
1.3259
1.32597
1.32607
1.32622
1.32639
1.32664
1.32685
1.32722
1.32743
1.32797
1.32813
1.32888
1.32898
1.32993
1.32999
1.33112
1.33117
1.33242
1.33253
1.33381
1.33409
1.33526
1.31155
1.31153
1.31158
1.31164
1.31175
1.3119
1.31207
1.31231
1.31254
1.31289
1.31312
1.31365
1.31383
1.31458
1.3147
1.31565
1.31572
1.31685
1.31691
1.31818
1.3183
1.3196
1.31988
1.32109
1.29714
1.29712
1.29716
1.29723
1.29734
1.29749
1.29766
1.2979
1.29813
1.29848
1.29873
1.29925
1.29945
1.30019
1.30032
1.30127
1.30135
1.30249
1.30256
1.30384
1.30397
1.30529
1.30558
1.30682
1.28263
1.28261
1.28266
1.28272
1.28283
1.28298
1.28316
1.2834
1.28364
1.28399
1.28424
1.28476
1.28497
1.28571
1.28585
1.28681
1.28691
1.28805
1.28813
1.28942
1.28955
1.29089
1.29118
1.29245
1.26804
1.26802
1.26806
1.26813
1.26824
1.26839
1.26858
1.26882
1.26906
1.26941
1.26968
1.27019
1.27042
1.27116
1.27131
1.27228
1.27238
1.27353
1.27362
1.27492
1.27506
1.27641
1.2767
1.278
1.25336
1.25333
1.25338
1.25345
1.25357
1.25372
1.25391
1.25415
1.25441
1.25475
1.25504
1.25555
1.2558
1.25653
1.2567
1.25767
1.25778
1.25893
1.25904
1.26034
1.26049
1.26185
1.26214
1.26346
1.23859
1.23857
1.23862
1.23869
1.23881
1.23897
1.23917
1.23942
1.23968
1.24003
1.24034
1.24084
1.24111
1.24183
1.24203
1.243
1.24311
1.24428
1.24439
1.24569
1.24585
1.24722
1.24751
1.24885
1.22376
1.22373
1.22379
1.22386
1.22399
1.22415
1.22436
1.22461
1.22489
1.22524
1.22557
1.22606
1.22637
1.22707
1.2273
1.22825
1.22839
1.22956
1.22968
1.23098
1.23115
1.23252
1.23281
1.23416
1.20887
1.20885
1.2089
1.20898
1.20911
1.20928
1.20949
1.20976
1.21004
1.21041
1.21075
1.21123
1.21157
1.21226
1.21252
1.21345
1.21361
1.21478
1.21491
1.2162
1.21638
1.21776
1.21804
1.2194
1.19396
1.19394
1.19399
1.19408
1.19421
1.19439
1.1946
1.19487
1.19516
1.19553
1.19588
1.19636
1.19672
1.19739
1.19768
1.19859
1.19878
1.19993
1.20007
1.20136
1.20154
1.20292
1.2032
1.20457
1.17907
1.17904
1.17909
1.17918
1.17931
1.17948
1.17969
1.17996
1.18025
1.18062
1.18097
1.18145
1.18182
1.18247
1.18279
1.18367
1.1839
1.18501
1.18517
1.18646
1.18663
1.188
1.18828
1.18965
1.16421
1.16419
1.16423
1.16431
1.16443
1.1646
1.1648
1.16506
1.16534
1.16569
1.16604
1.16651
1.16688
1.16751
1.16785
1.16869
1.16895
1.17002
1.17019
1.17148
1.17165
1.17301
1.17328
1.17464
1.14942
1.1494
1.14943
1.1495
1.14961
1.14976
1.14994
1.15018
1.15044
1.15077
1.1511
1.15154
1.1519
1.1525
1.15284
1.15364
1.15392
1.15495
1.15515
1.1564
1.15657
1.15793
1.15819
1.15955
1.13469
1.13466
1.13469
1.13474
1.13483
1.13496
1.13512
1.13533
1.13556
1.13586
1.13616
1.13656
1.1369
1.13745
1.13778
1.13853
1.13881
1.1398
1.14001
1.14123
1.1414
1.14275
1.143
1.14436
1.11999
1.11996
1.11997
1.12001
1.12008
1.12019
1.12032
1.1205
1.1207
1.12095
1.12121
1.12157
1.12187
1.12238
1.12267
1.12337
1.12363
1.12457
1.12476
1.12595
1.12611
1.12746
1.12769
1.12906
1.10525
1.10521
1.10522
1.10524
1.1053
1.10538
1.10549
1.10564
1.10581
1.10602
1.10625
1.10656
1.10682
1.10728
1.10752
1.10818
1.10839
1.10929
1.10943
1.11059
1.1107
1.11205
1.11226
1.11364
1.09036
1.09031
1.09032
1.09033
1.09039
1.09044
1.09055
1.09067
1.09083
1.09101
1.09122
1.09149
1.09172
1.09214
1.09232
1.09298
1.09307
1.094
1.09402
1.09518
1.0952
1.09653
1.09669
1.09805
1.07518
1.07513
1.07514
1.07515
1.07521
1.07527
1.07538
1.07549
1.07566
1.07583
1.07603
1.07629
1.07652
1.0769
1.07707
1.07772
1.07773
1.07868
1.0786
1.07976
1.07969
1.08099
1.08107
1.08234
1.05957
1.05952
1.05954
1.05956
1.05962
1.05971
1.05983
1.05998
1.06016
1.06037
1.06058
1.06086
1.06111
1.06149
1.06171
1.06231
1.06236
1.06327
1.06318
1.06433
1.0642
1.06549
1.0655
1.0667
1.04341
1.04336
1.04339
1.04343
1.04352
1.04364
1.04379
1.04399
1.04421
1.04447
1.04474
1.04508
1.04538
1.0458
1.0461
1.04669
1.04685
1.04772
1.04769
1.04886
1.04871
1.05004
1.04999
1.05121
1.0266
1.02656
1.0266
1.02666
1.02678
1.02694
1.02715
1.0274
1.02768
1.02801
1.02837
1.02878
1.02918
1.02969
1.03009
1.03075
1.03103
1.03195
1.032
1.03326
1.03311
1.03455
1.03447
1.03577
1.00912
1.00907
1.00913
1.00921
1.00937
1.00957
1.00983
1.01013
1.0105
1.01089
1.01136
1.01184
1.01238
1.01298
1.01353
1.0143
1.01472
1.0158
1.01596
1.01737
1.01729
1.01889
1.01881
1.02029
0.990972
0.990926
0.991
0.991099
0.991283
0.991515
0.99182
0.992171
0.992603
0.993065
0.993618
0.9942
0.994845
0.995567
0.996258
0.997155
0.997772
0.999004
0.999347
1.00097
1.00104
1.00289
1.00287
1.00464
0.972231
0.972192
0.972263
0.972385
0.972577
0.972843
0.973169
0.97357
0.974033
0.974568
0.975164
0.97584
0.976556
0.977384
0.9782
0.979197
0.980045
0.981331
0.982009
0.983733
0.984108
0.986243
0.98639
0.988583
0.952999
0.952963
0.953033
0.953163
0.953363
0.953643
0.953983
0.954406
0.954894
0.955459
0.956091
0.95681
0.957579
0.958465
0.959361
0.960432
0.961426
0.962744
0.96374
0.965446
0.966242
0.968526
0.968977
0.971734
0.933398
0.933363
0.933429
0.93356
0.93376
0.934041
0.934385
0.934811
0.935305
0.935876
0.93652
0.937248
0.938037
0.938937
0.939865
0.94096
0.94201
0.943351
0.944473
0.946153
0.947252
0.949492
0.950271
0.953474
0.913554
0.913517
0.913579
0.913705
0.913899
0.914172
0.914509
0.914924
0.91541
0.915967
0.916604
0.917315
0.918096
0.918977
0.919899
0.920969
0.922018
0.923331
0.924457
0.926104
0.927214
0.929408
0.930235
0.933433
0.893591
0.893549
0.893606
0.893722
0.893907
0.894165
0.894488
0.894883
0.895351
0.895881
0.896497
0.897173
0.89793
0.898767
0.89966
0.900677
0.901693
0.902942
0.904012
0.905603
0.906602
0.908748
0.909445
0.912381
0.873611
0.873564
0.873615
0.873721
0.873893
0.874132
0.874437
0.874805
0.87525
0.875745
0.876331
0.876962
0.877684
0.878466
0.879317
0.880266
0.881234
0.882396
0.88341
0.884898
0.88582
0.887842
0.888479
0.891198
0.853708
0.853654
0.853699
0.853791
0.85395
0.854168
0.854453
0.85479
0.85521
0.855662
0.856218
0.856795
0.857481
0.858196
0.859003
0.859876
0.86079
0.861857
0.862811
0.864192
0.865042
0.866914
0.867512
0.870023
0.833953
0.833893
0.833936
0.834008
0.83416
0.834348
0.834619
0.834916
0.835316
0.835715
0.836249
0.836758
0.837417
0.838052
0.838823
0.839606
0.840469
0.841437
0.842332
0.843605
0.844388
0.846105
0.84667
0.848972
0.814408
0.814342
0.814385
0.814435
0.814582
0.814737
0.814998
0.815248
0.815637
0.815973
0.816494
0.816922
0.817568
0.818103
0.818858
0.81953
0.820362
0.821222
0.822055
0.823218
0.823949
0.825503
0.826041
0.828135
0.795125
0.795055
0.79509
0.79513
0.795258
0.795396
0.79563
0.795853
0.796209
0.796505
0.79699
0.797361
0.797971
0.79843
0.79915
0.799725
0.800519
0.801269
0.802061
0.803096
0.803783
0.805175
0.805687
0.807576
0.776142
0.77607
0.776093
0.77613
0.776231
0.776363
0.776558
0.77677
0.777074
0.777354
0.777776
0.778123
0.778663
0.779085
0.779734
0.780249
0.780981
0.781635
0.782388
0.783285
0.783938
0.78517
0.78566
0.787348
0.757489
0.757416
0.757429
0.75746
0.757541
0.75766
0.757825
0.758018
0.758281
0.758537
0.758906
0.759224
0.759699
0.760084
0.76066
0.761123
0.761787
0.762357
0.763069
0.763819
0.764453
0.76553
0.765998
0.767489
0.739193
0.73912
0.739124
0.739147
0.739212
0.739315
0.739455
0.739625
0.739854
0.74008
0.740404
0.740687
0.741107
0.741448
0.741963
0.742368
0.74297
0.74346
0.744121
0.744744
0.745361
0.74628
0.746729
0.748028
0.721274
0.7212
0.721197
0.721213
0.721261
0.72135
0.721466
0.721613
0.721811
0.722006
0.722291
0.722535
0.722908
0.723201
0.723661
0.724007
0.724551
0.724962
0.725571
0.726084
0.726685
0.72744
0.727875
0.728986
0.703748
0.703674
0.703664
0.703671
0.703707
0.703779
0.703875
0.703998
0.704168
0.704332
0.704581
0.704786
0.705115
0.705361
0.705771
0.706058
0.706548
0.706886
0.707439
0.707854
0.708428
0.709029
0.709455
0.710385
0.686626
0.686552
0.686535
0.686537
0.686556
0.686618
0.68669
0.686795
0.686935
0.687071
0.687286
0.687453
0.687741
0.687941
0.688303
0.688535
0.688972
0.68924
0.689744
0.690068
0.690602
0.691063
0.69148
0.692239
0.669917
0.669843
0.669823
0.669813
0.669828
0.669866
0.669929
0.670005
0.670126
0.670229
0.670414
0.670545
0.670794
0.670949
0.671268
0.671445
0.671834
0.672036
0.672488
0.67273
0.673221
0.673554
0.673961
0.674561
0.653628
0.653554
0.653528
0.653516
0.653513
0.653547
0.653583
0.653647
0.653738
0.653818
0.653971
0.654068
0.65428
0.654394
0.65467
0.654796
0.655138
0.655276
0.655682
0.655844
0.656291
0.656512
0.65691
0.657355
0.637763
0.637689
0.637661
0.637638
0.637633
0.637643
0.637675
0.637709
0.637786
0.637835
0.637962
0.638026
0.638204
0.638278
0.638514
0.638591
0.63889
0.638969
0.639328
0.639415
0.639819
0.639944
0.640328
0.640623
0.622324
0.622251
0.622219
0.622189
0.622177
0.622174
0.62219
0.622208
0.622261
0.622289
0.622388
0.622421
0.622567
0.622603
0.622802
0.622833
0.623091
0.623112
0.62343
0.623448
0.62381
0.623846
0.62421
0.624366
0.607311
0.60724
0.607203
0.607171
0.607145
0.607136
0.607135
0.607137
0.607171
0.607175
0.607249
0.607253
0.607369
0.607369
0.607533
0.607521
0.60774
0.607709
0.607986
0.607938
0.608264
0.608218
0.608555
0.608583
0.592724
0.592652
0.592618
0.592572
0.592551
0.592517
0.592516
0.592492
0.592515
0.592493
0.592546
0.592522
0.59261
0.592576
0.592707
0.592654
0.592836
0.592755
0.592994
0.592885
0.593173
0.593049
0.593358
0.593272
0.57856
0.578491
0.578451
0.578407
0.578369
0.578337
0.578313
0.578283
0.578282
0.578245
0.578273
0.578225
0.578286
0.57822
0.57832
0.578229
0.578376
0.578249
0.578451
0.578283
0.578538
0.578339
0.578619
0.578431
0.564818
0.564749
0.56471
0.564655
0.56462
0.564568
0.564545
0.564489
0.564483
0.56442
0.564433
0.564358
0.564395
0.564299
0.564371
0.564243
0.564359
0.564187
0.564356
0.564133
0.564356
0.564086
0.564342
0.564057
0.55149
0.551424
0.551382
0.551325
0.551283
0.551224
0.551189
0.551124
0.551098
0.551023
0.551013
0.550919
0.550931
0.550809
0.550853
0.550692
0.550779
0.550566
0.550705
0.55043
0.550625
0.550288
0.550525
0.550149
0.538575
0.538509
0.538466
0.538407
0.538357
0.538294
0.538247
0.538171
0.538134
0.53804
0.538015
0.537898
0.537891
0.537743
0.537763
0.537571
0.53763
0.537379
0.53749
0.537169
0.537337
0.536941
0.53716
0.536701
0.526063
0.525999
0.525958
0.52589
0.525845
0.525764
0.525719
0.525625
0.525579
0.525469
0.525428
0.525294
0.525266
0.525095
0.525092
0.524872
0.524907
0.524621
0.524707
0.524342
0.524488
0.524035
0.524239
0.523704
0.513951
0.513889
0.513845
0.51378
0.513722
0.513645
0.513582
0.513487
0.513424
0.513304
0.513247
0.513096
0.51305
0.512858
0.512835
0.512589
0.5126
0.512283
0.512345
0.511941
0.512066
0.511562
0.511753
0.511148
0.502229
0.502169
0.502126
0.502054
0.502
0.501909
0.501848
0.501736
0.501669
0.501532
0.501465
0.501296
0.501236
0.501024
0.500981
0.500711
0.500702
0.500356
0.500398
0.499957
0.500063
0.499512
0.49969
0.499023
0.490891
0.490834
0.490789
0.490717
0.490657
0.490565
0.490493
0.490378
0.490297
0.490154
0.49007
0.48989
0.489813
0.489583
0.489524
0.489232
0.489204
0.488831
0.488853
0.488379
0.488468
0.487873
0.488042
0.487318
0.479929
0.479874
0.479828
0.479757
0.47969
0.479597
0.479517
0.479395
0.479307
0.479152
0.479059
0.478864
0.478774
0.478528
0.478452
0.478141
0.478095
0.477698
0.477703
0.477198
0.477272
0.476639
0.476796
0.476019
0.469334
0.469281
0.469236
0.46916
0.469096
0.468994
0.468914
0.468782
0.468688
0.468522
0.46842
0.468213
0.46811
0.46785
0.467759
0.467429
0.467367
0.466949
0.466935
0.466404
0.466462
0.465796
0.465944
0.465115
0.459098
0.459047
0.459001
0.458927
0.458857
0.458756
0.458666
0.458533
0.458428
0.458257
0.458143
0.457926
0.457812
0.457538
0.457433
0.457088
0.45701
0.456572
0.456543
0.455987
0.456031
0.455332
0.455469
0.454602
0.449213
0.449165
0.449117
0.449044
0.448971
0.448867
0.448774
0.448633
0.448525
0.448343
0.448223
0.447995
0.44787
0.447584
0.447467
0.447107
0.447015
0.44656
0.446514
0.445937
0.445967
0.445239
0.445367
0.44446
0.43967
0.439623
0.439578
0.439499
0.439431
0.439317
0.439226
0.439078
0.438964
0.438776
0.438648
0.438411
0.438276
0.437979
0.437851
0.437477
0.437372
0.4369
0.436842
0.436245
0.43626
0.435506
0.435624
0.434683
0.43046
0.430416
0.430367
0.430297
0.430215
0.430112
0.430005
0.429862
0.429737
0.429547
0.429409
0.429165
0.429022
0.428715
0.428576
0.42819
0.428073
0.427587
0.427514
0.4269
0.426902
0.426125
0.426234
0.425258
0.421575
0.421532
0.421488
0.421408
0.421338
0.421217
0.421124
0.420962
0.420844
0.42064
0.420502
0.420247
0.420097
0.419781
0.419632
0.419236
0.419108
0.418609
0.418524
0.417895
0.417884
0.417088
0.417185
0.416182
0.413006
0.412966
0.412917
0.412846
0.412763
0.412656
0.412543
0.412394
0.412258
0.41206
0.411909
0.411652
0.411493
0.411169
0.411013
0.410606
0.410469
0.409959
0.409864
0.40922
0.409198
0.408386
0.408473
0.407444
0.404744
0.404705
0.404661
0.404582
0.404508
0.404387
0.404286
0.40412
0.403994
0.40378
0.403632
0.403365
0.403203
0.40287
0.402708
0.402291
0.402148
0.401625
0.401524
0.400867
0.400837
0.400009
0.400089
0.399044
0.396781
0.396745
0.396697
0.396625
0.396542
0.39643
0.396315
0.396158
0.396019
0.39581
0.395652
0.395383
0.395215
0.394875
0.394708
0.394282
0.394134
0.3936
0.393494
0.392824
0.39279
0.391948
0.392025
0.390964
0.389109
0.389073
0.38903
0.388951
0.388876
0.388752
0.388647
0.388478
0.388344
0.388126
0.387968
0.387693
0.387521
0.387175
0.387004
0.38657
0.386417
0.385875
0.385764
0.385084
0.385045
0.384191
0.384264
0.383194
0.381718
0.381685
0.381638
0.381567
0.381482
0.381368
0.381252
0.381089
0.380947
0.380729
0.380567
0.380288
0.380112
0.379762
0.379585
0.379147
0.378988
0.378439
0.378324
0.377634
0.377592
0.376729
0.376797
0.375716
0.374601
0.374568
0.374526
0.374448
0.374372
0.374247
0.374139
0.373967
0.373828
0.373605
0.373442
0.373159
0.37298
0.372625
0.372445
0.372001
0.371838
0.371283
0.371162
0.370467
0.370419
0.369549
0.369611
0.368524
0.367749
0.367719
0.367674
0.367601
0.367519
0.367401
0.367285
0.367117
0.366973
0.36675
0.366583
0.366298
0.366116
0.365757
0.365573
0.365126
0.364958
0.364399
0.364273
0.363572
0.363519
0.362643
0.362699
0.361605
0.361156
0.361126
0.361083
0.361008
0.360929
0.360807
0.360694
0.360522
0.360379
0.360152
0.359984
0.359696
0.359512
0.35915
0.358963
0.358512
0.35834
0.357778
0.357645
0.356942
0.356883
0.356002
0.356054
0.354953
0.354812
0.354784
0.354741
0.354667
0.354587
0.354465
0.354351
0.354178
0.354034
0.353806
0.353636
0.353346
0.35316
0.352795
0.352605
0.352152
0.351975
0.35141
0.351274
0.350567
0.350503
0.349617
0.349664
0.348559
0.348711
0.348684
0.348641
0.348568
0.348487
0.348366
0.348251
0.348079
0.347933
0.347703
0.347533
0.34724
0.347052
0.346685
0.346493
0.346037
0.345858
0.34529
0.345149
0.34444
0.34437
0.343484
0.343526
0.342415
0.342845
0.342819
0.342777
0.342704
0.342624
0.342502
0.342388
0.342213
0.342068
0.341836
0.341666
0.34137
0.341182
0.340813
0.34062
0.34016
0.339979
0.339409
0.339265
0.338554
0.33848
0.337591
0.337628
0.336517
0.337208
0.337183
0.337142
0.337067
0.33699
0.336865
0.336753
0.336576
0.336432
0.336198
0.336028
0.33573
0.335543
0.33517
0.334977
0.334515
0.334333
0.33376
0.333614
0.332901
0.332826
0.331931
0.331966
0.330855
0.331792
0.331768
0.331726
0.331655
0.331574
0.331454
0.331337
0.331163
0.331017
0.330783
0.330613
0.330313
0.330126
0.32975
0.329558
0.329092
0.328912
0.328335
0.32819
0.327474
0.327396
0.326502
0.326533
0.325423
0.326591
0.326567
0.326528
0.326452
0.326378
0.32625
0.326143
0.32596
0.325821
0.32558
0.325415
0.32511
0.324927
0.324546
0.324357
0.323887
0.32371
0.323127
0.322986
0.322264
0.322191
0.321291
0.321323
0.320213
0.321598
0.321576
0.321535
0.321464
0.321384
0.321263
0.321148
0.320972
0.320828
0.32059
0.320424
0.320117
0.319937
0.319552
0.319367
0.318891
0.318719
0.318131
0.317996
0.317266
0.317199
0.316295
0.316327
0.315221
0.316807
0.316784
0.316747
0.316671
0.316599
0.316469
0.316365
0.316179
0.316044
0.315798
0.315639
0.315326
0.315151
0.31476
0.314581
0.314099
0.313934
0.313337
0.31321
0.312474
0.312415
0.311506
0.31154
0.310437
0.312213
0.312192
0.312152
0.312081
0.312003
0.31188
0.311769
0.311589
0.31145
0.311206
0.311048
0.310733
0.310562
0.310166
0.309994
0.309503
0.309347
0.308743
0.308623
0.307881
0.307827
0.306918
0.306951
0.305855
0.307809
0.307787
0.307751
0.307674
0.307605
0.307472
0.307372
0.307182
0.307053
0.306802
0.306649
0.306329
0.306164
0.305763
0.305597
0.3051
0.304953
0.304339
0.304231
0.303479
0.303433
0.302521
0.302556
0.301465
0.303589
0.303569
0.30353
0.303459
0.303383
0.303259
0.303151
0.302968
0.302834
0.302586
0.302434
0.302113
0.30195
0.301546
0.301385
0.300884
0.300742
0.300124
0.300022
0.299266
0.299223
0.298313
0.298346
0.297259
0.299549
0.299528
0.299493
0.299416
0.299349
0.299215
0.299118
0.298925
0.298802
0.298546
0.298401
0.298074
0.297918
0.297508
0.297354
0.296847
0.296712
0.296088
0.295995
0.295234
0.295195
0.294284
0.294317
0.293235
0.295683
0.295663
0.295625
0.295554
0.295481
0.295355
0.295251
0.295064
0.294938
0.294682
0.294541
0.294209
0.294061
0.293643
0.2935
0.292983
0.292862
0.292226
0.292142
0.291378
0.291342
0.290433
0.290464
0.289388
0.291986
0.291965
0.291932
0.291854
0.291791
0.291653
0.291563
0.291364
0.29125
0.290984
0.290853
0.290512
0.290375
0.289947
0.289818
0.289288
0.289179
0.288537
0.288459
0.287693
0.287658
0.286754
0.286782
0.285715
0.288454
0.288434
0.288398
0.288326
0.288256
0.288126
0.28803
0.287835
0.287721
0.287453
0.287329
0.28698
0.286855
0.286416
0.286298
0.28576
0.28566
0.285013
0.28494
0.284175
0.284141
0.28324
0.283267
0.282207
0.285081
0.285061
0.28503
0.284949
0.284891
0.284748
0.284667
0.284458
0.284359
0.284078
0.283968
0.283607
0.283495
0.283046
0.282938
0.282394
0.2823
0.281652
0.281581
0.280817
0.280783
0.279888
0.279912
0.27886
0.281865
0.281845
0.281812
0.281735