/*--------------------------------*- C++ -*----------------------------------*\
  =========                 |
  \\      /  F ield         | OpenFOAM: The Open Source CFD Toolbox
   \\    /   O peration     | Website:  https://openfoam.org
    \\  /    A nd           | Version:  10
     \\/     M anipulation  |
\*---------------------------------------------------------------------------*/
FoamFile
{
    format      ascii;
    class       volScalarField;
    location    "0.21";
    object      p;
}
// * * * * * * * * * * * * * * * * * * * * * * * * * * * * * * * * * * * * * //

dimensions      [1 -1 -2 0 0 0 0];

internalField   nonuniform List<scalar> 
4176
(
1600.66
1600.85
1601.36
1601.99
1603.06
1604.08
1605.71
1607.1
1609.29
1611.08
1613.78
1616
1619.12
1621.89
1625.26
1628.76
1632.05
1636.69
1639.64
1645.64
1647.98
1655.61
1656.79
1665.53
1601.15
1601.34
1601.8
1602.41
1603.37
1604.37
1605.84
1607.21
1609.19
1610.93
1613.4
1615.53
1618.43
1621.03
1624.23
1627.47
1630.61
1634.89
1637.71
1643.27
1645.37
1652.82
1654.07
1663.84
1602.4
1602.59
1603.06
1603.69
1604.67
1605.68
1607.18
1608.58
1610.6
1612.37
1614.9
1617.06
1620.04
1622.67
1625.97
1629.24
1632.5
1636.88
1639.69
1645.4
1647.48
1654.82
1655.97
1665.43
1604.35
1604.54
1605
1605.61
1606.57
1607.56
1609.04
1610.4
1612.39
1614.1
1616.62
1618.7
1621.67
1624.2
1627.5
1630.67
1633.93
1638.32
1640.85
1646.73
1648.67
1655.91
1656.97
1665.83
1607.06
1607.25
1607.71
1608.32
1609.27
1610.27
1611.73
1613.1
1615.07
1616.8
1619.28
1621.38
1624.33
1626.86
1630.16
1633.28
1636.66
1640.87
1643.57
1649.36
1651.38
1658.57
1659.72
1668.56
1610.51
1610.7
1611.15
1611.76
1612.7
1613.69
1615.13
1616.49
1618.43
1620.15
1622.59
1624.68
1627.58
1630.09
1633.36
1636.42
1639.84
1643.85
1646.78
1652.31
1654.4
1661.51
1662.73
1671.66
1614.72
1614.91
1615.36
1615.96
1616.89
1617.88
1619.3
1620.65
1622.57
1624.28
1626.69
1628.76
1631.65
1634.12
1637.39
1640.39
1643.83
1647.71
1650.73
1656.11
1658.28
1665.29
1666.55
1675.37
1619.68
1619.87
1620.31
1620.91
1621.83
1622.81
1624.21
1625.55
1627.44
1629.13
1631.52
1633.57
1636.42
1638.87
1642.11
1645.05
1648.49
1652.25
1655.36
1660.56
1662.81
1669.7
1671
1679.72
1625.4
1625.59
1626.03
1626.62
1627.53
1628.5
1629.88
1631.21
1633.08
1634.75
1637.12
1639.13
1641.96
1644.37
1647.58
1650.47
1653.91
1657.55
1660.72
1665.75
1668.08
1674.84
1676.17
1684.77
1631.88
1632.07
1632.5
1633.09
1633.99
1634.94
1636.31
1637.62
1639.47
1641.12
1643.46
1645.45
1648.24
1650.61
1653.8
1656.63
1660.06
1663.59
1666.81
1671.67
1674.08
1680.65
1682.04
1690.51
1639.13
1639.32
1639.75
1640.33
1641.21
1642.16
1643.51
1644.8
1646.63
1648.26
1650.56
1652.52
1655.28
1657.6
1660.76
1663.53
1666.95
1670.37
1673.63
1678.33
1680.79
1687.21
1688.63
1696.95
1647.16
1647.34
1647.76
1648.34
1649.21
1650.14
1651.48
1652.75
1654.55
1656.16
1658.43
1660.36
1663.08
1665.36
1668.49
1671.19
1674.58
1677.91
1681.19
1685.73
1688.24
1694.48
1695.93
1704.11
1655.97
1656.15
1656.57
1657.13
1657.99
1658.91
1660.22
1661.48
1663.25
1664.83
1667.07
1668.96
1671.65
1673.88
1676.97
1679.61
1682.97
1686.2
1689.5
1693.87
1696.43
1702.5
1703.95
1711.98
1665.57
1665.75
1666.16
1666.72
1667.56
1668.47
1669.76
1670.99
1672.74
1674.28
1676.49
1678.34
1681
1683.17
1686.22
1688.79
1692.12
1695.25
1698.57
1702.77
1705.37
1711.26
1712.71
1720.58
1675.97
1676.15
1676.55
1677.1
1677.93
1678.82
1680.09
1681.3
1683.01
1684.53
1686.7
1688.51
1691.12
1693.25
1696.25
1698.75
1702.05
1705.08
1708.39
1712.43
1715.06
1720.77
1722.23
1729.91
1687.19
1687.37
1687.76
1688.3
1689.11
1689.98
1691.23
1692.41
1694.09
1695.57
1697.7
1699.47
1702.04
1704.11
1707.07
1709.5
1712.75
1715.68
1718.98
1722.85
1725.51
1731.02
1732.51
1740
1699.23
1699.4
1699.79
1700.32
1701.12
1701.97
1703.18
1704.34
1705.99
1707.43
1709.52
1711.24
1713.75
1715.77
1718.68
1721.03
1724.24
1727.07
1730.34
1734.05
1736.74
1742.04
1743.56
1750.85
1712.1
1712.28
1712.66
1713.17
1713.95
1714.78
1715.97
1717.09
1718.71
1720.11
1722.15
1723.82
1726.28
1728.23
1731.09
1733.36
1736.52
1739.25
1742.49
1746.04
1748.75
1753.84
1755.39
1762.47
1725.83
1726
1726.37
1726.87
1727.63
1728.44
1729.6
1730.69
1732.26
1733.62
1735.61
1737.23
1739.64
1741.52
1744.32
1746.51
1749.61
1752.23
1755.44
1758.82
1761.55
1766.43
1768
1774.86
1740.42
1740.58
1740.94
1741.44
1742.17
1742.96
1744.08
1745.14
1746.67
1747.98
1749.92
1751.48
1753.83
1755.64
1758.38
1760.48
1763.52
1766.04
1769.2
1772.41
1775.15
1779.82
1781.41
1788.05
1755.88
1756.05
1756.39
1756.87
1757.59
1758.34
1759.44
1760.46
1761.94
1763.2
1765.09
1766.59
1768.88
1770.61
1773.28
1775.29
1778.27
1780.67
1783.77
1786.83
1789.56
1794.02
1795.62
1802.03
1772.23
1772.4
1772.73
1773.19
1773.88
1774.61
1775.67
1776.65
1778.09
1779.3
1781.13
1782.56
1784.78
1786.44
1789.04
1790.96
1793.85
1796.14
1799.18
1802.08
1804.8
1809.04
1810.66
1816.83
1789.49
1789.65
1789.97
1790.42
1791.08
1791.78
1792.8
1793.74
1795.13
1796.28
1798.05
1799.42
1801.57
1803.15
1805.67
1807.49
1810.31
1812.47
1815.45
1818.19
1820.89
1824.89
1826.53
1832.45
1807.66
1807.82
1808.13
1808.56
1809.2
1809.86
1810.84
1811.73
1813.07
1814.17
1815.88
1817.17
1819.25
1820.74
1823.18
1824.9
1827.64
1829.68
1832.58
1835.16
1837.83
1841.6
1843.24
1848.91
1826.77
1826.92
1827.22
1827.63
1828.24
1828.87
1829.81
1830.65
1831.93
1832.97
1834.61
1835.83
1837.84
1839.24
1841.6
1843.21
1845.87
1847.78
1850.6
1853.01
1855.66
1859.19
1860.81
1866.22
1846.82
1846.97
1847.26
1847.64
1848.22
1848.82
1849.72
1850.51
1851.74
1852.71
1854.28
1855.42
1857.35
1858.66
1860.94
1862.44
1865.01
1866.79
1869.52
1871.77
1874.37
1877.66
1879.27
1884.4
1867.83
1867.98
1868.25
1868.62
1869.17
1869.73
1870.58
1871.33
1872.49
1873.4
1874.9
1875.96
1877.81
1879.02
1881.2
1882.6
1885.07
1886.72
1889.36
1891.44
1893.98
1897.04
1898.63
1903.51
1889.81
1889.96
1890.21
1890.56
1891.08
1891.62
1892.42
1893.11
1894.22
1895.06
1896.48
1897.46
1899.22
1900.33
1902.42
1903.7
1906.08
1907.59
1910.14
1912.05
1914.52
1917.33
1918.92
1923.51
1912.78
1912.92
1913.17
1913.5
1913.99
1914.48
1915.24
1915.88
1916.93
1917.7
1919.05
1919.94
1921.61
1922.62
1924.62
1925.77
1928.05
1929.42
1931.87
1933.61
1936
1938.56
1940.15
1944.42
1936.76
1936.9
1937.13
1937.44
1937.9
1938.36
1939.07
1939.66
1940.64
1941.34
1942.62
1943.42
1945
1945.9
1947.8
1948.83
1951
1952.22
1954.58
1956.14
1958.45
1960.75
1962.32
1966.3
1961.77
1961.9
1962.11
1962.4
1962.83
1963.25
1963.91
1964.45
1965.37
1966
1967.2
1967.91
1969.4
1970.2
1971.99
1972.89
1974.95
1976.02
1978.27
1979.66
1981.88
1983.93
1985.47
1989.15
1987.81
1987.93
1988.13
1988.4
1988.8
1989.18
1989.79
1990.27
1991.13
1991.69
1992.81
1993.43
1994.84
1995.52
1997.22
1997.98
1999.94
2000.85
2002.98
2004.19
2006.31
2008.13
2009.65
2012.99
2014.9
2015.03
2015.21
2015.45
2015.82
2016.16
2016.73
2017.15
2017.94
2018.43
2019.47
2020
2021.32
2021.89
2023.49
2024.12
2025.96
2026.72
2028.74
2029.76
2031.77
2033.36
2034.84
2037.85
2043.07
2043.19
2043.36
2043.58
2043.91
2044.22
2044.73
2045.1
2045.83
2046.24
2047.2
2047.64
2048.87
2049.33
2050.82
2051.32
2053.06
2053.65
2055.56
2056.39
2058.29
2059.63
2061.08
2063.75
2072.32
2072.44
2072.6
2072.8
2073.1
2073.36
2073.83
2074.14
2074.8
2075.14
2076.03
2076.37
2077.51
2077.85
2079.25
2079.61
2081.24
2081.67
2083.46
2084.1
2085.88
2086.98
2088.38
2090.7
2102.69
2102.8
2102.94
2103.12
2103.39
2103.62
2104.04
2104.29
2104.89
2105.15
2105.96
2106.21
2107.25
2107.48
2108.77
2109
2110.52
2110.79
2112.47
2112.91
2114.58
2115.44
2116.76
2118.73
2134.18
2134.29
2134.42
2134.58
2134.81
2135.01
2135.37
2135.58
2136.11
2136.3
2137.02
2137.18
2138.12
2138.24
2139.42
2139.51
2140.92
2141.02
2142.59
2142.84
2144.4
2145.02
2146.25
2147.87
2166.82
2166.93
2167.04
2167.18
2167.38
2167.54
2167.86
2168.01
2168.47
2168.59
2169.23
2169.29
2170.14
2170.14
2171.22
2171.16
2172.46
2172.4
2173.85
2173.9
2175.36
2175.74
2176.89
2178.14
2200.63
2200.73
2200.83
2200.95
2201.12
2201.24
2201.52
2201.61
2202.01
2202.05
2202.61
2202.58
2203.34
2203.22
2204.19
2203.99
2205.17
2204.93
2206.27
2206.12
2207.47
2207.61
2208.67
2209.56
2235.63
2235.73
2235.81
2235.91
2236.06
2236.14
2236.36
2236.4
2236.74
2236.7
2237.19
2237.06
2237.73
2237.48
2238.35
2238
2239.08
2238.66
2239.88
2239.51
2240.75
2240.65
2241.62
2242.19
2271.84
2271.94
2272.01
2272.09
2272.2
2272.24
2272.42
2272.4
2272.67
2272.57
2272.97
2272.75
2273.32
2272.96
2273.73
2273.23
2274.19
2273.59
2274.7
2274.11
2275.23
2274.87
2275.75
2276.02
2309.29
2309.39
2309.45
2309.51
2309.58
2309.59
2309.71
2309.64
2309.85
2309.67
2309.99
2309.67
2310.15
2309.67
2310.34
2309.69
2310.54
2309.75
2310.76
2309.94
2310.96
2310.32
2311.1
2311.05
2348.01
2348.1
2348.14
2348.18
2348.23
2348.19
2348.27
2348.14
2348.28
2348.02
2348.26
2347.85
2348.23
2347.63
2348.19
2347.39
2348.15
2347.17
2348.08
2347.01
2347.95
2347.02
2347.72
2347.3
2388.01
2388.1
2388.12
2388.14
2388.15
2388.08
2388.1
2387.91
2387.99
2387.65
2387.81
2387.3
2387.59
2386.86
2387.32
2386.37
2387.02
2385.85
2386.66
2385.36
2386.21
2384.98
2385.62
2384.83
2429.31
2429.4
2429.41
2429.41
2429.38
2429.27
2429.24
2428.99
2429
2428.58
2428.66
2428.04
2428.24
2427.39
2427.74
2426.63
2427.18
2425.81
2426.53
2424.99
2425.77
2424.24
2424.82
2423.67
2471.94
2472.03
2472.02
2472
2471.94
2471.79
2471.7
2471.4
2471.33
2470.84
2470.82
2470.11
2470.2
2469.23
2469.48
2468.21
2468.65
2467.09
2467.71
2465.92
2466.63
2464.79
2465.34
2463.79
2515.92
2516.01
2515.98
2515.94
2515.84
2515.65
2515.51
2515.15
2515.01
2514.43
2514.33
2513.51
2513.51
2512.4
2512.55
2511.12
2511.45
2509.69
2510.22
2508.17
2508.82
2506.65
2507.21
2505.22
2561.27
2561.35
2561.31
2561.24
2561.11
2560.88
2560.68
2560.26
2560.04
2559.39
2559.2
2558.28
2558.17
2556.93
2556.97
2555.38
2555.61
2553.63
2554.08
2551.76
2552.36
2549.82
2550.43
2548.01
2608
2608.08
2608.02
2607.93
2607.76
2607.49
2607.24
2606.75
2606.46
2605.72
2605.45
2604.42
2604.22
2602.84
2602.78
2601.01
2601.15
2598.95
2599.32
2596.71
2597.28
2594.37
2595
2592.16
2656.12
2656.2
2656.13
2656.01
2655.8
2655.49
2655.18
2654.64
2654.28
2653.45
2653.09
2651.95
2651.65
2650.14
2649.98
2648.03
2648.08
2645.65
2645.97
2643.05
2643.63
2640.3
2640.95
2637.7
2705.65
2705.72
2705.64
2705.5
2705.26
2704.9
2704.54
2703.93
2703.5
2702.59
2702.15
2700.89
2700.5
2698.84
2698.6
2696.46
2696.43
2693.75
2694.03
2690.76
2691.42
2687.64
2688.3
2684.65
2756.6
2756.67
2756.57
2756.41
2756.13
2755.73
2755.32
2754.65
2754.15
2753.15
2752.63
2751.26
2750.78
2748.97
2748.64
2746.3
2746.22
2743.27
2743.54
2739.92
2740.57
2736.45
2737.07
2733.03
2808.97
2809.04
2808.92
2808.74
2808.43
2807.99
2807.52
2806.79
2806.22
2805.14
2804.54
2803.05
2802.5
2800.52
2800.14
2797.57
2797.46
2794.2
2794.54
2790.52
2791.16
2786.71
2787.29
2782.87
2862.77
2862.83
2862.7
2862.5
2862.15
2861.68
2861.16
2860.37
2859.74
2858.57
2857.9
2856.28
2855.67
2853.52
2853.1
2850.28
2850.19
2846.61
2846.94
2842.62
2843.2
2838.45
2838.97
2834.18
2918
2918.06
2917.92
2917.7
2917.31
2916.81
2916.23
2915.39
2914.69
2913.43
2912.71
2910.95
2910.32
2907.94
2907.55
2904.44
2904.39
2900.48
2900.79
2896.22
2896.71
2891.68
2892.14
2886.98
2974.65
2974.72
2974.56
2974.32
2973.9
2973.37
2972.74
2971.84
2971.1
2969.73
2969
2967.05
2966.45
2963.81
2963.49
2960.07
2960.02
2955.9
2956.1
2951.32
2951.71
2946.41
2946.81
2941.29
3032.73
3032.8
3032.62
3032.38
3031.93
3031.37
3030.69
3029.73
3028.96
3027.47
3026.76
3024.59
3024.05
3021.19
3020.81
3017.25
3017.1
3012.82
3012.91
3007.92
3008.22
3002.65
3002.99
2997.13
3092.23
3092.32
3092.1
3091.88
3091.37
3090.81
3090.07
3089.04
3088.29
3086.65
3085.94
3083.65
3083.04
3080.07
3079.61
3075.92
3075.66
3071.23
3071.21
3066.04
3066.23
3060.42
3060.69
3054.49
3153.16
3153.24
3153.01
3152.79
3152.23
3151.68
3150.88
3149.83
3149.01
3147.32
3146.55
3144.19
3143.49
3140.44
3139.88
3136.08
3135.72
3131.14
3131.02
3125.66
3125.77
3119.71
3119.93
3113.4
3215.5
3215.59
3215.35
3215.11
3214.54
3213.95
3213.1
3212.08
3211.16
3209.44
3208.6
3206.18
3205.41
3202.27
3201.62
3197.73
3197.27
3192.56
3192.34
3186.81
3186.83
3180.53
3180.69
3173.85
3279.25
3279.34
3279.11
3278.85
3278.27
3277.66
3276.77
3275.76
3274.7
3273.05
3272.08
3269.63
3268.79
3265.58
3264.84
3260.86
3260.31
3255.47
3255.16
3249.46
3249.4
3242.89
3242.99
3235.84
3344.42
3344.51
3344.28
3344.01
3343.42
3342.8
3341.87
3340.86
3339.7
3338.1
3336.97
3334.57
3333.62
3330.35
3329.53
3325.47
3324.83
3319.88
3319.48
3313.63
3313.49
3306.77
3306.81
3299.37
3411.01
3411.11
3410.87
3410.59
3409.99
3409.36
3408.41
3407.38
3406.16
3404.58
3403.33
3400.97
3399.88
3396.59
3395.69
3391.56
3390.83
3385.77
3385.29
3379.29
3379.07
3372.16
3372.15
3364.44
3479.02
3479.12
3478.89
3478.61
3478
3477.35
3476.38
3475.34
3474.06
3472.5
3471.15
3468.81
3467.58
3464.31
3463.31
3459.1
3458.3
3453.13
3452.57
3446.44
3446.14
3439.04
3438.98
3431.02
3548.48
3548.58
3548.34
3548.06
3547.44
3546.79
3545.79
3544.74
3543.41
3541.85
3540.41
3538.08
3536.75
3533.46
3532.36
3528.08
3527.21
3521.94
3521.31
3515.05
3514.68
3507.41
3507.29
3499.1
3619.39
3619.5
3619.25
3618.97
3618.33
3617.67
3616.64
3615.58
3614.2
3612.65
3611.12
3608.78
3607.36
3604.03
3602.85
3598.51
3597.56
3592.19
3591.49
3585.1
3584.66
3577.23
3577.06
3568.65
3691.77
3691.89
3691.63
3691.35
3690.69
3690.02
3688.95
3687.87
3686.44
3684.87
3683.25
3680.91
3679.39
3676.02
3674.76
3670.34
3669.32
3663.86
3663.08
3656.57
3656.06
3648.49
3648.27
3639.65
3765.63
3765.76
3765.49
3765.2
3764.51
3763.82
3762.71
3761.6
3760.12
3758.52
3756.8
3754.45
3752.82
3749.41
3748.07
3743.56
3742.49
3736.91
3736.07
3729.45
3728.86
3721.16
3720.88
3712.08
3840.97
3841.1
3840.81
3840.51
3839.79
3839.07
3837.91
3836.76
3835.21
3833.58
3831.74
3829.39
3827.62
3824.2
3822.74
3818.15
3817.03
3811.35
3810.42
3803.7
3803.04
3795.22
3794.89
3785.93
3917.75
3917.89
3917.58
3917.26
3916.49
3915.73
3914.52
3913.31
3911.69
3910
3908.05
3905.7
3903.76
3900.36
3898.75
3894.12
3892.91
3887.13
3886.13
3879.33
3878.6
3870.66
3870.28
3861.18
3995.89
3996.03
3995.71
3995.36
3994.56
3993.75
3992.49
3991.21
3989.52
3987.77
3985.71
3983.34
3981.22
3977.87
3976.07
3971.45
3970.1
3964.26
3963.2
3956.32
3955.52
3947.49
3947.06
3937.83
4075.28
4075.42
4075.09
4074.7
4073.89
4073.02
4071.72
4070.39
4068.63
4066.81
4064.67
4062.28
4059.99
4056.69
4054.67
4050.13
4048.58
4042.75
4041.63
4034.68
4033.81
4025.72
4025.24
4015.9
4155.72
4155.86
4155.54
4155.14
4154.31
4153.42
4152.1
4150.73
4148.93
4147.08
4144.87
4142.47
4140.05
4136.81
4134.58
4130.15
4128.4
4122.61
4121.39
4114.41
4113.48
4105.35
4104.84
4095.42
4237.03
4237.17
4236.86
4236.47
4235.66
4234.78
4233.47
4232.11
4230.32
4228.48
4226.25
4223.86
4221.38
4218.2
4215.81
4211.51
4209.55
4203.89
4202.5
4195.57
4194.59
4186.42
4185.9
4176.42
4319
4319.16
4318.89
4318.53
4317.78
4316.95
4315.71
4314.41
4312.68
4310.91
4308.73
4306.41
4303.94
4300.85
4298.38
4294.23
4292.09
4286.59
4285.04
4278.17
4277.16
4268.97
4268.46
4258.94
4401.55
4401.73
4401.51
4401.21
4400.55
4399.82
4398.69
4397.52
4395.92
4394.28
4392.23
4390.05
4387.67
4384.73
4382.28
4378.31
4376.09
4370.78
4369.12
4362.26
4361.27
4353.04
4352.55
4343
4484.73
4484.94
4484.77
4484.56
4484
4483.41
4482.42
4481.42
4479.99
4478.55
4476.68
4474.72
4472.51
4469.79
4467.46
4463.72
4461.52
4456.45
4454.73
4448.02
4446.99
4438.7
4438.24
4428.62
4568.81
4569.05
4568.94
4568.82
4568.36
4567.9
4567.06
4566.24
4565.01
4563.78
4562.12
4560.41
4558.41
4555.96
4553.85
4550.37
4548.34
4543.53
4541.92
4535.36
4534.42
4526.07
4525.64
4515.86
4654.3
4654.59
4654.49
4654.46
4654.05
4653.72
4652.97
4652.32
4651.21
4650.19
4648.7
4647.24
4645.43
4643.23
4641.43
4638.11
4636.49
4631.76
4630.59
4624.09
4623.5
4615.18
4614.86
4604.95
4741.93
4742.29
4742.12
4742.22
4741.71
4741.55
4740.69
4740.25
4739.04
4738.25
4736.76
4735.48
4733.78
4731.74
4730.3
4726.8
4726.01
4720.82
4720.59
4713.85
4713.92
4705.74
4705.75
4696.21
4832.61
4832.94
4832.83
4832.79
4832.36
4832
4831.22
4830.54
4829.42
4828.43
4826.97
4825.63
4823.87
4822
4820.4
4817.08
4816.41
4811.29
4811.33
4804.69
4805.15
4797.1
4797.57
4788.67
4927.22
4927.52
4927.38
4927.23
4926.68
4926.14
4925.19
4924.29
4922.95
4921.71
4920.01
4918.42
4916.42
4914.42
4912.39
4909.36
4908.08
4903.25
4903.17
4896.47
4897.17
4888.95
4889.8
4880.98
5026.49
5026.77
5026.54
5026.26
5025.53
5024.75
5023.52
5022.29
5020.58
5018.93
5016.8
5014.76
5012.28
5009.84
5007.24
5003.98
5002.01
4997.2
4996.54
4989.57
4990.33
4981.63
4982.74
4973.54
5130.87
5131.17
5130.8
5130.42
5129.44
5128.43
5126.83
5125.25
5123.05
5120.93
5118.19
5115.58
5112.4
5109.31
5105.9
5102.01
5099.22
5093.74
5092.49
5084.69
5085.27
5075.7
5076.93
5066.91
5240.51
5240.85
5240.32
5239.87
5238.64
5237.43
5235.44
5233.58
5230.78
5228.35
5224.77
5221.75
5217.6
5213.83
5209.47
5204.63
5200.98
5194.09
5192.16
5183.01
5182.94
5172.06
5173.12
5161.74
5355.22
5355.51
5355
5354.34
5353.05
5351.54
5349.41
5347.09
5344.1
5341
5337.17
5333.3
5328.67
5324.03
5318.74
5313.21
5307.9
5300.36
5296.79
5286.31
5284.89
5272.15
5272.51
5258.96
5474.44
5474.71
5474.21
5473.45
5472.09
5470.42
5468.14
5465.59
5462.37
5458.95
5454.79
5450.48
5445.39
5440.16
5434.2
5427.96
5421.37
5413.63
5407.42
5396.83
5392.94
5378.33
5377.18
5360.36
5597.47
5597.72
5597.23
5596.44
5595.04
5593.32
5590.96
5588.32
5584.99
5581.42
5577.1
5572.57
5567.24
5561.71
5555.39
5548.73
5541.55
5533.39
5525.79
5515.3
5508.45
5493.69
5490
5469.3
5723.45
5723.71
5723.23
5722.46
5721.07
5719.36
5717.01
5714.38
5711.04
5707.47
5703.13
5698.59
5693.22
5687.66
5681.26
5674.55
5667.23
5658.99
5651.07
5640.67
5632.78
5618.61
5613
5590.48
5851.51
5851.8
5851.36
5850.63
5849.28
5847.64
5845.35
5842.8
5839.54
5836.08
5831.83
5827.43
5822.17
5816.76
5810.5
5803.98
5796.8
5788.79
5781.18
5770.85
5763.79
5749.48
5744.97
5724.33
5980.84
5981.16
5980.75
5980.08
5978.81
5977.27
5975.08
5972.67
5969.54
5966.26
5962.17
5957.99
5952.94
5947.81
5941.8
5935.61
5928.72
5921.14
5913.91
5904.06
5897.58
5883.84
5879.76
5860.55
6110.65
6111
6110.63
6110.05
6108.86
6107.44
6105.38
6103.14
6100.18
6097.12
6093.24
6089.35
6084.55
6079.76
6074.06
6068.27
6061.76
6054.69
6047.86
6038.65
6032.6
6019.75
6015.92
5998.03
6240.27
6240.68
6240.33
6239.85
6238.73
6237.47
6235.53
6233.5
6230.7
6227.93
6224.25
6220.71
6216.15
6211.78
6206.39
6201.07
6194.94
6188.44
6182.03
6173.44
6167.91
6155.96
6152.37
6135.79
6369.14
6369.59
6369.23
6368.91
6367.82
6366.77
6364.9
6363.16
6360.46
6358.07
6354.49
6351.44
6347.01
6343.21
6338.01
6333.29
6327.5
6321.6
6315.63
6307.72
6302.58
6291.62
6288.24
6273
6496.72
6497.21
6496.88
6496.68
6495.63
6494.8
6492.98
6491.56
6488.92
6486.96
6483.45
6480.95
6476.58
6473.46
6468.33
6464.39
6458.76
6453.54
6448.03
6440.77
6436.01
6426.07
6422.89
6408.99
6622.6
6623.1
6622.85
6622.67
6621.81
6620.99
6619.48
6618.09
6615.84
6613.95
6610.89
6608.54
6604.63
6601.78
6597.11
6593.59
6588.38
6583.82
6578.57
6572.11
6567.7
6558.78
6555.79
6543.22
6746.42
6746.91
6746.74
6746.58
6745.88
6745.14
6743.85
6742.56
6740.62
6738.86
6736.21
6733.99
6730.6
6727.92
6723.81
6720.58
6715.89
6711.84
6706.92
6701.39
6697.24
6689.29
6686.49
6675.21
6867.82
6868.33
6868.22
6868.11
6867.54
6866.89
6865.78
6864.64
6862.95
6861.37
6859.05
6857.04
6854.07
6851.65
6848.01
6845.12
6840.9
6837.36
6832.81
6828.19
6824.17
6817.2
6814.61
6804.6
6986.59
6987.1
6987.04
6986.98
6986.51
6985.97
6985.02
6984.04
6982.57
6981.19
6979.16
6977.4
6974.78
6972.65
6969.43
6966.91
6963.14
6960.09
6955.96
6952.04
6948.2
6942.28
6939.86
6931.08
7102.47
7102.98
7102.97
7102.96
7102.6
7102.15
7101.36
7100.53
7099.27
7098.09
7096.32
7094.81
7092.52
7090.69
7087.86
7085.7
7082.36
7079.77
7076.06
7072.79
7069.15
7064.23
7061.99
7054.4
7215.3
7215.81
7215.83
7215.89
7215.59
7215.27
7214.59
7213.93
7212.84
7211.88
7210.35
7209.09
7207.1
7205.57
7203.09
7201.29
7198.34
7196.19
7192.9
7190.21
7186.88
7182.9
7180.74
7174.31
7324.92
7325.43
7325.5
7325.57
7325.41
7325.11
7324.64
7324.06
7323.19
7322.39
7321.11
7320.08
7318.37
7317.13
7314.98
7313.52
7310.95
7309.22
7306.32
7304.15
7301.18
7298.05
7296.02
7290.65
7431.23
7431.74
7431.8
7432.01
7431.77
7431.75
7431.21
7430.92
7430.11
7429.55
7428.45
7427.67
7426.22
7425.25
7423.42
7422.28
7420.07
7418.73
7416.22
7414.53
7411.92
7409.53
7407.65
7403.25
7534.13
7534.62
7534.79
7534.86
7534.96
7534.69
7534.59
7534.16
7533.7
7533.19
7532.36
7531.75
7530.56
7529.85
7528.31
7527.48
7525.61
7524.64
7522.48
7521.26
7519.02
7517.23
7515.49
7512.06
7633.58
7634.07
7634.15
7634.52
7634.29
7634.58
7634.1
7634.19
7633.58
7633.42
7632.66
7632.31
7631.33
7630.86
7629.6
7629.06
7627.49
7626.88
7625.05
7624.26
7622.35
7621.13
7619.54
7617.02
7729.51
7729.97
7730.21
7730.31
7730.59
7730.4
7730.58
7730.28
7730.19
7729.92
7729.49
7729.24
7728.51
7728.26
7727.25
7726.98
7725.7
7725.41
7723.89
7723.49
7721.88
7721.16
7719.82
7718.1
7821.95
7822.43
7822.53
7822.99
7822.82
7823.3
7822.94
7823.32
7822.89
7823.07
7822.61
7822.64
7822.06
7822.03
7821.25
7821.24
7820.22
7820.23
7819
7818.97
7817.64
7817.38
7816.27
7815.29
7910.86
7911.29
7911.59
7911.71
7912.12
7912.02
7912.41
7912.25
7912.45
7912.4
7912.31
7912.37
7912.03
7912.18
7911.62
7911.84
7911.07
7911.36
7910.39
7910.71
7909.65
7909.83
7908.96
7908.6
7996.31
7996.77
7996.88
7997.41
7997.31
7997.92
7997.68
7998.27
7998.02
7998.48
7998.28
7998.62
7998.39
7998.73
7998.37
7998.8
7998.26
7998.8
7998.08
7998.72
7997.91
7998.51
7997.83
7998.05
8078.3
8078.69
8079.02
8079.17
8079.66
8079.66
8080.18
8080.19
8080.58
8080.74
8080.91
8081.25
8081.24
8081.72
8081.54
8082.16
8081.83
8082.61
8082.11
8083.04
8082.44
8083.42
8082.92
8083.67
8156.9
8157.33
8157.45
8158.01
8157.99
8158.67
8158.58
8159.29
8159.24
8159.87
8159.91
8160.5
8160.56
8161.21
8161.19
8161.99
8161.83
8162.83
8162.53
8163.72
8163.31
8164.64
8164.27
8165.51
8232.15
8232.51
8232.85
8233.04
8233.56
8233.68
8234.27
8234.45
8234.95
8235.33
8235.68
8236.26
8236.49
8237.25
8237.38
8238.34
8238.35
8239.54
8239.4
8240.84
8240.59
8242.23
8241.98
8243.65
8304.15
8304.55
8304.69
8305.25
8305.32
8306.02
8306.08
8306.83
8306.99
8307.72
8307.99
8308.76
8309.06
8309.95
8310.2
8311.3
8311.45
8312.81
8312.83
8314.48
8314.37
8316.29
8316.14
8318.2
8372.97
8373.29
8373.63
8373.86
8374.39
8374.62
8375.22
8375.58
8376.13
8376.7
8377.18
8377.96
8378.38
8379.37
8379.74
8380.96
8381.24
8382.75
8382.9
8384.74
8384.75
8386.92
8386.85
8389.25
8438.7
8439.05
8439.22
8439.75
8439.91
8440.59
8440.81
8441.56
8441.9
8442.7
8443.15
8444.05
8444.54
8445.62
8446.09
8447.42
8447.81
8449.45
8449.72
8451.72
8451.85
8454.23
8454.23
8456.94
8501.42
8501.72
8502.03
8502.32
8502.8
8503.17
8503.73
8504.25
8504.83
8505.55
8506.12
8507.06
8507.63
8508.79
8509.35
8510.78
8511.27
8513.03
8513.4
8515.54
8515.77
8518.34
8518.41
8521.36
8561.24
8561.55
8561.76
8562.22
8562.5
8563.11
8563.49
8564.21
8564.7
8565.54
8566.13
8567.14
8567.77
8569
8569.63
8571.15
8571.73
8573.58
8574.05
8576.32
8576.61
8579.34
8579.44
8582.73
8618.26
8618.53
8618.8
8619.15
8619.58
8620.06
8620.58
8621.23
8621.82
8622.66
8623.31
8624.36
8625.05
8626.34
8627.04
8628.62
8629.28
8631.23
8631.77
8634.15
8634.52
8637.39
8637.55
8641.02
8672.57
8672.83
8673.07
8673.48
8673.84
8674.4
8674.87
8675.59
8676.18
8677.07
8677.75
8678.84
8679.58
8680.92
8681.68
8683.33
8684.05
8686.07
8686.69
8689.16
8689.6
8692.6
8692.8
8696.42
8724.27
8724.52
8724.77
8725.14
8725.54
8726.08
8726.6
8727.31
8727.93
8728.84
8729.56
8730.69
8731.47
8732.85
8733.66
8735.36
8736.14
8738.22
8738.91
8741.46
8741.96
8745.07
8745.32
8749.06
8773.47
8773.71
8773.95
8774.33
8774.72
8775.27
8775.79
8776.52
8777.16
8778.1
8778.84
8780
8780.81
8782.23
8783.09
8784.83
8785.66
8787.79
8788.54
8791.15
8791.71
8794.91
8795.2
8799.06
8820.27
8820.49
8820.73
8821.1
8821.5
8822.05
8822.58
8823.32
8823.98
8824.93
8825.69
8826.87
8827.72
8829.17
8830.06
8831.84
8832.72
8834.89
8835.68
8838.35
8838.96
8842.23
8842.55
8846.53
8864.76
8864.97
8865.2
8865.58
8865.97
8866.53
8867.06
8867.81
8868.47
8869.44
8870.22
8871.42
8872.29
8873.77
8874.69
8876.49
8877.4
8879.61
8880.44
8883.15
8883.8
8887.13
8887.49
8891.56
8907.05
8907.24
8907.47
8907.84
8908.23
8908.79
8909.33
8910.09
8910.76
8911.74
8912.52
8913.75
8914.63
8916.13
8917.06
8918.9
8919.83
8922.07
8922.92
8925.67
8926.34
8929.71
8930.09
8934.23
8947.23
8947.41
8947.64
8948
8948.39
8948.95
8949.48
8950.25
8950.92
8951.91
8952.7
8953.94
8954.83
8956.35
8957.29
8959.15
8960.09
8962.36
8963.22
8966
8966.68
8970.09
8970.47
8974.64
8985.39
8985.57
8985.79
8986.14
8986.53
8987.08
8987.62
8988.39
8989.06
8990.06
8990.85
8992.1
8992.99
8994.53
8995.47
8997.35
8998.29
9000.59
9001.44
9004.26
9004.92
9008.37
9008.74
9012.92
9021.64
9021.8
9022.01
9022.36
9022.74
9023.3
9023.83
9024.6
9025.27
9026.27
9027.07
9028.32
9029.22
9030.76
9031.71
9033.6
9034.54
9036.85
9037.7
9040.53
9041.19
9044.65
9045.02
9049.2
9056.04
9056.19
9056.4
9056.75
9057.13
9057.68
9058.21
9058.97
9059.65
9060.65
9061.44
9062.7
9063.59
9065.14
9066.08
9067.98
9068.92
9071.24
9072.09
9074.93
9075.58
9079.05
9079.41
9083.6
9088.7
9088.84
9089.05
9089.39
9089.76
9090.31
9090.83
9091.6
9092.27
9093.26
9094.06
9095.31
9096.2
9097.75
9098.7
9100.59
9101.53
9103.85
9104.7
9107.54
9108.19
9111.65
9112.02
9116.2
9119.69
9119.83
9120.02
9120.36
9120.73
9121.27
9121.79
9122.55
9123.22
9124.21
9125
9126.25
9127.14
9128.69
9129.63
9131.52
9132.46
9134.77
9135.62
9138.45
9139.11
9142.56
9142.93
9147.1
9149.1
9149.22
9149.42
9149.75
9150.11
9150.65
9151.16
9151.92
9152.58
9153.57
9154.35
9155.6
9156.48
9158.02
9158.96
9160.85
9161.78
9164.09
9164.94
9167.75
9168.41
9171.85
9172.21
9176.37
9176.99
9177.11
9177.3
9177.62
9177.98
9178.51
9179.02
9179.77
9180.42
9181.41
9182.19
9183.43
9184.3
9185.84
9186.77
9188.65
9189.58
9191.87
9192.72
9195.52
9196.18
9199.6
9199.96
9204.1
9203.45
9203.56
9203.74
9204.06
9204.41
9204.94
9205.44
9206.19
9206.83
9207.82
9208.58
9209.82
9210.68
9212.22
9213.14
9215.01
9215.93
9218.21
9219.05
9221.84
9222.51
9225.87
9226.24
9230.36
9228.54
9228.64
9228.82
9229.14
9229.48
9230
9230.49
9231.24
9231.87
9232.85
9233.6
9234.84
9235.69
9237.22
9238.12
9239.99
9240.89
9243.16
9243.99
9246.75
9247.37
9250.82
9251.14
9255.22
9252.32
9252.42
9252.6
9252.91
9253.24
9253.76
9254.24
9254.99
9255.6
9256.59
9257.32
9258.56
9259.38
9260.91
9261.79
9263.66
9264.54
9266.81
9267.61
9270.36
9270.97
9274.38
9274.7
9278.74
9274.87
9274.97
9275.14
9275.44
9275.77
9276.29
9276.76
9277.5
9278.1
9279.08
9279.79
9281.03
9281.84
9283.36
9284.22
9286.08
9286.94
9289.2
9289.98
9292.72
9293.32
9296.69
9297
9301.01
9296.24
9296.33
9296.5
9296.8
9297.12
9297.63
9298.09
9298.83
9299.42
9300.39
9301.09
9302.33
9303.11
9304.64
9305.46
9307.33
9308.15
9310.41
9311.15
9313.9
9314.46
9317.8
9318.09
9322.07
9316.49
9316.58
9316.74
9317.04
9317.35
9317.86
9318.31
9319.04
9319.61
9320.59
9321.26
9322.5
9323.25
9324.79
9325.58
9327.45
9328.22
9330.5
9331.18
9333.96
9334.46
9337.79
9338.06
9341.99
9335.67
9335.76
9335.91
9336.21
9336.51
9337.02
9337.45
9338.19
9338.74
9339.72
9340.37
9341.62
9342.33
9343.88
9344.62
9346.51
9347.24
9349.53
9350.18
9352.91
9353.38
9356.7
9356.95
9360.83
9353.84
9353.93
9354.08
9354.37
9354.66
9355.17
9355.59
9356.32
9356.86
9357.84
9358.46
9359.71
9360.4
9361.95
9362.65
9364.56
9365.23
9367.53
9368.1
9370.9
9371.3
9374.6
9374.82
9378.65
9371.05
9371.13
9371.27
9371.57
9371.85
9372.36
9372.76
9373.5
9374.01
9374.99
9375.59
9376.84
9377.5
9379.05
9379.72
9381.63
9382.25
9384.58
9385.1
9387.88
9388.26
9391.53
9391.73
9395.52
9387.33
9387.41
9387.55
9387.84
9388.12
9388.62
9389.02
9389.75
9390.25
9391.23
9391.8
9393.05
9393.68
9395.24
9395.88
9397.79
9398.4
9400.67
9401.17
9403.95
9404.29
9407.54
9407.73
9411.48
9402.74
9402.82
9402.96
9403.25
9403.51
9404.02
9404.4
9405.13
9405.61
9406.59
9407.14
9408.4
9408.99
9410.55
9411.15
9413.07
9413.6
9415.95
9416.38
9419.15
9419.46
9422.68
9422.86
9426.56
9417.32
9417.4
9417.53
9417.82
9418.08
9418.58
9418.94
9419.68
9420.13
9421.13
9421.64
9422.92
9423.46
9425.05
9425.57
9427.55
9428.02
9430.36
9430.75
9433.51
9433.8
9436.99
9437.16
9440.81
9431.11
9431.18
9431.31
9431.6
9431.84
9432.35
9432.7
9433.44
9433.86
9434.87
9435.35
9436.65
9437.15
9438.75
9439.22
9441.21
9441.63
9443.98
9444.34
9447.08
9447.36
9450.51
9450.67
9454.26
9444.13
9444.21
9444.33
9444.62
9444.85
9445.37
9445.69
9446.45
9446.84
9447.87
9448.3
9449.61
9450.05
9451.71
9452.13
9454.11
9454.5
9456.84
9457.18
9459.9
9460.16
9463.27
9463.42
9466.97
9456.44
9456.51
9456.63
9456.92
9457.14
9457.67
9457.97
9458.73
9459.08
9460.14
9460.52
9461.87
9462.26
9463.92
9464.31
9466.29
9466.66
9468.98
9469.3
9471.99
9472.24
9475.32
9475.46
9478.96
9468.06
9468.13
9468.24
9468.53
9468.74
9469.27
9469.55
9470.33
9470.66
9471.71
9472.07
9473.42
9473.79
9475.44
9475.81
9477.78
9478.13
9480.43
9480.74
9483.4
9483.64
9486.68
9486.82
9490.27
9479.01
9479.09
9479.19
9479.49
9479.68
9480.22
9480.48
9481.26
9481.57
9482.63
9482.97
9484.31
9484.67
9486.3
9486.66
9488.61
9488.95
9491.23
9491.53
9494.16
9494.39
9497.39
9497.53
9500.93
9489.34
9489.41
9489.51
9489.81
9490
9490.53
9490.78
9491.56
9491.86
9492.91
9493.24
9494.57
9494.92
9496.54
9496.89
9498.82
9499.14
9501.4
9501.69
9504.29
9504.51
9507.48
9507.61
9510.97
9499.06
9499.14
9499.24
9499.53
9499.71
9500.24
9500.48
9501.26
9501.55
9502.59
9502.91
9504.23
9504.57
9506.17
9506.51
9508.42
9508.74
9510.97
9511.25
9513.82
9514.04
9516.97
9517.1
9520.42
9508.21
9508.28
9508.38
9508.67
9508.85
9509.37
9509.61
9510.38
9510.67
9511.69
9512.01
9513.31
9513.64
9515.23
9515.56
9517.45
9517.76
9519.97
9520.24
9522.79
9523
9525.9
9526.02
9529.3
9516.81
9516.87
9516.98
9517.25
9517.45
9517.95
9518.19
9518.94
9519.23
9520.25
9520.55
9521.85
9522.16
9523.74
9524.06
9525.93
9526.23
9528.42
9528.68
9531.2
9531.4
9534.27
9534.39
9537.63
9524.87
9524.94
9525.05
9525.3
9525.52
9525.98
9526.26
9526.96
9527.28
9528.26
9528.57
9529.85
9530.15
9531.72
9532.02
9533.89
9534.17
9536.34
9536.59
9539.08
9539.28
9542.12
9542.23
9545.43
9532.43
9532.49
9532.62
9532.85
9533.09
9533.51
9533.82
9534.48
9534.83
9535.76
9536.09
9537.32
9537.65
9539.19
9539.49
9541.33
9541.6
9543.75
9543.99
9546.46
9546.65
9549.46
9549.57
9552.73
9539.5
9539.56
9539.69