/*--------------------------------*- C++ -*----------------------------------*\
  =========                 |
  \\      /  F ield         | OpenFOAM: The Open Source CFD Toolbox
   \\    /   O peration     | Website:  https://openfoam.org
    \\  /    A nd           | Version:  10
     \\/     M anipulation  |
\*---------------------------------------------------------------------------*/
FoamFile
{
    format      ascii;
    class       surfaceScalarField;
    location    "0.21";
    object      phi;
}
// * * * * * * * * * * * * * * * * * * * * * * * * * * * * * * * * * * * * * //

dimensions      [1 0 -1 0 0 0 0];

internalField   nonuniform List<scalar> 
8154
(
-5.83844e-09
-2.21766e-08
-5.70337e-08
-9.21852e-08
-1.71946e-07
-2.26377e-07
-3.70336e-07
-4.54531e-07
-6.74784e-07
-8.14284e-07
-1.10446e-06
-1.33687e-06
-1.66722e-06
-2.02656e-06
-2.3609e-06
-2.86679e-06
-3.2561e-06
-3.98567e-06
-4.56588e-06
-5.51211e-06
-6.83351e-06
-7.23319e-06
-6.85673e-06
-0.000277444
-0.000832387
2.4023e-08
-0.0013875
9.62189e-08
-0.00194293
2.13207e-07
-0.00249873
3.77895e-07
-0.0030551
5.76962e-07
-0.00361211
8.23268e-07
-0.00416982
1.08809e-06
-0.00472856
1.39752e-06
-0.00528803
1.71057e-06
-0.00584891
2.05578e-06
-0.00641071
2.40255e-06
-0.00697392
2.74846e-06
-0.00753883
3.12115e-06
-0.00810434
3.43718e-06
-0.00867329
3.8506e-06
-0.00924044
4.12637e-06
-0.00981511
4.57433e-06
-0.0103835
4.92574e-06
-0.0109648
5.13998e-06
-0.011534
5.27819e-06
-0.0121238
5.11251e-06
-0.0126951
4.03004e-06
-0.0132932
2.44835e-06
-0.000277468
-0.000832459
2.6345e-08
-0.00138761
1.04798e-07
-0.00194309
2.34672e-07
-0.00249893
4.1012e-07
-0.00305534
6.35008e-07
-0.00361237
8.89451e-07
-0.00417012
1.19434e-06
-0.00472887
1.50085e-06
-0.00528837
1.86634e-06
-0.00584925
2.19022e-06
-0.00641105
2.59292e-06
-0.00697429
2.89295e-06
-0.00753914
3.29974e-06
-0.00810475
3.54033e-06
-0.00867356
3.90479e-06
-0.00924087
4.1054e-06
-0.00981545
4.39139e-06
-0.0103837
5.00386e-06
-0.0109649
4.66748e-06
-0.0115339
5.23079e-06
-0.0121227
5.32549e-06
-0.0126935
5.04268e-06
-0.0132907
4.22743e-06
-0.000277494
-0.000832537
2.12906e-08
-0.00138774
8.49451e-08
-0.00194326
1.88076e-07
-0.00249915
3.30563e-07
-0.00305559
5.01797e-07
-0.00361267
7.07308e-07
-0.00417043
9.224e-07
-0.00472924
1.16616e-06
-0.00528869
1.39335e-06
-0.00584965
1.64129e-06
-0.00641135
1.84581e-06
-0.00697469
2.04976e-06
-0.00753937
2.19793e-06
-0.00810511
2.2847e-06
-0.00867375
2.3542e-06
-0.00924115
2.20726e-06
-0.00981605
2.3453e-06
-0.0103834
1.90122e-06
-0.0109655
1.78347e-06
-0.0115339
1.39107e-06
-0.0121224
1.15093e-06
-0.0126927
7.19667e-07
-0.0132865
5.15256e-07
-0.000277515
-0.0008326
2.55323e-08
-0.00138784
1.01932e-07
-0.0019434
2.26105e-07
-0.00249932
3.97945e-07
-0.0030558
6.05649e-07
-0.00361289
8.55739e-07
-0.00417067
1.1193e-06
-0.00472946
1.42032e-06
-0.00528893
1.70173e-06
-0.00584985
2.01633e-06
-0.00641155
2.27163e-06
-0.00697483
2.54831e-06
-0.00753945
2.73411e-06
-0.00810517
2.8957e-06
-0.0086736
2.98551e-06
-0.00924128
2.89833e-06
-0.0098156
2.97665e-06
-0.0103833
2.28626e-06
-0.0109651
2.5202e-06
-0.0115337
1.72446e-06
-0.012122
1.20191e-06
-0.0126925
3.79367e-07
-0.013286
-1.71064e-07
-0.000277541
-0.000832675
3.36517e-08
-0.00138797
1.34318e-07
-0.00194358
2.99304e-07
-0.00249953
5.26686e-07
-0.00305605
8.08098e-07
-0.00361315
1.14189e-06
-0.00417097
1.51188e-06
-0.00472974
1.91892e-06
-0.00528924
2.33832e-06
-0.0058501
2.77283e-06
-0.00641182
3.19379e-06
-0.00697501
3.59602e-06
-0.00753961
3.96459e-06
-0.00810526
4.25912e-06
-0.00867351
4.52184e-06
-0.00924135
4.61527e-06
-0.0098149
4.73262e-06
-0.0103835
4.40373e-06
-0.0109643
4.36841e-06
-0.0115331
3.67191e-06
-0.0121211
3.2102e-06
-0.0126919
2.27025e-06
-0.0132862
1.35047e-06
-0.000277574
-0.000832775
3.75784e-08
-0.00138813
1.50002e-07
-0.0019438
3.34548e-07
-0.00249981
5.88793e-07
-0.00305638
9.04645e-07
-0.00361352
1.27871e-06
-0.00417137
1.69622e-06
-0.00473015
2.15377e-06
-0.00528967
2.6303e-06
-0.00585052
3.12055e-06
-0.00641222
3.60218e-06
-0.00697537
4.05837e-06
-0.0075399
4.48219e-06
-0.00810552
4.82184e-06
-0.00867359
5.12338e-06
-0.00924146
5.24941e-06
-0.00981456
5.37079e-06
-0.0103835
5.08494e-06
-0.0109636
4.96734e-06
-0.0115327
4.2146e-06
-0.0121202
3.681e-06
-0.012691
2.64003e-06
-0.0132848
1.6144e-06
-0.000277611
-0.000832887
4.14146e-08
-0.00138831
1.65329e-07
-0.00194405
3.68864e-07
-0.00250012
6.49342e-07
-0.00305675
9.9823e-07
-0.00361393
1.41171e-06
-0.00417183
1.8742e-06
-0.00473063
2.38181e-06
-0.00529016
2.9118e-06
-0.00585099
3.45869e-06
-0.00641267
3.99644e-06
-0.00697579
4.50937e-06
-0.00754024
4.98308e-06
-0.00810582
5.37113e-06
-0.00867371
5.70641e-06
-0.00924157
5.8618e-06
-0.00981427
5.99784e-06
-0.0103834
5.72053e-06
-0.0109628
5.5944e-06
-0.0115321
4.80968e-06
-0.0121192
4.21202e-06
-0.0126899
2.99179e-06
-0.0132832
1.79476e-06
-0.000277653
-0.00083301
4.51108e-08
-0.00138852
1.80077e-07
-0.00194433
4.01847e-07
-0.00250047
7.07341e-07
-0.00305716
1.08773e-06
-0.00361439
1.53832e-06
-0.00417233
2.04343e-06
-0.00473116
2.59756e-06
-0.0052907
3.17831e-06
-0.00585153
3.77748e-06
-0.00641318
4.36933e-06
-0.00697626
4.93441e-06
-0.00754062
5.45728e-06
-0.00810615
5.88902e-06
-0.00867386
6.25717e-06
-0.0092417
6.44043e-06
-0.00981398
6.58153e-06
-0.0103832
6.32984e-06
-0.010962
6.16934e-06
-0.0115315
5.37107e-06
-0.0121179
4.8498e-06
-0.0126887
3.36161e-06
-0.0132814
2.01104e-06
-0.000277698
-0.000833145
4.87555e-08
-0.00138874
1.94609e-07
-0.00194464
4.34295e-07
-0.00250085
7.64305e-07
-0.00305761
1.17536e-06
-0.00361489
1.66197e-06
-0.00417289
2.20801e-06
-0.00473173
2.80679e-06
-0.0052913
3.43563e-06
-0.00585211
4.0847e-06
-0.00641374
4.72768e-06
-0.00697678
5.34303e-06
-0.00754105
5.91295e-06
-0.00810652
6.38731e-06
-0.00867404
6.78699e-06
-0.00924183
6.99555e-06
-0.00981372
7.13714e-06
-0.0103831
6.90461e-06
-0.0109612
6.72037e-06
-0.011531
5.87776e-06
-0.0121165
4.88845e-06
-0.0126874
3.68256e-06
-0.0132794
2.20342e-06
-0.000277746
-0.00083329
5.23473e-08
-0.00138898
2.08927e-07
-0.00194497
4.66246e-07
-0.00250126
8.20351e-07
-0.00305809
1.26145e-06
-0.00361544
1.78318e-06
-0.00417348
2.36884e-06
-0.00473236
3.0105e-06
-0.00529194
3.68504e-06
-0.00585275
4.38125e-06
-0.00641435
5.07216e-06
-0.00697735
5.73479e-06
-0.00754152
6.34922e-06
-0.00810691
6.86446e-06
-0.00867425
7.29508e-06
-0.00924197
7.52705e-06
-0.00981348
7.66765e-06
-0.0103829
7.4508e-06
-0.0109604
7.25119e-06
-0.0115303
6.39991e-06
-0.012115
5.58535e-06
-0.0126859
4.03848e-06
-0.0132772
2.40668e-06
-0.000277798
-0.000833446
5.59015e-08
-0.00138923
2.23098e-07
-0.00194532
4.97882e-07
-0.00250169
8.75873e-07
-0.00305861
1.34672e-06
-0.00361602
1.9032e-06
-0.00417412
2.52782e-06
-0.00473303
3.21141e-06
-0.00529264
3.93004e-06
-0.00585344
4.67127e-06
-0.00641501
5.40722e-06
-0.00697796
6.11406e-06
-0.00754203
6.76982e-06
-0.00810734
7.32361e-06
-0.00867447
7.78436e-06
-0.0092421
8.04097e-06
-0.00981325
8.18797e-06
-0.0103827
7.97306e-06
-0.0109595
7.74423e-06
-0.0115294
6.85811e-06
-0.0121135
6.00825e-06
-0.0126842
4.35602e-06
-0.0132748
2.58922e-06
-0.000277854
-0.000833613
5.94112e-08
-0.00138951
2.371e-07
-0.0019457
5.29171e-07
-0.00250216
9.30855e-07
-0.00305917
1.43126e-06
-0.00361665
2.0223e-06
-0.0041748
2.6856e-06
-0.00473375
3.41066e-06
-0.00529337
4.17247e-06
-0.00585417
4.95724e-06
-0.00641571
5.73589e-06
-0.00697861
6.48394e-06
-0.00754258
7.17743e-06
-0.0081078
7.76621e-06
-0.00867473
8.25423e-06
-0.00924224
8.53384e-06
-0.00981303
8.68765e-06
-0.0103824
8.47053e-06
-0.0109586
8.20758e-06
-0.0115285
7.28404e-06
-0.0121118
6.37347e-06
-0.0126824
4.65143e-06
-0.0132722
2.7606e-06
-0.000277913
-0.00083379
6.28769e-08
-0.0013898
2.50932e-07
-0.0019461
5.60107e-07
-0.00250266
9.8529e-07
-0.00305976
1.51507e-06
-0.00361731
2.14058e-06
-0.00417553
2.84247e-06
-0.00473451
3.60892e-06
-0.00529416
4.41362e-06
-0.00585495
5.24125e-06
-0.00641646
6.0612e-06
-0.0069793
6.84824e-06
-0.00754316
7.57624e-06
-0.00810828
8.19625e-06
-0.008675
8.70783e-06
-0.00924239
9.00726e-06
-0.00981281
9.16549e-06
-0.0103822
8.94894e-06
-0.0109577
8.64622e-06
-0.0115276
7.67685e-06
-0.0121101
6.70545e-06
-0.0126805
4.89551e-06
-0.0132694
2.90846e-06
-0.000277976
-0.000833977
6.63016e-08
-0.00139011
2.64599e-07
-0.00194652
5.90681e-07
-0.00250319
1.03912e-06
-0.00306038
1.59801e-06
-0.00361801
2.25775e-06
-0.00417629
2.99807e-06
-0.00473531
3.80587e-06
-0.00529498
4.65342e-06
-0.00585576
5.5238e-06
-0.00641724
6.38454e-06
-0.00698002
7.20935e-06
-0.00754378
7.96964e-06
-0.00810879
8.61752e-06
-0.0086753
9.14859e-06
-0.00924254
9.46378e-06
-0.00981258
9.62474e-06
-0.0103819
9.41062e-06
-0.0109567
9.06601e-06
-0.0115266
8.05189e-06
-0.0121083
7.00959e-06
-0.0126785
5.05546e-06
-0.0132665
3.03528e-06
-0.000278042
-0.000834175
6.96933e-08
-0.00139043
2.78126e-07
-0.00194697
6.20915e-07
-0.00250375
1.09231e-06
-0.00306104
1.67992e-06
-0.00361874
2.37344e-06
-0.0041771
3.15176e-06
-0.00473616
4.00059e-06
-0.00529585
4.89083e-06
-0.00585662
5.80398e-06
-0.00641806
6.70558e-06
-0.00698078
7.56799e-06
-0.00754442
8.35979e-06
-0.00810932
9.03356e-06
-0.00867561
9.58067e-06
-0.0092427
9.90667e-06
-0.00981236
1.00663e-05
-0.0103815
9.85216e-06
-0.0109557
9.4666e-06
-0.0115256
8.41383e-06
-0.0121063
7.30854e-06
-0.0126765
5.27721e-06
-0.0132635
3.16797e-06
-0.000278112
-0.000834383
7.30554e-08
-0.00139077
2.91526e-07
-0.00194744
6.50818e-07
-0.00250433
1.14481e-06
-0.00306173
1.7606e-06
-0.00361952
2.48721e-06
-0.00417794
3.30269e-06
-0.00473705
4.19175e-06
-0.00529676
5.12405e-06
-0.00585752
6.07965e-06
-0.00641892
7.02221e-06
-0.00698157
7.92257e-06
-0.00754509
8.74634e-06
-0.00810986
9.44589e-06
-0.00867593
1.00079e-05
-0.00924285
1.03413e-05
-0.00981214
1.0493e-05
-0.0103811
1.0266e-05
-0.0109547
9.84637e-06
-0.0115245
8.7563e-06
-0.0121043
7.58937e-06
-0.0126744
5.49526e-06
-0.0132603
3.29132e-06
-0.000278185
-0.000834601
7.63789e-08
-0.00139113
3.04758e-07
-0.00194793
6.80288e-07
-0.00250495
1.19642e-06
-0.00306246
1.83967e-06
-0.00362033
2.59838e-06
-0.00417883
3.44981e-06
-0.00473798
4.37775e-06
-0.00529771
5.35079e-06
-0.00585846
6.34783e-06
-0.00641982
7.33084e-06
-0.00698239
8.26928e-06
-0.00754579
9.12591e-06
-0.00811042
9.85236e-06
-0.00867626
1.04305e-05
-0.009243
1.07716e-05
-0.00981191
1.0914e-05
-0.0103807
1.06704e-05
-0.0109536
1.02158e-05
-0.0115233
9.0893e-06
-0.0121022
7.86016e-06
-0.0126722
5.69549e-06
-0.013257
3.40627e-06
-0.000278261
-0.000834829
7.96381e-08
-0.00139151
3.17719e-07
-0.00194844
7.09107e-07
-0.00250559
1.24678e-06
-0.00306321
1.91662e-06
-0.00362118
2.70623e-06
-0.00417976
3.59206e-06
-0.00473895
4.5571e-06
-0.00529871
5.56895e-06
-0.00585944
6.60561e-06
-0.00642075
7.62768e-06
-0.00698325
8.60353e-06
-0.00754651
9.4934e-06
-0.00811099
1.0248e-05
-0.0086766
1.08446e-05
-0.00924314
1.11955e-05
-0.00981166
1.13306e-05
-0.0103802
1.10724e-05
-0.0109525
1.05788e-05
-0.0115221
9.41888e-06
-0.0121
8.12744e-06
-0.0126699
5.88978e-06
-0.0132536
3.51548e-06
-0.000278341
-0.000835067
8.2775e-08
-0.0013919
3.30189e-07
-0.00194898
7.36815e-07
-0.00250626
1.29514e-06
-0.003064
1.99041e-06
-0.00362207
2.80945e-06
-0.00418072
3.72787e-06
-0.00473996
4.72785e-06
-0.00529974
5.77607e-06
-0.00586046
6.84981e-06
-0.00642173
7.90857e-06
-0.00698414
8.91998e-06
-0.00754726
9.84228e-06
-0.00811158
1.06256e-05
-0.00867695
1.12428e-05
-0.00924327
1.16064e-05
-0.0098114
1.17382e-05
-0.0103797
1.1468e-05
-0.0109513
1.09352e-05
-0.0115208
9.74835e-06
-0.0120977
8.39711e-06
-0.0126675
6.08357e-06
-0.0132501
3.6221e-06
-0.000278423
-0.000835314
8.57123e-08
-0.0013923
3.4187e-07
-0.00194954
7.62787e-07
-0.00250695
1.34051e-06
-0.00306482
2.05966e-06
-0.00362298
2.90634e-06
-0.00418172
3.85526e-06
-0.00474101
4.88777e-06
-0.00530081
5.96964e-06
-0.00586152
7.07744e-06
-0.00642273
8.16975e-06
-0.00698506
9.21373e-06
-0.00754804
1.01662e-05
-0.00811219
1.09769e-05
-0.00867731
1.16155e-05
-0.00924339
1.19947e-05
-0.00981112
1.21283e-05
-0.0103792
1.18508e-05
-0.0109501
1.12829e-05
-0.0115194
1.00773e-05
-0.0120954
8.6709e-06
-0.012665
6.28318e-06
-0.0132464
3.73048e-06
-0.000278509
-0.00083557
8.8361e-08
-0.00139272
3.52415e-07
-0.00195011
7.8628e-07
-0.00250767
1.38166e-06
-0.00306566
2.12265e-06
-0.00362393
2.99468e-06
-0.00418275
3.97164e-06
-0.00474209
5.03403e-06
-0.00530192
6.1466e-06
-0.00586261
7.28522e-06
-0.00642378
8.40751e-06
-0.00698601
9.48032e-06
-0.00754885
1.04593e-05
-0.00811282
1.12945e-05
-0.00867769
1.1953e-05
-0.00924352
1.23483e-05
-0.00981084
1.24878e-05
-0.0103786
1.22106e-05
-0.0109489
1.16222e-05
-0.011518
1.03979e-05
-0.012093
8.941e-06
-0.0126625
6.4893e-06
-0.0132427
3.84328e-06
-0.000278597
-0.000835834
9.06345e-08
-0.00139316
3.61483e-07
-0.00195071
8.06544e-07
-0.00250841
1.4173e-06
-0.00306653
2.17747e-06
-0.00362491
3.07195e-06
-0.00418381
4.07393e-06
-0.0047432
5.16309e-06
-0.00530306
6.30317e-06
-0.00586373
7.46918e-06
-0.00642485
8.61775e-06
-0.00698699
9.7153e-06
-0.00754968
1.07165e-05
-0.00811347
1.15719e-05
-0.00867808
1.22466e-05
-0.00924366
1.26555e-05
-0.00981056
1.28012e-05
-0.010378
1.25282e-05
-0.0109477
1.19307e-05
-0.0115166
1.0689e-05
-0.0120906
9.18912e-06
-0.0126598
6.69159e-06
-0.0132388
3.95687e-06
-0.000278688
-0.000836104
9.24623e-08
-0.0013936
3.68788e-07
-0.00195132
8.22927e-07
-0.00250917
1.44626e-06
-0.00306743
2.22228e-06
-0.00362591
3.13556e-06
-0.0041849
4.15875e-06
-0.00474434
5.27087e-06
-0.00530422
6.43471e-06
-0.00586487
7.62439e-06
-0.00642594
8.79542e-06
-0.00698799
9.91359e-06
-0.00755054
1.09326e-05
-0.00811414
1.18032e-05
-0.00867849
1.24893e-05
-0.0092438
1.29074e-05
-0.00981028
1.30562e-05
-0.0103774
1.27857e-05
-0.0109464
1.21787e-05
-0.0115151
1.09275e-05
-0.0120881
9.38996e-06
-0.0126571
6.86432e-06
-0.0132349
4.05446e-06
-0.00027878
-0.00083638
9.37961e-08
-0.00139405
3.74128e-07
-0.00195194
8.34941e-07
-0.00250994
1.4676e-06
-0.00306834
2.2555e-06
-0.00362693
3.18311e-06
-0.00418601
4.22275e-06
-0.0047455
5.35303e-06
-0.00530541
6.53597e-06
-0.00586604
7.74494e-06
-0.00642706
8.93422e-06
-0.006989
1.00689e-05
-0.00755141
1.11013e-05
-0.00811482
1.19824e-05
-0.00867891
1.26748e-05
-0.00924394
1.30967e-05
-0.00981001
1.3244e-05
-0.0103768
1.29724e-05
-0.0109452
1.23542e-05
-0.0115135
1.10973e-05
-0.0120855
9.51868e-06
-0.0126542
6.96378e-06
-0.0132308
4.10345e-06
-0.000278874
-0.00083666
9.46238e-08
-0.00139451
3.77444e-07
-0.00195257
8.42415e-07
-0.00251073
1.48092e-06
-0.00306926
2.27637e-06
-0.00362797
3.21325e-06
-0.00418714
4.26377e-06
-0.00474668
5.40653e-06
-0.00530661
6.60293e-06
-0.00586723
7.82608e-06
-0.00642819
9.02881e-06
-0.00699003
1.0176e-05
-0.00755228
1.12178e-05
-0.0081155
1.21059e-05
-0.00867933
1.27996e-05
-0.00924408
1.32212e-05
-0.00980973
1.33611e-05
-0.0103762
1.30842e-05
-0.0109439
1.24527e-05
-0.011512
1.11936e-05
-0.012083
9.56346e-06
-0.0126513
6.95536e-06
-0.0132268
4.08074e-06
-0.000278968
-0.000836943
9.53255e-08
-0.00139498
3.80247e-07
-0.00195321
8.48716e-07
-0.00251153
1.49212e-06
-0.0030702
2.29392e-06
-0.00362902
3.23872e-06
-0.00418828
4.29882e-06
-0.00474788
5.45301e-06
-0.00530784
6.66254e-06
-0.00586843
7.90049e-06
-0.00642934
9.11893e-06
-0.00699107
1.02822e-05
-0.00755317
1.1339e-05
-0.00811619
1.22406e-05
-0.00867976
1.29438e-05
-0.00924422
1.33725e-05
-0.00980945
1.35134e-05
-0.0103755
1.32377e-05
-0.0109427
1.26008e-05
-0.0115103
1.13444e-05
-0.0120804
9.6845e-06
-0.0126484
7.05338e-06
-0.0132227
4.18897e-06
-0.000279064
-0.000837227
9.56328e-08
-0.00139545
3.81467e-07
-0.00195385
8.51432e-07
-0.00251233
1.49691e-06
-0.00307114
2.3014e-06
-0.00363008
3.24965e-06
-0.00418943
4.31418e-06
-0.00474908
5.47414e-06
-0.00530907
6.69103e-06
-0.00586965
7.93817e-06
-0.0064305
9.16761e-06
-0.00699213
1.03433e-05
-0.00755407
1.14135e-05
-0.00811689
1.23278e-05
-0.00868018
1.30419e-05
-0.00924435
1.34788e-05
-0.00980917
1.36229e-05
-0.0103749
1.33484e-05
-0.0109414
1.2706e-05
-0.0115087
1.14473e-05
-0.0120777
9.77576e-06
-0.0126455
7.14351e-06
-0.0132185
4.39594e-06
-0.000279159
-0.000837513
9.54349e-08
-0.00139592
3.80662e-07
-0.0019545
8.49591e-07
-0.00251313
1.49359e-06
-0.00307209
2.2962e-06
-0.00363114
3.24231e-06
-0.00419059
4.30469e-06
-0.0047503
5.46295e-06
-0.00531032
6.679e-06
-0.00587088
7.92679e-06
-0.00643167
9.15875e-06
-0.00699319
1.03393e-05
-0.00755498
1.14164e-05
-0.0081176
1.23391e-05
-0.00868062
1.30616e-05
-0.00924449
1.35058e-05
-0.00980889
1.36531e-05
-0.0103742
1.33791e-05
-0.0109401
1.27298e-05
-0.011507
1.14725e-05
-0.0120751
9.79571e-06
-0.0126427
7.14562e-06
-0.0132142
4.01619e-06
-0.000279254
-0.000837797
9.4768e-08
-0.00139638
3.77988e-07
-0.00195514
8.43577e-07
-0.00251393
1.48292e-06
-0.00307303
2.27964e-06
-0.0036322
3.21877e-06
-0.00419175
4.27336e-06
-0.00475151
5.42345e-06
-0.00531156
6.6314e-06
-0.00587211
7.87195e-06
-0.00643285
9.09823e-06
-0.00699427
1.02756e-05
-0.0075559
1.13526e-05
-0.00811831
1.22787e-05
-0.00868107
1.30071e-05
-0.00924463
1.34589e-05
-0.00980861
1.36123e-05
-0.0103736
1.33422e-05
-0.0109389
1.26883e-05
-0.0115054
1.14313e-05
-0.0120724
9.75212e-06
-0.0126399
7.13859e-06
-0.0132099
3.9668e-06
-0.000279349
-0.00083808
9.3658e-08
-0.00139685
3.73556e-07
-0.00195578
8.33675e-07
-0.00251473
1.4655e-06
-0.00307397
2.25279e-06
-0.00363325
3.18083e-06
-0.0041929
4.22292e-06
-0.00475272
5.35956e-06
-0.0053128
6.55348e-06
-0.00587333
7.78017e-06
-0.00643402
8.99351e-06
-0.00699534
1.01602e-05
-0.00755682
1.12296e-05
-0.00811904
1.21526e-05
-0.00868152
1.28828e-05
-0.00924478
1.33417e-05
-0.00980834
1.3505e-05
-0.0103729
1.32466e-05
-0.0109376
1.25987e-05
-0.0115037
1.13451e-05
-0.0120698
9.65003e-06
-0.0126369
7.09693e-06
-0.0132057
4.1899e-06
-0.000279443
-0.00083836
9.21308e-08
-0.00139731
3.67476e-07
-0.00195641
8.20148e-07
-0.00251551
1.44183e-06
-0.0030749
2.21655e-06
-0.0036343
3.12995e-06
-0.00419403
4.15568e-06
-0.00475391
5.27471e-06
-0.00531403
6.4501e-06
-0.00587454
7.65796e-06
-0.00643519
8.85273e-06
-0.00699641
1.00023e-05
-0.00755775
1.1057e-05
-0.00811976
1.197e-05
-0.00868198
1.26958e-05
-0.00924494
1.31582e-05
-0.00980809
1.33327e-05
-0.0103722
1.30926e-05
-0.0109364
1.24651e-05
-0.011502
1.12338e-05
-0.0120673
9.54425e-06
-0.0126339
7.01666e-06
-0.0132016
4.17011e-06
-0.000279535
-0.000838635
9.02256e-08
-0.00139776
3.59902e-07
-0.00195703
8.03334e-07
-0.00251629
1.4125e-06
-0.00307581
2.17184e-06
-0.00363532
3.06748e-06
-0.00419515
4.0736e-06
-0.00475509
5.1717e-06
-0.00531524
6.32526e-06
-0.00587573
7.51091e-06
-0.00643634
8.68342e-06
-0.00699746
9.81164e-06
-0.00755866
1.08464e-05
-0.00812049
1.17431e-05
-0.00868244
1.24576e-05
-0.00924511
1.29174e-05
-0.00980785
1.30991e-05
-0.0103716
1.28781e-05
-0.0109352
1.22796e-05
-0.0115003
1.10875e-05
-0.0120647
9.43492e-06
-0.0126311
6.93817e-06
-0.0131974
4.12269e-06
-0.000279625
-0.000838904
8.79996e-08
-0.0013982
3.51058e-07
-0.00195764
7.83712e-07
-0.00251705
1.3783e-06
-0.00307671
2.1198e-06
-0.00363633
2.99493e-06
-0.00419625
3.97856e-06
-0.00475624
5.05291e-06
-0.00531642
6.18207e-06
-0.0058769
7.34323e-06
-0.00643746
8.49143e-06
-0.00699849
9.59615e-06
-0.00755955
1.06082e-05
-0.0081212
1.14849e-05
-0.0086829
1.21828e-05
-0.00924529
1.26334e-05
-0.00980763
1.28151e-05
-0.010371
1.26082e-05
-0.010934
1.20387e-05
-0.0114986
1.08935e-05
-0.0120622
9.2909e-06
-0.0126283
6.8575e-06
-0.0131932
4.06807e-06
-0.000279713
-0.000839167
8.55266e-08
-0.00139864
3.41229e-07
-0.00195823
7.61895e-07
-0.00251779
1.34026e-06
-0.00307758
2.06186e-06
-0.00363731
2.91411e-06
-0.00419732
3.87268e-06
-0.00475737
4.9207e-06
-0.00531758
6.02314e-06
-0.00587805
7.15794e-06
-0.00643857
8.28056e-06
-0.0069995
9.36108e-06
-0.00756043
1.035e-05
-0.0081219
1.1206e-05
-0.00868335
1.18855e-05
-0.00924547
1.23228e-05
-0.00980743
1.24976e-05
-0.0103704
1.22963e-05
-0.0109328
1.17483e-05
-0.011497
1.06476e-05
-0.0120598
9.10883e-06
-0.0126255
6.77559e-06
-0.0131892
4.00823e-06
-0.000279798
-0.000839422
8.28881e-08
-0.00139906
3.30737e-07
-0.00195881
7.38579e-07
-0.00251851
1.29954e-06
-0.00307843
1.9997e-06
-0.00363827
2.82715e-06
-0.00419837
3.75845e-06
-0.00475847
4.77772e-06
-0.00531871
5.8511e-06
-0.00587917
6.95751e-06
-0.00643964
8.05318e-06
-0.00700049
9.10905e-06
-0.00756128
1.00756e-05
-0.00812257
1.09124e-05
-0.00868378
1.15752e-05
-0.00924564
1.19999e-05
-0.00980723
1.21653e-05
-0.0103699
1.19631e-05
-0.0109317
1.14243e-05
-0.0114955
1.03541e-05
-0.0120574
8.8741e-06
-0.0126227
6.6492e-06
-0.0131852
3.93158e-06
-0.000279881
-0.00083967
8.01602e-08
-0.00139946
3.19882e-07
-0.00195937
7.14426e-07
-0.00251921
1.25726e-06
-0.00307926
1.93498e-06
-0.0036392
2.7363e-06
-0.00419939
3.63857e-06
-0.00475954
4.627e-06
-0.00531982
5.66895e-06
-0.00588026
6.74459e-06
-0.0064407
7.81124e-06
-0.00700146
8.84116e-06
-0.00756212
9.78531e-06
-0.00812324
1.06047e-05
-0.0086842
1.12544e-05
-0.0092458
1.1671e-05
-0.00980702
1.18309e-05
-0.0103693
1.16285e-05
-0.0109307
1.10934e-05
-0.011494
1.00394e-05
-0.0120552
8.59137e-06
-0.01262
6.42202e-06
-0.0131812
3.82109e-06
-0.000279961
-0.000839909
7.74003e-08
-0.00139986
3.08894e-07
-0.00195991
6.89953e-07
-0.00251988
1.21435e-06
-0.00308006
1.86911e-06
-0.0036401
2.64349e-06
-0.00420037
3.51556e-06
-0.00476058
4.47151e-06
-0.00532089
5.47989e-06
-0.00588133
6.52219e-06
-0.00644173
7.5571e-06
-0.0070024
8.55849e-06
-0.00756294
9.47861e-06
-0.00812388
1.02804e-05
-0.00868462
1.09196e-05
-0.00924596
1.13326e-05
-0.00980681
1.14947e-05
-0.0103688
1.12996e-05
-0.0109296
1.0775e-05
-0.0114926
9.73783e-06
-0.012053
8.31218e-06
-0.0126174
6.19027e-06
-0.0131774
3.67807e-06
-0.000280038
-0.000840141
7.46404e-08
-0.00140024
2.97903e-07
-0.00196044
6.65458e-07
-0.00252054
1.17135e-06
-0.00308084
1.80298e-06
-0.00364097
2.55005e-06
-0.00420133
3.39122e-06
-0.00476159
4.31356e-06
-0.00532193
5.2867e-06
-0.00588236
6.29334e-06
-0.00644273
7.29348e-06
-0.00700332
8.26288e-06
-0.00756374
9.15543e-06
-0.00812452
9.93678e-06
-0.00868503
1.05643e-05
-0.00924612
1.09752e-05
-0.00980661
1.11456e-05
-0.0103682
1.09667e-05
-0.0109286
1.04666e-05
-0.0114911
9.45663e-06
-0.0120509
8.05811e-06
-0.0126149
5.9741e-06
-0.0131737
3.49229e-06
-0.000280113
-0.000840364
7.18803e-08
-0.0014006
2.86909e-07
-0.00196094
6.40959e-07
-0.00252117
1.12832e-06
-0.00308158
1.73673e-06
-0.00364181
2.45625e-06
-0.00420225
3.26609e-06
-0.00476256
4.15404e-06
-0.00532294
5.09072e-06
-0.00588336
6.05979e-06
-0.00644369
7.0224e-06
-0.00700421
7.95612e-06
-0.00756452
8.81662e-06
-0.00812515
9.57237e-06
-0.00868544
1.01835e-05
-0.00924629
1.05884e-05
-0.00980642
1.07673e-05
-0.0103677
1.06083e-05
-0.0109275
1.01468e-05
-0.0114898
9.18172e-06
-0.0120488
7.83618e-06
-0.0126124
5.79512e-06
-0.0131702
3.3192e-06
-0.000280185
-0.000840579
6.90984e-08
-0.00140096
2.75831e-07
-0.00196143
6.1627e-07
-0.00252178
1.08494e-06
-0.0030823
1.6699e-06
-0.00364262
2.36154e-06
-0.00420314
3.13956e-06
-0.00476349
3.99241e-06
-0.0053239
4.89159e-06
-0.00588432
5.82153e-06
-0.00644463
6.74436e-06
-0.00700507
7.63914e-06
-0.00756527
8.46326e-06
-0.00812576
9.18748e-06
-0.00868584
9.77511e-06
-0.00924647
1.01657e-05
-0.00980626
1.03463e-05
-0.0103673
1.02016e-05
-0.0109266
9.78228e-06
-0.0114884
8.87095e-06
-0.0120467
7.61026e-06
-0.0126099
5.65054e-06
-0.0131669
3.29531e-06
-0.000280254
-0.000840786
6.62459e-08
-0.0014013
2.64474e-07
-0.0019619
5.90964e-07
-0.00252236
1.04046e-06
-0.00308299
1.60134e-06
-0.0036434
2.26431e-06
-0.00420399
3.00958e-06
-0.00476439
3.82619e-06
-0.00532483
4.68652e-06
-0.00588524
5.5756e-06
-0.00644552
6.4566e-06
-0.0070059
7.30958e-06
-0.00756599
8.09366e-06
-0.00812635
8.78086e-06
-0.00868623
9.33785e-06
-0.00924665
9.7044e-06
-0.0098061
9.87578e-06
-0.0103669
9.73293e-06
-0.0109256
9.34527e-06
-0.0114872
8.47891e-06
-0.0120448
7.30709e-06
-0.0126075
5.43991e-06
-0.0131636
3.23098e-06
-0.00028032
-0.000840984
6.32554e-08
-0.00140162
2.52559e-07
-0.00196234
5.64403e-07
-0.00252292
9.93749e-07
-0.00308366
1.52931e-06
-0.00364414
2.16213e-06
-0.00420481
2.87288e-06
-0.00476525
3.65129e-06
-0.00532572
4.47042e-06
-0.00588612
5.31631e-06
-0.00644637
6.15256e-06
-0.00700668
6.96116e-06
-0.00756668
7.70099e-06
-0.0081269
8.34756e-06
-0.0086866
8.86622e-06
-0.00924682
9.20247e-06
-0.00980595
9.35043e-06
-0.0103665
9.19978e-06
-0.0109248
8.82002e-06
-0.011486
7.98667e-06
-0.0120429
6.88076e-06
-0.0126053
5.1061e-06
-0.0131604
3.04863e-06
-0.000280384
-0.000841173
6.03816e-08
-0.00140194
2.41097e-07
-0.00196277
5.38859e-07
-0.00252345
9.4887e-07
-0.00308429
1.46018e-06
-0.00364485
2.06418e-06
-0.00420559
2.74199e-06
-0.00476607
3.48419e-06
-0.00532656
4.26425e-06
-0.00588695
5.06974e-06
-0.00644718
5.86417e-06
-0.00700742
6.63249e-06
-0.00756732
7.33169e-06
-0.00812742
7.94295e-06
-0.00868694
8.42648e-06
-0.00924696
8.73829e-06
-0.00980579
8.86268e-06
-0.0103661
8.70855e-06
-0.0109239
8.32489e-06
-0.0114849
7.52274e-06
-0.0120411
6.45724e-06
-0.0126033
4.76351e-06
-0.0131573
2.82146e-06
-0.000280444
-0.000841354
5.78344e-08
-0.00140223
2.30951e-07
-0.00196318
5.16279e-07
-0.00252396
9.09284e-07
-0.00308489
1.39937e-06
-0.00364553
1.97831e-06
-0.00420633
2.62778e-06
-0.00476685
3.33895e-06
-0.00532736
4.08623e-06
-0.00588775
4.85791e-06
-0.00644795
5.61918e-06
-0.00700812
6.35543e-06
-0.00756793
7.02572e-06
-0.0081279
7.61118e-06
-0.00868726
8.07572e-06
-0.00924708
8.37342e-06
-0.00980564
8.49565e-06
-0.0103657
8.34582e-06
-0.0109231
7.97905e-06
-0.0114838
7.20404e-06
-0.0120395
6.19742e-06
-0.0126013
4.55636e-06
-0.0131545
2.74323e-06
-0.000280502
-0.000841528
5.50829e-08
-0.00140252
2.19987e-07
-0.00196357
4.91866e-07
-0.00252445
8.66481e-07
-0.00308547
1.33363e-06
-0.00364618
1.88553e-06
-0.00420704
2.50441e-06
-0.00476759
3.18203e-06
-0.00532813
3.89383e-06
-0.00588851
4.62883e-06
-0.00644868
5.35423e-06
-0.00700879
6.05555e-06
-0.00756852
6.69438e-06
-0.00812836
7.25148e-06
-0.00868756
7.69584e-06
-0.0092472
7.97874e-06
-0.00980549
8.10085e-06
-0.0103654
7.95643e-06
-0.0109223
7.60873e-06
-0.0114828
6.85695e-06
-0.0120378
5.89617e-06
-0.0125995
4.29932e-06
-0.0131518
2.65902e-06
-0.000280558
-0.000841693
5.21001e-08
-0.00140279
2.08098e-07
-0.00196395
4.65383e-07
-0.00252492
8.20056e-07
-0.00308602
1.26235e-06
-0.0036468
1.78502e-06
-0.00420771
2.37088e-06
-0.0047683
3.01226e-06
-0.00532887
3.6857e-06
-0.00588923
4.38108e-06
-0.00644938
5.06779e-06
-0.00700943
5.73131e-06
-0.00756907
6.33584e-06
-0.0081288
6.86189e-06
-0.00868784
7.28402e-06
-0.00924732
7.55098e-06
-0.00980534
7.67349e-06
-0.010365
7.53678e-06
-0.0109216
7.21763e-06
-0.0114818
6.49245e-06
-0.0120362
5.5756e-06
-0.0125979
3.99649e-06
-0.0131491
2.4573e-06
-0.00028061
-0.000841849
4.88648e-08
-0.00140305
1.952e-07
-0.0019643
4.36649e-07
-0.00252536
7.697e-07
-0.00308654
1.18509e-06
-0.00364738
1.67617e-06
-0.00420836
2.22639e-06
-0.00476897
2.82867e-06
-0.00532956
3.46087e-06
-0.00588992
4.11361e-06
-0.00645004
4.75899e-06
-0.00701004
5.38189e-06
-0.0075696
5.94976e-06
-0.00812922
6.44202e-06
-0.00868811
6.84032e-06
-0.00924744
7.08896e-06
-0.00980521
7.2101e-06
-0.0103647
7.0792e-06
-0.0109209
6.79756e-06
-0.0114809
6.10253e-06
-0.0120346
5.28466e-06
-0.0125964
3.9888e-06
-0.0131466
2.31191e-06
-0.000280659
-0.000841996
4.53596e-08
-0.00140329
1.81225e-07
-0.00196463
4.0551e-07
-0.00252577
7.15146e-07
-0.00308703
1.10142e-06
-0.00364793
1.55839e-06
-0.00420896
2.07014e-06
-0.00476961
2.63028e-06
-0.00533021
3.21817e-06
-0.00589056
3.82517e-06
-0.00645067
4.42658e-06
-0.00701061
5.00605e-06
-0.0075701
5.53533e-06
-0.00812962
5.99135e-06
-0.00868836
6.36523e-06
-0.00924755
6.59343e-06
-0.00980509
6.71121e-06
-0.0103644
6.58021e-06
-0.0109202
6.32875e-06
-0.0114801
5.6507e-06
-0.0120331
4.96652e-06
-0.0125949
3.64076e-06
-0.0131443
2.15473e-06
-0.000280705
-0.000842133
4.15772e-08
-0.00140351
1.66138e-07
-0.00196494
3.71883e-07
-0.00252616
6.56227e-07
-0.00308749
1.01107e-06
-0.00364844
1.43124e-06
-0.00420952
1.90152e-06
-0.00477019
2.4162e-06
-0.00533082
2.95658e-06
-0.00589116
3.51452e-06
-0.00645124
4.06925e-06
-0.00701114
4.60213e-06
-0.00757056
5.09129e-06
-0.00812999
5.50838e-06
-0.00868858
5.85827e-06
-0.00924767
6.06457e-06
-0.00980497
6.1812e-06
-0.0103641
6.04507e-06
-0.0109195
5.82665e-06
-0.0114794
5.1407e-06
-0.0120318
4.60747e-06
-0.0125934
3.34004e-06
-0.0131422
1.97819e-06
-0.000280746
-0.000842258
3.75278e-08
-0.00140372
1.49964e-07
-0.00196523
3.35785e-07
-0.00252651
5.92927e-07
-0.0030879
9.13964e-07
-0.00364891
1.29461e-06
-0.00421003
1.72028e-06
-0.00477073
2.18605e-06
-0.00533138
2.67556e-06
-0.00589171
3.18085e-06
-0.00645177
3.68599e-06
-0.00701163
4.16865e-06
-0.00757098
4.61646e-06
-0.00813034
4.9912e-06
-0.00868877
5.31841e-06
-0.00924778
5.50043e-06
-0.00980483
5.61973e-06
-0.0103639
5.4715e-06
-0.0109187
5.34248e-06
-0.0114789
4.97151e-06
-0.0120305
4.10719e-06
-0.012592
3.03154e-06
-0.0131402
1.78891e-06
-0.000280784
-0.000842371
3.32355e-08
-0.00140391
1.32775e-07
-0.00196548
2.97342e-07
-0.00252683
5.25422e-07
-0.00308828
8.10275e-07
-0.00364934
1.14868e-06
-0.0042105
1.5267e-06
-0.00477122
1.94009e-06
-0.00533188
2.37534e-06
-0.00589221
2.82406e-06
-0.00645226
3.27669e-06
-0.00701209
3.70483e-06
-0.00757136
4.11057e-06
-0.00813067
4.4379e-06
-0.00868894
4.74651e-06
-0.00924791
4.89915e-06
-0.00980466
5.02761e-06
-0.0103637
4.83024e-06
-0.0109181
4.82385e-06
-0.0114783
4.37051e-06
-0.0120294
3.6671e-06
-0.0125908
2.72022e-06
-0.0131384
1.60592e-06
-0.000280818
-0.000842471
2.87156e-08
-0.00140407
1.14643e-07
-0.00196571
2.56709e-07
-0.00252711
4.53979e-07
-0.00308862
7.00377e-07
-0.00364971
9.94011e-07
-0.00421091
1.32161e-06
-0.00477166
1.67935e-06
-0.00533233
2.05709e-06
-0.00589266
2.44505e-06
-0.00645268
2.84272e-06
-0.0070125
3.21121e-06
-0.00757169
3.57574e-06
-0.00813098
3.84702e-06
-0.00868908
4.14717e-06
-0.00924805
4.25983e-06
-0.00980441
4.43487e-06
-0.0103638
4.52717e-06
-0.0109177
4.15981e-06
-0.0114776
3.7717e-06
-0.0120285
3.2029e-06
-0.0125897
2.38946e-06
-0.0131368
1.40906e-06
-0.000280847
-0.000842558
2.39348e-08
-0.00140421
9.55779e-08
-0.00196591
2.14044e-07
-0.00252736
3.79022e-07
-0.00308891
5.85015e-07
-0.00365004
8.31613e-07
-0.00421127