/*--------------------------------*- C++ -*----------------------------------*\
  =========                 |
  \\      /  F ield         | OpenFOAM: The Open Source CFD Toolbox
   \\    /   O peration     | Website:  https://openfoam.org
    \\  /    A nd           | Version:  10
     \\/     M anipulation  |
\*---------------------------------------------------------------------------*/
FoamFile
{
    format      ascii;
    class       volScalarField;
    location    "0.21";
    object      T;
}
// * * * * * * * * * * * * * * * * * * * * * * * * * * * * * * * * * * * * * //

dimensions      [0 0 0 1 0 0 0];

internalField   nonuniform List<scalar> 
4176
(
180.349
180.353
180.374
180.384
180.428
180.447
180.508
180.54
180.615
180.662
180.751
180.811
180.915
180.987
181.102
181.194
181.309
181.432
181.535
181.705
181.78
182.012
182.026
182.329
180.358
180.363
180.383
180.395
180.438
180.459
180.52
180.554
180.63
180.679
180.769
180.832
180.937
181.012
181.13
181.223
181.341
181.466
181.573
181.746
181.821
182.064
182.08
182.413
180.386
180.391
180.411
180.422
180.464
180.485
180.544
180.578
180.651
180.7
180.787
180.849
180.952
181.024
181.141
181.231
181.348
181.469
181.573
181.742
181.813
182.051
182.068
182.411
180.438
180.442
180.462
180.473
180.515
180.536
180.595
180.629
180.702
180.751
180.838
180.899
181.003
181.075
181.192
181.282
181.401
181.524
181.623
181.797
181.865
182.099
182.114
182.442
180.513
180.517
180.537
180.548
180.589
180.61
180.668
180.702
180.774
180.822
180.909
180.968
181.072
181.142
181.259
181.346
181.466
181.588
181.684
181.859
181.927
182.157
182.173
182.49
180.612
180.616
180.636
180.647
180.688
180.708
180.766
180.799
180.87
180.919
181.004
181.064
181.166
181.236
181.352
181.438
181.56
181.675
181.778
181.947
182.017
182.245
182.264
182.581
180.735
180.739
180.759
180.769
180.81
180.83
180.887
180.92
180.99
181.038
181.122
181.182
181.282
181.351
181.467
181.55
181.673
181.783
181.89
182.053
182.126
182.35
182.371
182.686
180.882
180.886
180.905
180.916
180.956
180.976
181.032
181.065
181.134
181.182
181.264
181.323
181.423
181.491
181.605
181.687
181.81
181.916
182.025
182.183
182.258
182.478
182.501
182.811
181.052
181.057
181.076
181.086
181.126
181.145
181.201
181.233
181.301
181.348
181.43
181.488
181.586
181.653
181.766
181.847
181.969
182.071
182.182
182.334
182.411
182.627
182.651
182.957
181.247
181.251
181.27
181.28
181.319
181.338
181.394
181.425
181.492
181.539
181.619
181.676
181.773
181.839
181.95
182.029
182.15
182.25
182.362
182.509
182.586
182.8
182.824
183.124
181.465
181.469
181.488
181.498
181.537
181.555
181.61
181.64
181.707
181.752
181.832
181.888
181.983
182.048
182.158
182.235
182.355
182.451
182.563
182.705
182.785
182.991
183.018
183.312
181.707
181.711
181.73
181.739
181.778
181.796
181.849
181.879
181.945
181.989
182.068
182.122
182.216
182.279
182.388
182.463
182.582
182.675
182.788
182.924
183.006
183.204
183.233
183.522
181.972
181.977
181.995
182.004
182.042
182.06
182.113
182.142
182.206
182.25
182.327
182.38
182.473
182.534
182.641
182.714
182.831
182.921
183.034
183.165
183.247
183.442
183.47
183.753
182.262
182.266
182.284
182.293
182.33
182.347
182.399
182.428
182.491
182.534
182.609
182.661
182.752
182.812
182.917
182.988
183.104
183.191
183.303
183.429
183.512
183.7
183.729
184.005
182.575
182.579
182.597
182.605
182.642
182.658
182.71
182.737
182.8
182.841
182.915
182.966
183.055
183.113
183.216
183.285
183.399
183.483
183.594
183.715
183.799
183.98
184.009
184.279
182.912
182.916
182.933
182.941
182.978
182.993
183.044
183.07
183.131
183.171
183.244
183.293
183.381
183.437
183.538
183.605
183.716
183.797
183.908
184.023
184.107
184.283
184.311
184.575
183.272
183.276
183.293
183.301
183.337
183.352
183.401
183.427
183.486
183.525
183.596
183.644
183.729
183.784
183.883
183.947
184.056
184.134
184.243
184.354
184.438
184.606
184.636
184.893
183.656
183.66
183.677
183.685
183.719
183.734
183.782
183.807
183.865
183.902
183.971
184.017
184.101
184.153
184.25
184.312
184.419
184.494
184.601
184.707
184.79
184.953
184.982
185.232
184.064
184.068
184.085
184.092
184.126
184.139
184.187
184.21
184.267
184.303
184.37
184.414
184.495
184.546
184.64
184.699
184.804
184.876
184.981
185.081
185.165
185.32
185.35
185.593
184.496
184.5
184.516
184.522
184.556
184.568
184.615
184.637
184.692
184.726
184.792
184.834
184.913
184.961
185.053
185.11
185.212
185.28
185.383
185.479
185.561
185.711
185.74
185.975
184.952
184.955
184.971
184.977
185.01
185.021
185.066
185.087
185.141
185.173
185.237
185.277
185.354
185.4
185.489
185.542
185.642
185.707
185.807
185.898
185.98
186.122
186.152
186.379
185.431
185.434
185.45
185.455
185.487
185.497
185.541
185.56
185.613
185.644
185.705
185.743
185.817
185.861
185.947
185.998
186.094
186.156
186.254
186.34
186.42
186.556
186.585
186.805
185.933
185.937
185.952
185.956
185.987
185.997
186.04
186.057
186.108
186.137
186.196
186.232
186.304
186.345
186.429
186.476
186.569
186.627
186.722
186.803
186.882
187.011
187.041
187.252
186.46
186.463
186.478
186.481
186.512
186.52
186.561
186.578
186.626
186.654
186.711
186.744
186.813
186.852
186.933
186.977
187.067
187.121
187.213
187.289
187.366
187.489
187.518
187.72
187.009
187.012
187.027
187.03
187.059
187.066
187.106
187.121
187.168
187.193
187.248
187.279
187.346
187.381
187.459
187.5
187.587
187.638
187.726
187.798
187.872
187.988
188.017
188.21
187.582
187.585
187.599
187.601
187.63
187.636
187.675
187.687
187.733
187.756
187.808
187.837
187.901
187.933
188.009
188.046
188.13
188.176
188.261
188.329
188.401
188.51
188.537
188.721
188.178
188.181
188.194
188.196
188.224
188.228
188.266
188.277
188.32
188.341
188.391
188.418
188.479
188.508
188.58
188.614
188.695
188.738
188.819
188.882
188.951
189.053
189.08
189.255
188.797
188.8
188.813
188.814
188.84
188.844
188.88
188.89
188.931
188.95
188.997
189.021
189.079
189.106
189.175
189.205
189.282
189.321
189.399
189.457
189.523
189.619
189.644
189.811
189.439
189.442
189.454
189.454
189.48
189.482
189.517
189.525
189.564
189.581
189.626
189.647
189.702
189.726
189.792
189.818
189.892
189.927
190.001
190.054
190.118
190.206
190.228
190.39
190.104
190.106
190.118
190.118
190.142
190.143
190.177
190.183
190.22
190.235
190.278
190.296
190.348
190.369
190.431
190.454
190.524
190.555
190.626
190.674
190.734
190.815
190.835
190.99
190.79
190.793
190.804
190.803
190.827
190.827
190.859
190.863
190.899
190.911
190.951
190.967
191.017
191.034
191.093
191.112
191.179
191.205
191.273
191.315
191.372
191.446
191.467
191.609
191.5
191.502
191.513
191.511
191.534
191.533
191.563
191.566
191.599
191.609
191.648
191.661
191.707
191.721
191.777
191.793
191.856
191.878
191.941
191.979
192.032
192.101
192.119
192.252
192.231
192.233
192.244
192.241
192.263
192.261
192.289
192.291
192.322
192.33
192.366
192.376
192.42
192.431
192.484
192.495
192.555
192.573
192.632
192.665
192.715
192.776
192.793
192.917
192.984
192.986
192.996
192.993
193.014
193.01
193.038
193.037
193.067
193.073
193.106
193.114
193.155
193.163
193.212
193.22
193.276
193.29
193.346
193.373
193.419
193.474
193.489
193.604
193.759
193.761
193.771
193.767
193.787
193.782
193.808
193.806
193.834
193.837
193.868
193.873
193.912
193.916
193.963
193.967
194.02
194.029
194.081
194.103
194.145
194.194
194.207
194.313
194.555
194.557
194.566
194.562
194.581
194.575
194.6
194.596
194.622
194.623
194.652
194.655
194.69
194.692
194.735
194.736
194.785
194.79
194.839
194.855
194.893
194.937
194.947
195.043
195.373
195.374
195.383
195.378
195.397
195.389
195.413
195.407
195.431
195.431
195.457
195.457
195.49
195.488
195.529
195.526
195.572
195.572
195.618
195.629
195.664
195.701
195.708
195.795
196.211
196.212
196.221
196.215
196.233
196.225
196.247
196.24
196.262
196.26
196.284
196.281
196.311
196.307
196.344
196.337
196.38
196.376
196.418
196.425
196.456
196.488
196.491
196.569
197.07
197.072
197.08
197.074
197.091
197.081
197.102
197.093
197.114
197.11
197.132
197.126
197.154
197.146
197.181
197.17
197.209
197.202
197.24
197.242
197.269
197.295
197.295
197.364
197.95
197.951
197.959
197.953
197.969
197.958
197.978
197.968
197.987
197.98
198
197.993
198.018
198.007
198.038
198.024
198.06
198.048
198.083
198.08
198.103
198.124
198.121
198.182
198.851
198.852
198.859
198.852
198.867
198.856
198.874
198.863
198.88
198.872
198.889
198.88
198.902
198.889
198.917
198.899
198.932
198.916
198.947
198.939
198.959
198.973
198.968
199.021
199.771
199.772
199.78
199.772
199.786
199.774
199.791
199.778
199.794
199.783
199.799
199.787
199.807
199.791
199.816
199.795
199.825
199.805
199.832
199.819
199.835
199.844
199.835
199.881
200.712
200.713
200.72
200.711
200.725
200.712
200.728
200.713
200.728
200.715
200.729
200.714
200.732
200.713
200.736
200.711
200.738
200.714
200.738
200.72
200.734
200.735
200.724
200.762
201.673
201.673
201.68
201.671
201.684
201.669
201.684
201.668
201.681
201.667
201.679
201.662
201.677
201.655
201.676
201.647
201.672
201.643
201.664
201.641
201.652
201.647
201.634
201.663
202.653
202.653
202.66
202.65
202.662
202.647
202.661
202.643
202.654
202.639
202.648
202.629
202.642
202.617
202.635
202.603
202.625
202.592
202.611
202.582
202.592
202.579
202.565
202.585
203.652
203.653
203.659
203.649
203.66
203.644
203.656
203.638
203.647
203.629
203.637
203.616
203.626
203.599
203.614
203.579
203.598
203.561
203.577
203.543
203.551
203.532
203.516
203.528
204.671
204.671
204.677
204.666
204.677
204.659
204.671
204.651
204.659
204.639
204.645
204.622
204.63
204.6
204.612
204.574
204.591
204.549
204.563
204.523
204.53
204.503
204.486
204.49
205.708
205.708
205.714
205.702
205.712
205.694
205.704
205.683
205.689
205.668
205.672
205.646
205.652
205.619
205.63
205.587
205.602
205.555
205.568
205.522
205.527
205.496
205.476
205.471
206.764
206.764
206.769
206.757
206.766
206.747
206.756
206.733
206.738
206.715
206.717
206.689
206.693
206.657
206.665
206.62
206.632
206.58
206.592
206.54
206.545
206.504
206.486
206.472
207.837
207.837
207.842
207.829
207.838
207.817
207.825
207.801
207.805
207.78
207.78
207.75
207.752
207.713
207.719
207.67
207.68
207.624
207.635
207.577
207.58
207.531
207.516
207.492
208.927
208.927
208.932
208.918
208.926
208.905
208.912
208.887
208.889
208.863
208.861
208.829
208.828
208.787
208.791
208.739
208.747
208.686
208.696
208.633
208.633
208.578
208.562
208.53
210.034
210.034
210.038
210.025
210.032
210.01
210.016
209.989
209.99
209.962
209.959
209.924
209.922
209.878
209.881
209.825
209.831
209.766
209.774
209.704
209.707
209.642
209.626
209.587
211.158
211.157
211.161
211.147
211.154
211.131
211.136
211.108
211.108
211.078
211.073
211.036
211.033
210.986
210.987
210.927
210.932
210.864
210.869
210.791
210.798
210.725
210.708
210.662
212.296
212.296
212.3
212.285
212.291
212.267
212.271
212.242
212.241
212.21
212.203
212.165
212.16
212.11
212.11
212.045
212.051
211.975
211.984
211.899
211.903
211.826
211.807
211.754
213.45
213.449
213.453
213.438
213.443
213.419
213.422
213.392
213.389
213.357
213.349
213.308
213.302
213.249
213.249
213.178
213.187
213.103
213.114
213.023
213.025
212.943
212.924
212.864
214.617
214.616
214.62
214.604
214.61
214.584
214.587
214.556
214.552
214.518
214.51
214.466
214.461
214.404
214.403
214.329
214.337
214.25
214.257
214.163
214.164
214.077
214.057
213.99
215.798
215.797
215.8
215.785
215.789
215.764
215.765
215.733
215.729
215.693
215.685
215.638
215.633
215.572
215.573
215.494
215.5
215.411
215.417
215.32
215.318
215.227
215.206
215.133
216.991
216.991
216.993
216.978
216.982
216.956
216.957
216.924
216.92
216.881
216.874
216.824
216.819
216.754
216.755
216.673
216.679
216.587
216.591
216.491
216.488
216.393
216.37
216.292
218.196
218.196
218.198
218.183
218.186
218.16
218.16
218.127
218.122
218.082
218.074
218.023
218.018
217.951
217.95
217.867
217.871
217.777
217.778
217.677
217.671
217.573
217.55
217.466
219.413
219.412
219.415
219.399
219.402
219.376
219.375
219.342
219.336
219.295
219.286
219.235
219.228
219.16
219.158
219.074
219.076
218.98
218.981
218.876
218.87
218.767
218.743
218.654
220.639
220.639
220.642
220.626
220.628
220.602
220.601
220.568
220.56
220.521
220.51
220.458
220.45
220.382
220.378
220.293
220.294
220.197
220.194
220.089
220.081
219.975
219.95
219.857
221.876
221.876
221.879
221.862
221.865
221.839
221.837
221.804
221.795
221.757
221.743
221.692
221.683
221.614
221.609
221.524
221.523
221.423
221.421
221.313
221.305
221.196
221.171
221.072
223.122
223.122
223.125
223.109
223.111
223.085
223.082
223.05
223.039
223.002
222.987
222.937
222.924
222.858
222.85
222.765
222.763
222.663
222.659
222.549
222.539
222.428
222.402
222.3
224.378
224.378
224.38
224.364
224.367
224.34
224.338
224.305
224.293
224.257
224.24
224.191
224.177
224.111
224.101
224.018
224.013
223.911
223.907
223.795
223.785
223.672
223.646
223.54
225.642
225.641
225.644
225.628
225.631
225.604
225.601
225.569
225.557
225.521
225.502
225.455
225.439
225.372
225.361
225.278
225.272
225.17
225.165
225.051
225.04
224.925
224.899
224.79
226.914
226.914
226.917
226.9
226.903
226.876
226.873
226.841
226.828
226.793
226.773
226.726
226.708
226.643
226.63
226.547
226.539
226.438
226.432
226.316
226.305
226.188
226.161
226.049
228.194
228.194
228.197
228.18
228.183
228.156
228.153
228.121
228.107
228.073
228.051
228.005
227.986
227.92
227.908
227.822
227.814
227.713
227.706
227.589
227.577
227.459
227.432
227.318
229.482
229.482
229.485
229.468
229.471
229.444
229.441
229.408
229.394
229.359
229.337
229.291
229.27
229.205
229.192
229.105
229.096
228.995
228.987
228.87
228.857
228.737
228.71
228.594
230.778
230.778
230.781
230.764
230.766
230.738
230.735
230.702
230.687
230.652
230.628
230.583
230.56
230.496
230.482
230.393
230.384
230.283
230.273
230.157
230.142
230.022
229.995
229.876
232.08
232.08
232.083
232.065
232.067
232.039
232.035
232.001
231.986
231.951
231.925
231.881
231.856
231.792
231.776
231.688
231.678
231.575
231.565
231.449
231.435
231.312
231.285
231.166
233.387
233.388
233.39
233.372
233.374
233.345
233.341
233.306
233.29
233.254
233.227
233.183
233.155
233.093
233.073
232.988
232.977
232.872
232.86
232.748
232.731
232.608
232.581
232.46
234.698
234.698
234.7
234.682
234.684
234.654
234.649
234.614
234.597
234.561
234.532
234.489
234.459
234.398
234.375
234.292
234.28
234.172
234.161
234.05
234.032
233.909
233.882
233.761
236.009
236.009
236.012
235.993
235.995
235.965
235.959
235.924
235.906
235.87
235.84
235.797
235.765
235.706
235.681
235.6
235.583
235.481
235.466
235.355
235.337
235.216
235.189
235.067
237.318
237.318
237.32
237.302
237.304
237.273
237.269
237.233
237.216
237.179
237.15
237.107
237.074
237.017
236.988
236.911
236.889
236.793
236.778
236.664
236.648
236.527
236.5
236.378
238.62
238.62
238.623
238.605
238.608
238.578
238.574
238.54
238.523
238.488
238.459
238.418
238.385
238.329
238.3
238.225
238.203
238.107
238.094
237.976
237.962
237.843
237.817
237.695
239.915
239.915
239.919
239.902
239.906
239.877
239.875
239.842
239.828
239.794
239.767
239.728
239.696
239.644
239.614
239.543
239.518
239.427
239.41
239.299
239.283
239.163
239.139
239.018
241.201
241.202
241.207
241.19
241.196
241.17
241.17
241.139
241.127
241.097
241.072
241.037
241.007
240.958
240.93
240.863
240.838
240.752
240.732
240.627
240.61
240.491
240.468
240.347
242.482
242.483
242.489
242.474
242.481
242.457
242.46
242.432
242.423
242.396
242.375
242.343
242.317
242.272
242.247
242.185
242.162
242.079
242.064
241.958
241.944
241.825
241.803
241.682
243.763
243.765
243.771
243.758
243.766
243.744
243.749
243.724
243.717
243.694
243.676
243.648
243.625
243.585
243.564
243.507
243.487
243.409
243.397
243.295
243.284
243.166
243.147
243.024
245.054
245.057
245.062
245.05
245.059
245.039
245.043
245.021
245.016
244.995
244.979
244.955
244.935
244.898
244.882
244.825
244.816
244.734
244.734
244.632
244.629
244.513
244.497
244.378
246.365
246.368
246.374
246.362
246.37
246.35
246.354
246.332
246.327
246.307
246.291
246.268
246.248
246.215
246.201
246.143
246.142
246.06
246.067
245.965
245.97
245.857
245.848
245.737
247.709
247.712
247.717
247.703
247.712
247.689
247.693
247.668
247.661
247.639
247.621
247.596
247.575
247.542
247.523
247.471
247.466
247.389
247.393
247.296
247.305
247.193
247.19
247.085
249.095
249.097
249.102
249.086
249.093
249.067
249.068
249.039
249.029
249.002
248.98
248.951
248.924
248.888
248.863
248.812
248.797
248.723
248.724
248.623
248.635
248.52
248.523
248.416
250.53
250.532
250.535
250.518
250.522
250.492
250.489
250.456
250.44
250.407
250.378
250.342
250.308
250.265
250.23
250.174
250.149
250.069
250.066
249.958
249.969
249.845
249.851
249.737
252.015
252.016
252.019
252
252.001
251.969
251.961
251.923
251.9
251.862
251.824
251.782
251.737
251.685
251.639
251.572
251.537
251.445
251.43
251.31
251.315
251.178
251.184
251.055
253.547
253.549
253.55
253.53
253.528
253.493
253.482
253.44
253.412
253.368
253.323
253.274
253.219
253.157
253.099
253.024
252.971
252.866
252.837
252.699
252.692
252.534
252.534
252.383
255.12
255.121
255.122
255.1
255.098
255.06
255.048
255.001
254.971
254.922
254.874
254.816
254.756
254.686
254.618
254.534
254.462
254.353
254.297
254.15
254.118
253.938
253.924
253.737
256.722
256.723
256.725
256.702
256.7
256.66
256.647
256.599
256.567
256.515
256.465
256.404
256.34
256.265
256.191
256.102
256.018
255.908
255.824
255.681
255.614
255.422
255.383
255.15
258.343
258.343
258.346
258.322
258.321
258.281
258.268
258.22
258.188
258.136
258.085
258.024
257.959
257.884
257.807
257.717
257.629
257.517
257.425
257.284
257.193
257.006
256.94
256.671
259.969
259.97
259.973
259.95
259.949
259.91
259.898
259.851
259.82
259.77
259.72
259.66
259.597
259.524
259.448
259.361
259.274
259.166
259.072
258.938
258.845
258.663
258.594
258.329
261.59
261.592
261.595
261.573
261.573
261.536
261.525
261.479
261.45
261.403
261.355
261.299
261.238
261.169
261.097
261.014
260.931
260.829
260.742
260.612
260.53
260.353
260.295
260.053
263.197
263.199
263.202
263.181
263.182
263.147
263.138
263.095
263.068
263.023
262.978
262.927
262.869
262.805
262.738
262.661
262.583
262.489
262.405
262.287
262.211
262.046
261.994
261.772
264.78
264.782
264.786
264.766
264.769
264.735
264.728
264.688
264.663
264.623
264.581
264.534
264.48
264.422
264.358
264.289
264.215
264.13
264.053
263.944
263.875
263.724
263.675
263.472
266.334
266.336
266.341
266.322
266.326
266.294
266.288
266.252
266.229
266.193
266.153
266.112
266.061
266.01
265.95
265.888
265.82
265.743
265.673
265.571
265.51
265.373
265.326
265.142
267.853
267.855
267.86
267.843
267.847
267.818
267.814
267.781
267.76
267.729
267.691
267.656
267.606
267.564
267.506
267.454
267.388
267.321
267.257
267.163
267.108
266.985
266.941
266.776
269.332
269.335
269.34
269.324
269.33
269.302
269.3
269.269
269.252
269.224
269.189
269.16
269.113
269.077
269.022
268.978
268.917
268.859
268.796
268.717
268.665
268.555
268.514
268.367
270.769
270.773
270.779
270.763
270.771
270.744
270.745
270.715
270.702
270.675
270.646
270.618
270.578
270.545
270.496
270.457
270.401
270.351
270.294
270.226
270.175
270.08
270.042
269.911
272.162
272.165
272.173
272.157
272.167
272.141
272.145
272.116
272.106
272.082
272.057
272.032
271.997
271.967
271.924
271.89
271.84
271.797
271.743
271.687
271.638
271.555
271.521
271.406
273.51
273.512
273.52
273.505
273.516
273.491
273.497
273.471
273.463
273.442
273.42
273.398
273.368
273.342
273.304
273.274
273.229
273.193
273.144
273.097
273.052
272.981
272.949
272.849
274.809
274.812
274.821
274.806
274.819
274.794
274.803
274.777
274.773
274.753
274.735
274.716
274.69
274.668
274.635
274.609
274.57
274.54
274.494
274.456
274.413
274.357
274.323
274.24
276.061
276.064
276.073
276.059
276.072
276.05
276.059
276.036
276.034
276.017
276.002
275.986
275.963
275.944
275.915
275.894
275.859
275.834
275.795
275.764
275.722
275.679
275.646
275.576
277.265
277.268
277.278
277.263
277.279
277.256
277.269
277.246
277.247
277.231
277.219
277.206
277.186
277.171
277.145
277.129
277.098
277.079
277.042
277.019
276.981
276.947
276.918
276.859
278.422
278.424
278.434
278.422
278.435
278.417
278.427
278.409
278.409
278.397
278.387
278.377
278.36
278.348
278.326
278.313
278.286
278.271
278.24
278.222
278.188
278.163
278.135
278.089
279.53
279.533
279.544
279.529
279.548
279.525
279.542
279.52
279.526
279.514
279.507
279.499
279.484
279.476
279.457
279.448
279.425
279.416
279.386
279.374
279.344
279.328
279.3
279.264
280.592
280.594
280.605
280.593
280.608
280.592
280.604
280.59
280.593
280.585
280.578
280.573
280.561
280.556
280.54
280.534
280.514
280.508
280.483
280.477
280.449
280.439
280.414
280.388
281.608
281.611
281.62
281.611
281.624
281.611
281.623
281.609
281.614
281.607
281.603
281.6
281.59
281.588
281.574
281.571
281.555
281.553
281.531
281.528
281.504
281.501
281.477
281.461
282.579
282.58
282.592
282.579
282.598
282.58
282.598
282.582
282.591
282.584
282.582
282.58
282.573
282.573
282.562
282.562
282.548
282.549
282.53
282.533
282.511
282.513
282.491
282.483
283.505
283.509
283.515
283.512
283.519
283.515
283.52
283.517
283.519
283.518
283.515
283.516
283.511
283.513
283.504
283.506
283.495
283.5
283.484
283.489
283.47
283.477
283.457
283.457
284.39
284.391
284.401
284.391
284.409
284.394
284.412
284.399
284.41
284.405
284.407
284.408
284.405
284.408
284.402
284.406
284.397
284.404
284.391
284.401
284.384
284.395
284.378
284.384
285.231
285.235
285.24
285.238
285.246
285.244
285.249
285.25
285.251
285.255
285.253
285.258
285.255
285.261
285.256
285.263
285.256
285.266
285.255
285.267
285.252
285.268
285.252
285.264
286.034
286.036
286.043
286.04
286.049
286.046
286.054
286.052
286.058
286.059
286.062
286.065
286.065
286.072
286.069
286.077
286.072
286.084
286.075
286.091
286.078
286.097
286.083
286.1
286.796
286.799
286.806
286.802
286.814
286.808
286.819
286.817
286.823
286.827
286.828
286.835
286.835
286.843
286.842
286.852
286.849
286.863
286.855
286.872
286.862
286.884
286.872
286.892
287.523
287.526
287.529
287.533
287.533
287.541
287.54
287.548
287.549
287.556
287.557
287.565
287.566
287.576
287.576
287.587
287.585
287.601
287.595
287.616
287.605
287.631
287.62
287.644
288.212
288.215
288.22
288.218
288.229
288.224
288.237
288.234
288.244
288.246
288.251
288.258
288.261
288.272
288.273
288.285
288.285
288.302
288.298
288.319
288.312
288.339
288.328
288.356
288.868
288.871
288.873
288.878
288.879
288.887
288.886
288.897
288.896
288.907
288.907
288.918
288.92
288.932
288.934
288.948
288.949
288.967
288.964
288.987
288.98
289.009
289.001
289.03
289.49
289.493
289.495
289.498
289.503
289.506
289.512
289.515
289.523
289.527
289.534
289.542
289.547
289.558
289.562
289.576
289.578
289.597
289.596
289.62
289.615
289.645
289.635
289.67
290.08
290.083
290.086
290.088
290.094
290.097
290.102
290.108
290.112
290.122
290.125
290.136
290.14
290.152
290.157
290.172
290.175
290.195
290.194
290.22
290.214
290.246
290.238
290.276
290.64
290.644
290.645
290.651
290.651
290.659
290.661
290.67
290.673
290.682
290.687
290.698
290.703
290.716
290.72
290.737
290.74
290.761
290.761
290.788
290.784
290.817
290.808
290.849
291.172
291.175
291.177
291.181
291.184
291.189
291.194
291.199
291.207
291.214
291.22
291.231
291.236
291.249
291.255
291.272
291.276
291.298
291.298
291.326
291.322
291.357
291.35
291.389
291.676
291.678
291.681
291.683
291.689
291.692
291.698
291.705
291.709
291.72
291.724
291.736
291.742
291.755
291.761
291.779
291.783
291.805
291.807
291.835
291.832
291.868
291.86
291.902
292.153
292.157
292.156
292.165
292.161
292.174
292.172
292.184
292.187
292.197
292.203
292.214
292.221
292.234
292.241
292.259
292.263
292.287
292.288
292.317
292.315
292.352
292.345
292.386
292.606
292.607
292.613
292.61
292.623
292.618
292.632
292.631
292.643
292.648
292.657
292.667
292.675
292.688
292.695
292.714
292.718
292.741
292.745
292.774
292.772
292.808
292.801
292.846
293.035
293.038
293.036
293.047
293.041
293.058
293.05
293.069
293.065
293.082
293.083
293.098
293.103
293.118
293.125
293.144
293.149
293.173
293.175
293.204
293.204
293.241
293.235
293.278
293.441
293.442
293.448
293.445
293.457
293.452
293.468
293.464
293.48
293.482
293.494
293.502
293.511
293.525
293.532
293.551
293.557
293.58
293.584
293.613
293.613
293.649
293.643
293.689
293.826
293.829
293.828
293.837
293.833
293.847
293.842
293.859
293.856
293.873
293.875
293.889
293.895
293.91
293.918
293.937
293.942
293.966
293.97
293.998
294
294.036
294.031
294.074
294.191
294.191
294.197
294.195
294.205
294.203
294.216
294.215
294.228
294.232
294.242
294.252
294.261
294.275
294.282
294.301
294.307
294.33
294.334
294.365
294.365
294.4
294.395
294.441
294.536
294.539
294.537
294.546
294.542
294.556
294.553
294.566
294.567
294.58
294.585
294.598
294.605
294.62
294.627
294.646
294.652
294.676
294.68
294.708
294.711
294.746
294.742
294.784
294.863
294.863
294.869
294.866
294.877
294.874
294.886
294.888
294.898
294.905
294.913
294.924
294.932
294.946
294.954
294.973
294.979
295.002
295.005
295.036
295.037
295.072
295.068
295.112
295.172
295.175
295.174
295.182
295.179
295.191
295.189
295.201
295.204
295.215
295.221
295.233
295.241
295.255
295.263
295.281
295.288
295.311
295.316
295.343
295.347
295.381
295.377
295.42
295.466
295.466
295.47
295.47
295.478
295.478
295.487
295.49
295.499
295.506
295.515
295.525
295.533
295.548
295.555
295.573
295.581
295.604
295.607
295.637
295.638
295.672
295.669
295.711
295.743
295.744
295.746
295.749
295.752
295.758
295.762
295.77
295.774
295.785
295.791
295.803
295.81
295.825
295.832
295.85
295.857
295.879
295.885
295.912
295.915
295.949
295.945
295.987
296.006
296.007
296.009
296.012
296.014
296.02
296.024
296.031
296.037
296.046
296.053
296.064
296.072
296.086
296.093
296.112
296.119
296.142
296.145
296.174
296.176
296.208
296.207
296.247
296.255
296.256
296.258
296.259
296.265
296.267
296.274
296.278
296.286
296.294
296.302
296.312
296.32
296.334
296.341
296.359
296.366
296.388
296.394
296.42
296.424
296.455
296.453
296.494
296.49
296.491
296.493
296.495
296.499
296.503
296.508
296.515
296.52
296.53
296.536
296.547
296.554
296.569
296.576
296.593
296.601
296.623
296.628
296.653
296.657
296.689
296.689
296.726
296.713
296.714
296.715
296.72
296.72
296.728
296.729
296.738
296.742
296.752
296.758
296.769
296.776
296.791
296.798
296.815
296.822
296.843
296.849
296.875
296.876
296.91
296.908
296.947
296.924
296.924
296.928
296.927
296.935
296.933
296.944
296.945
296.955
296.961
296.969
296.979
296.986
297
297.008
297.024
297.031
297.053
297.058
297.083
297.087
297.117
297.117
297.154
297.123
297.125
297.124
297.131
297.128
297.14
297.136
297.15
297.149
297.163
297.166
297.179
297.185
297.199
297.206
297.223
297.23
297.25
297.255
297.282
297.282
297.315
297.314
297.352
297.313
297.312
297.316
297.315
297.324
297.321
297.333
297.332
297.343
297.347
297.356
297.366
297.373
297.387
297.394
297.41
297.417
297.437
297.443
297.468
297.471
297.501
297.5
297.536
297.491
297.493
297.491
297.499
297.495
297.508
297.503
297.517
297.516
297.529
297.532
297.545
297.55
297.564
297.572
297.588
297.594
297.615
297.619
297.645
297.644
297.678
297.675
297.712
297.66
297.66
297.665
297.662
297.672
297.668
297.68
297.68
297.689
297.695
297.702
297.713
297.719
297.732
297.739
297.756
297.761
297.782
297.787
297.812
297.814
297.843
297.842
297.877
297.82
297.822
297.819
297.829
297.822
297.837
297.831
297.846
297.844
297.857
297.859
297.873
297.877
297.891
297.898
297.915
297.919
297.941
297.943
297.97
297.969
298.002
297.998
298.034
297.972
297.971
297.976
297.973
297.983
297.978
297.991
297.989
298
298.004
298.012
298.022
298.028
298.041
298.048
298.065
298.069
298.089
298.093
298.119
298.12
298.149
298.147
298.182
298.114
298.116
298.114
298.123
298.117
298.131
298.124
298.14
298.137
298.151
298.152
298.165
298.17
298.184
298.189
298.206
298.21
298.231
298.234
298.259
298.26
298.291
298.287
298.321
298.25
298.249
298.254
298.25
298.261
298.256
298.269
298.267
298.278
298.282
298.289
298.299
298.304
298.318
298.323
298.34
298.343
298.366
298.367
298.392
298.392
298.423
298.419
298.454
298.377
298.379
298.376
298.386
298.379
298.394
298.386
298.402
298.399
298.413
298.414
298.427
298.431
298.445
298.449
298.467
298.47
298.491
298.492
298.518
298.519
298.548
298.545
298.577
298.498
298.497
298.503
298.498
298.51
298.503
298.518
298.514
298.526
298.529
298.536
298.546
298.551
298.564
298.569
298.586
298.588
298.611
298.612
298.636
298.636
298.666
298.663
298.696
298.612
298.614
298.611
298.62
298.613
298.628
298.621
298.636
298.632
298.647
298.647
298.66
298.663
298.678
298.681
298.699
298.702
298.721
298.724
298.748
298.75
298.776
298.775
298.805
298.72
298.719
298.724
298.72
298.73
298.726
298.737
298.736
298.745
298.75
298.756
298.766
298.77
298.784
298.788
298.805
298.807
298.829
298.829
298.854
298.853
298.882
298.88
298.91
298.82
298.822
298.821
298.827
298.824
298.834
298.832
298.842
298.842
298.853
298.855
298.868
298.87
298.885
298.887
298.905
298.908
298.927
298.93
298.952
298.954
298.979
298.979
299.008
298.916
298.916
298.919
298.919
298.923
298.926
298.93
298.935
298.939
298.947
298.951
298.962
298.965
298.98
298.982
298.999
299.002
299.022
299.023
299.047
299.046
299.074
299.073
299.101
299.006
299.007
299.008
299.01
299.013
299.016
299.02
299.025
299.029
299.037
299.041
299.051
299.054
299.069
299.071
299.088
299.091
299.11
299.112
299.134
299.136
299.159
299.16
299.188
299.091
299.092
299.091
299.097
299.094
299.104
299.101
299.112
299.111
299.123
299.123
299.136
299.138
299.153
299.154
299.171
299.175
299.193
299.194
299.217
299.217
299.244
299.243
299.27
299.17
299.17
299.173
299.172
299.179
299.177
299.185
299.187
299.194
299.199
299.204
299.214
299.217
299.231
299.233
299.249
299.252
299.272
299.273
299.295
299.296
299.32
299.319
299.348
299.245
299.246
299.244
299.252
299.247
299.259
299.253
299.267
299.263
299.276
299.276
299.289
299.291
299.305
299.307
299.323
299.326
299.344
299.346
299.368
299.369
299.393
299.393
299.418
299.315
299.314
299.318
299.316
299.324
299.321
299.33
299.33
299.338
299.343
299.347
299.357
299.361
299.374
299.376
299.392
299.394
299.414
299.415
299.435
299.436
299.461
299.46
299.487