/*--------------------------------*- C++ -*----------------------------------*\
  =========                 |
  \\      /  F ield         | OpenFOAM: The Open Source CFD Toolbox
   \\    /   O peration     | Website:  https://openfoam.org
    \\  /    A nd           | Version:  10
     \\/     M anipulation  |
\*---------------------------------------------------------------------------*/
FoamFile
{
    format      ascii;
    class       volVectorField;
    location    "0.21";
    object      U;
}
// * * * * * * * * * * * * * * * * * * * * * * * * * * * * * * * * * * * * * //

dimensions      [0 1 -1 0 0 0 0];

internalField   nonuniform List<vector> 
4176
(
(497.487 -0.0144811 -3.54759e-09)
(497.473 0.0643002 1.1429e-09)
(497.448 0.000726597 -3.31461e-10)
(497.399 0.091159 5.99548e-11)
(497.345 0.050147 1.19501e-10)
(497.27 0.0904512 -2.90738e-10)
(497.179 0.124873 -4.27015e-10)
(497.087 0.0615233 -8.69474e-11)
(496.952 0.224155 1.9411e-10)
(496.847 0.00594796 2.78273e-10)
(496.671 0.343199 2.04923e-10)
(496.548 -0.0678267 3.20315e-10)
(496.337 0.468583 2.90689e-10)
(496.19 -0.138094 -5.08726e-12)
(495.955 0.566481 -2.01685e-10)
(495.772 -0.134178 -1.83596e-10)
(495.535 0.527081 -2.44822e-10)
(495.285 0.0251583 -1.15293e-10)
(495.071 0.333353 2.44045e-10)
(494.728 0.324532 2.09993e-10)
(494.574 -0.0187209 -6.44194e-11)
(494.096 0.773561 -1.51784e-10)
(494.065 -0.517761 2.33135e-11)
(493.443 1.4439 9.65507e-11)
(497.468 0.00459501 -3.54723e-09)
(497.454 0.115126 1.14342e-09)
(497.429 0.0757909 -3.31689e-10)
(497.378 0.204072 5.9291e-11)
(497.323 0.185414 1.19659e-10)
(497.246 0.265177 -2.90726e-10)
(497.154 0.32078 -4.28036e-10)
(497.058 0.296616 -8.70335e-11)
(496.923 0.481112 1.9473e-10)
(496.813 0.299066 2.78531e-10)
(496.634 0.661708 2.04651e-10)
(496.507 0.279986 3.20498e-10)
(496.292 0.849154 2.8925e-10)
(496.14 0.259774 -5.00845e-12)
(495.899 1.01117 -2.01606e-10)
(495.712 0.303502 -1.83259e-10)
(495.468 1.04085 -2.46108e-10)
(495.214 0.512199 -1.15376e-10)
(494.994 0.912923 2.43132e-10)
(494.645 0.856749 2.09638e-10)
(494.49 0.626846 -6.43976e-11)
(493.991 1.3325 -1.54157e-10)
(493.954 0.123587 2.40893e-11)
(493.268 1.99423 9.61213e-11)
(497.412 0.0229464 -3.55142e-09)
(497.397 0.161787 1.14257e-09)
(497.373 0.146976 -3.33666e-10)
(497.323 0.308423 6.0367e-11)
(497.271 0.313028 1.19462e-10)
(497.194 0.427372 -2.91749e-10)
(497.106 0.504908 -4.25809e-10)
(497.01 0.515844 -8.54952e-11)
(496.88 0.72183 1.96638e-10)
(496.771 0.573719 2.78872e-10)
(496.598 0.959485 2.03944e-10)
(496.472 0.607379 3.20033e-10)
(496.262 1.20494 2.91138e-10)
(496.115 0.635354 -4.8879e-12)
(495.876 1.42738 -2.01966e-10)
(495.696 0.715248 -1.82258e-10)
(495.453 1.52136 -2.49032e-10)
(495.207 0.967455 -1.17023e-10)
(494.992 1.45575 2.43936e-10)
(494.652 1.34542 2.0931e-10)
(494.505 1.24605 -6.5401e-11)
(494.015 1.88368 -1.51607e-10)
(493.98 0.837218 2.43243e-11)
(493.27 2.61037 9.70286e-11)
(497.308 0.0416829 -3.55008e-09)
(497.293 0.209298 1.14614e-09)
(497.269 0.219481 -3.34682e-10)
(497.219 0.414751 6.35028e-11)
(497.167 0.443009 1.18857e-10)
(497.09 0.592735 -2.96316e-10)
(497.002 0.692473 -4.262e-10)
(496.906 0.739474 -8.83157e-11)
(496.776 0.967044 1.89726e-10)
(496.667 0.854024 2.82398e-10)
(496.493 1.26282 2.05085e-10)
(496.369 0.941728 3.18621e-10)
(496.157 1.56762 2.92953e-10)
(496.012 1.01954 -6.39669e-12)
(495.769 1.85226 -2.09199e-10)
(495.592 1.13673 -1.83713e-10)
(495.345 2.0158 -2.46823e-10)
(495.096 1.428 -1.17394e-10)
(494.889 2.0079 2.46351e-10)
(494.539 1.84229 2.08795e-10)
(494.397 1.85666 -6.82547e-11)
(493.914 2.42152 -1.52535e-10)
(493.884 1.5242 2.24925e-11)
(493.204 3.20715 8.74712e-11)
(497.156 0.0600164 -3.55219e-09)
(497.142 0.255825 1.15236e-09)
(497.118 0.29041 -3.30982e-10)
(497.068 0.518946 6.35961e-11)
(497.017 0.570157 1.22287e-10)
(496.94 0.754909 -2.91072e-10)
(496.854 0.875954 -4.28612e-10)
(496.759 0.95902 -8.64636e-11)
(496.63 1.20692 1.95093e-10)
(496.523 1.1295 2.80477e-10)
(496.35 1.55961 2.05472e-10)
(496.228 1.27052 3.21838e-10)
(496.017 1.92288 2.89798e-10)
(495.875 1.39729 -7.29015e-12)
(495.633 2.26997 -2.07367e-10)
(495.46 1.55142 -1.86448e-10)
(495.209 2.51113 -2.48109e-10)
(494.965 1.87118 -1.16611e-10)
(494.762 2.55297 2.41012e-10)
(494.41 2.3402 2.14657e-10)
(494.27 2.45114 -6.05934e-11)
(493.792 2.94735 -1.49712e-10)
(493.762 2.16681 2.60378e-11)
(493.102 3.76504 9.82282e-11)
(496.956 0.0783419 -3.56451e-09)
(496.942 0.302057 1.14989e-09)
(496.918 0.361185 -3.29607e-10)
(496.868 0.622555 5.90395e-11)
(496.818 0.697001 1.11297e-10)
(496.741 0.916229 -2.96347e-10)
(496.656 1.059 -4.26641e-10)
(496.561 1.17752 -9.06502e-11)
(496.434 1.44622 1.95558e-10)
(496.326 1.4039 2.85965e-10)
(496.156 1.85552 2.05952e-10)
(496.034 1.59849 3.16494e-10)
(495.824 2.27654 2.8738e-10)
(495.683 1.77493 -4.81794e-12)
(495.442 2.68439 -2.10494e-10)
(495.273 1.97036 -1.84089e-10)
(495.017 3.00174 -2.37791e-10)
(494.786 2.31407 -1.13748e-10)
(494.569 3.10251 2.50952e-10)
(494.228 2.83699 2.16884e-10)
(494.083 3.0474 -6.4887e-11)
(493.61 3.47538 -1.6055e-10)
(493.574 2.8137 2.27451e-11)
(492.913 4.32198 9.84264e-11)
(496.707 0.0964897 -3.56399e-09)
(496.693 0.347624 1.14676e-09)
(496.67 0.431167 -3.45381e-10)
(496.62 0.724725 5.92449e-11)
(496.571 0.822388 1.26135e-10)
(496.494 1.07533 -2.95648e-10)
(496.411 1.23995 -4.3853e-10)
(496.316 1.39308 -8.63769e-11)
(496.191 1.68277 2.01997e-10)
(496.084 1.6748 2.81338e-10)
(495.915 2.14799 2.03378e-10)
(495.794 1.92266 3.27861e-10)
(495.587 2.62581 3.03443e-10)
(495.447 2.14893 -2.85673e-12)
(495.207 3.09272 -2.06178e-10)
(495.042 2.38765 -1.81023e-10)
(494.784 3.48134 -2.47473e-10)
(494.564 2.75876 -1.19403e-10)
(494.336 3.64991 2.45572e-10)
(494.009 3.32183 2.14506e-10)
(493.859 3.6426 -6.6365e-11)
(493.391 4.00301 -1.6077e-10)
(493.351 3.47027 2.50216e-11)
(492.692 4.88423 1.03428e-10)
(496.41 0.1145 -3.57966e-09)
(496.396 0.392723 1.15674e-09)
(496.373 0.500526 -3.24992e-10)
(496.323 0.825873 6.28861e-11)
(496.275 0.946604 1.13459e-10)
(496.199 1.23284 -2.92896e-10)
(496.116 1.41914 -4.22561e-10)
(496.022 1.60649 -8.79021e-11)
(495.899 1.917 1.83725e-10)
(495.792 1.94309 2.7892e-10)
(495.626 2.43752 2.14424e-10)
(495.506 2.24394 3.22519e-10)
(495.3 2.97147 2.78166e-10)
(495.163 2.51997 -1.1473e-11)
(494.923 3.49656 -1.99251e-10)
(494.762 2.80245 -1.89335e-10)
(494.503 3.95356 -2.44079e-10)
(494.291 3.20104 -1.02847e-10)
(494.058 4.19262 2.49543e-10)
(493.742 3.80218 1.99892e-10)
(493.585 4.23602 -6.6622e-11)
(493.126 4.52587 -1.44768e-10)
(493.082 4.12147 2.2441e-11)
(492.431 5.43923 8.01709e-11)
(496.064 0.132327 -3.58983e-09)
(496.05 0.437265 1.14294e-09)
(496.028 0.569099 -3.4683e-10)
(495.979 0.92579 5.07918e-11)
(495.931 1.06936 1.13508e-10)
(495.855 1.3884 -3.01405e-10)
(495.774 1.59616 -4.38425e-10)
(495.68 1.81725 -9.13671e-11)
(495.558 2.1483 1.90236e-10)
(495.453 2.20809 2.75958e-10)
(495.288 2.72338 2.02799e-10)
(495.17 2.56145 3.21314e-10)
(494.966 3.31266 2.86859e-10)
(494.831 2.887 -1.01605e-11)
(494.593 3.89496 -2.06074e-10)
(494.436 3.21342 -1.86477e-10)
(494.176 4.41731 -2.48609e-10)
(493.973 3.64037 -1.13928e-10)
(493.734 4.72852 2.46227e-10)
(493.43 4.27581 2.06865e-10)
(493.267 4.82692 -6.86625e-11)
(492.817 5.04403 -1.55969e-10)
(492.77 4.7682 2.41386e-11)
(492.126 5.98758 9.64838e-11)
(495.67 0.149971 -3.57291e-09)
(495.656 0.481259 1.17124e-09)
(495.634 0.636883 -3.27958e-10)
(495.585 1.0245 7.40878e-11)
(495.538 1.19065 1.3222e-10)
(495.463 1.54207 -2.84544e-10)
(495.383 1.771 -4.22039e-10)
(495.29 2.02539 -7.43051e-11)
(495.17 2.37664 2.08611e-10)
(495.066 2.46976 2.92806e-10)
(494.903 3.00547 2.21361e-10)
(494.786 2.87506 3.37517e-10)
(494.584 3.64926 3.05697e-10)
(494.452 3.24979 2.54583e-12)
(494.215 4.28782 -1.92583e-10)
(494.062 3.62024 -1.75983e-10)
(493.802 4.87293 -2.35041e-10)
(493.607 4.07594 -1.02999e-10)
(493.363 5.25693 2.60236e-10)
(493.071 4.74322 2.18544e-10)
(492.902 5.41315 -5.66129e-11)
(492.463 5.55554 -1.43926e-10)
(492.412 5.4087 3.35376e-11)
(491.778 6.5276 1.05599e-10)
(495.228 0.167402 -3.59262e-09)
(495.214 0.52465 1.15966e-09)
(495.192 0.703779 -3.37612e-10)
(495.144 1.12188 6.67314e-11)
(495.097 1.31033 1.25602e-10)
(495.023 1.69366 -2.92776e-10)
(494.944 1.94346 -4.27556e-10)
(494.852 2.2307 -7.63392e-11)
(494.733 2.60177 2.06894e-10)
(494.631 2.72783 2.91248e-10)
(494.469 3.28344 2.21882e-10)
(494.355 3.18435 3.40387e-10)
(494.155 3.98081 3.08633e-10)
(494.025 3.60776 4.2934e-12)
(493.79 4.67466 -1.88053e-10)
(493.641 4.02221 -1.70196e-10)
(493.381 5.3203 -2.27799e-10)
(493.193 4.50722 -9.6808e-11)
(492.946 5.77706 2.70818e-10)
(492.666 5.20512 2.29394e-10)
(492.491 5.99181 -6.83807e-11)
(492.065 6.0581 -1.77956e-10)
(492.009 6.04369 4.29421e-12)
(491.386 7.0589 7.44241e-11)
(494.737 0.1846 -3.59976e-09)
(494.723 0.567395 1.16222e-09)
(494.701 0.769711 -3.40862e-10)
(494.653 1.21784 6.14298e-11)
(494.607 1.42827 1.20676e-10)
(494.534 1.84308 -2.98966e-10)
(494.456 2.1134 -4.36187e-10)
(494.366 2.43305 -8.64997e-11)
(494.248 2.82354 1.96991e-10)
(494.147 2.98212 2.81964e-10)
(493.988 3.55711 2.11587e-10)
(493.875 3.48907 3.31524e-10)
(493.677 4.30702 2.9797e-10)
(493.551 3.96049 -5.40945e-12)
(493.317 5.05509 -2.0279e-10)
(493.172 4.41871 -1.84114e-10)
(492.914 5.75946 -2.45152e-10)
(492.733 4.93383 -1.10189e-10)
(492.483 6.28815 2.52503e-10)
(492.214 5.65939 2.11021e-10)
(492.035 6.56319 -6.35443e-11)
(491.62 6.55221 -1.48724e-10)
(491.561 6.67066 3.02287e-11)
(490.949 7.58075 1.00888e-10)
(494.197 0.201536 -3.60741e-09)
(494.183 0.609436 1.16166e-09)
(494.162 0.83458 -3.47026e-10)
(494.114 1.31226 5.5653e-11)
(494.069 1.54431 1.12517e-10)
(493.997 1.99012 -3.11548e-10)
(493.92 2.2806 -4.51253e-10)
(493.831 2.63221 -1.03292e-10)
(493.715 3.0417 1.80254e-10)
(493.615 3.2324 2.63447e-10)
(493.458 3.82621 1.85562e-10)
(493.348 3.78891 3.05777e-10)
(493.152 4.62757 2.65386e-10)
(493.028 4.30757 -1.09321e-11)
(492.797 5.42867 -1.79075e-10)
(492.657 4.80907 -1.67021e-10)
(492.4 6.19028 -2.27261e-10)
(492.225 5.3554 -9.78054e-11)
(491.973 6.78962 2.65195e-10)
(491.715 6.10601 2.21448e-10)
(491.532 7.12569 -5.54584e-11)
(491.13 7.03626 -1.43654e-10)
(491.068 7.28907 3.55457e-11)
(490.468 8.09273 1.03992e-10)
(493.608 0.218187 -3.60693e-09)
(493.594 0.65072 1.18596e-09)
(493.574 0.898294 -3.48134e-10)
(493.526 1.40502 3.62483e-11)
(493.482 1.65829 1.09659e-10)
(493.411 2.13461 -3.02981e-10)
(493.335 2.44484 -4.30809e-10)
(493.247 2.82796 -6.60214e-11)
(493.133 3.25601 1.99826e-10)
(493.036 3.47841 2.64232e-10)
(492.881 4.09048 1.98863e-10)
(492.772 4.08361 3.29626e-10)
(492.579 4.94219 3.0796e-10)
(492.459 4.64863 8.24546e-12)
(492.23 5.79505 -2.12393e-10)
(492.093 5.19277 -2.08176e-10)
(491.838 6.61235 -2.63862e-10)
(491.67 5.77133 -1.16429e-10)
(491.416 7.28098 2.5962e-10)
(491.17 6.54437 2.27244e-10)
(490.983 7.67882 -6.7903e-11)
(490.593 7.5094 -1.72614e-10)
(490.529 7.89739 1.87095e-11)
(489.941 8.59427 1.01216e-10)
(492.97 0.234529 -3.62929e-09)
(492.956 0.691199 1.14737e-09)
(492.936 0.960766 -3.39591e-10)
(492.89 1.49599 9.29426e-11)
(492.846 1.77004 1.3545e-10)
(492.776 2.27634 -3.00537e-10)
(492.702 2.60589 -4.51527e-10)
(492.615 3.02001 -1.12027e-10)
(492.503 3.46616 1.97354e-10)
(492.407 3.71984 3.06675e-10)
(492.255 4.34962 2.19957e-10)
(492.149 4.37284 3.2426e-10)
(491.958 5.25056 2.73881e-10)
(491.841 4.98334 -1.33834e-11)
(491.615 6.15388 -1.88475e-10)
(491.483 5.56934 -1.79259e-10)
(491.229 7.02522 -2.53855e-10)
(491.068 6.18091 -1.27825e-10)
(490.813 7.76163 2.19148e-10)
(490.579 6.97419 1.98236e-10)
(490.387 8.22218 -5.50353e-11)
(490.011 7.97077 -1.48459e-10)
(489.944 8.49442 1.88811e-11)
(489.37 9.08484 7.58899e-11)
(492.283 0.250542 -3.62203e-09)
(492.269 0.730827 1.19873e-09)
(492.25 1.02192 -3.47248e-10)
(492.204 1.58505 3.32682e-11)
(492.162 1.8794 1.08157e-10)
(492.092 2.41512 -3.01553e-10)
(492.02 2.76348 -4.24288e-10)
(491.935 3.20809 -5.87394e-11)
(491.824 3.67183 2.01821e-10)
(491.731 3.95632 2.66293e-10)
(491.58 4.60324 2.06065e-10)
(491.477 4.65623 3.38541e-10)
(491.289 5.55235 3.18653e-10)
(491.175 5.31132 -1.69828e-11)
(490.952 6.50485 -2.45128e-10)
(490.824 5.93835 -2.04862e-10)
(490.573 7.42853 -2.54429e-10)
(490.419 6.58331 -1.02956e-10)
(490.163 8.2308 2.75327e-10)
(489.941 7.39518 2.04854e-10)
(489.745 8.7551 -9.40941e-11)
(489.383 8.42007 -1.6179e-10)
(489.313 9.07954 3.22721e-11)
(488.753 9.56374 1.13484e-10)
(491.546 0.266203 -3.64493e-09)
(491.533 0.769558 1.16303e-09)
(491.514 1.08167 -3.65984e-10)
(491.468 1.67211 2.94879e-11)
(491.427 1.98622 1.18975e-10)
(491.359 2.55075 -2.75586e-10)
(491.288 2.91738 -4.21449e-10)
(491.205 3.39189 -7.7228e-11)
(491.097 3.87265 1.99058e-10)
(491.005 4.18747 2.78143e-10)
(490.858 4.85094 1.95177e-10)
(490.757 4.93333 3.07482e-10)
(490.572 5.84713 2.99624e-10)
(490.462 5.63216 1.35801e-11)
(490.241 6.84761 -1.94763e-10)
(490.118 6.29942 -1.81725e-10)
(489.87 7.82202 -2.51061e-10)
(489.722 6.9777 -1.19384e-10)
(489.467 8.68767 2.3341e-10)
(489.256 7.80702 1.81805e-10)
(489.057 9.27608 -1.05805e-10)
(488.71 8.85795 -1.58679e-10)
(488.635 9.65319 5.02189e-11)
(488.091 10.0297 1.10257e-10)
(490.76 0.281489 -3.64579e-09)
(490.747 0.80734 1.18956e-09)
(490.728 1.13993 -3.32875e-10)
(490.683 1.75704 8.43815e-11)
(490.643 2.09034 1.4249e-10)
(490.576 2.68303 -2.807e-10)
(490.507 3.06733 -4.14621e-10)
(490.426 3.57113 -5.30598e-11)
(490.32 4.0683 2.40108e-10)
(490.231 4.41289 2.90684e-10)
(490.086 5.09227 1.79543e-10)
(489.989 5.20366 3.04587e-10)
(489.807 6.13442 2.67227e-10)
(489.7 5.94535 -3.82771e-11)
(489.483 7.18174 -2.37161e-10)
(489.365 6.65211 -2.07235e-10)
(489.119 8.20545 -2.68377e-10)
(488.978 7.36331 -1.22848e-10)
(488.724 9.13158 2.46828e-10)
(488.524 8.2094 2.10333e-10)
(488.322 9.78468 -6.23767e-11)
(487.99 9.28398 -1.44486e-10)
(487.911 10.2145 3.91124e-11)
(487.382 10.4822 1.14332e-10)
(489.924 0.29637 -3.66149e-09)
(489.911 0.844109 1.17854e-09)
(489.893 1.1966 -3.5416e-10)
(489.849 1.83969 5.8227e-11)
(489.81 2.19158 1.09963e-10)
(489.744 2.81175 -3.24681e-10)
(489.677 3.21308 -4.61511e-10)
(489.597 3.74551 -1.03124e-10)
(489.494 4.25842 1.82151e-10)
(489.407 4.6322 2.67025e-10)
(489.265 5.3268 1.92965e-10)
(489.171 5.46674 3.09583e-10)
(488.993 6.4137 2.63486e-10)
(488.89 6.25034 -4.65999e-11)
(488.676 7.50669 -2.55554e-10)
(488.563 6.99587 -2.30447e-10)
(488.321 8.57837 -2.56037e-10)
(488.186 7.73965 -8.19733e-11)
(487.934 9.56207 2.8708e-10)
(487.746 8.60193 2.36735e-10)
(487.541 10.2804 -4.16896e-11)
(487.223 9.69786 -1.33389e-10)
(487.14 10.763 4.73611e-11)
(486.628 10.9207 1.18597e-10)
(489.038 0.310813 -3.68687e-09)
(489.025 0.879787 1.19237e-09)
(489.007 1.25155 -3.25815e-10)
(488.964 1.91991 6.32684e-11)
(488.926 2.28973 1.35956e-10)
(488.862 2.93668 -2.76198e-10)
(488.796 3.35436 -4.409e-10)
(488.719 3.91474 -1.07283e-10)
(488.618 4.44269 2.00685e-10)
(488.534 4.84502 3.06723e-10)
(488.396 5.55411 2.07126e-10)
(488.305 5.72208 3.40086e-10)
(488.13 6.68447 3.14013e-10)
(488.032 6.54653 -2.67273e-11)
(487.822 7.82189 -2.10841e-10)
(487.714 7.33007 -1.71124e-10)
(487.475 8.94024 -2.61347e-10)
(487.347 8.10615 -1.44391e-10)
(487.097 9.97877 2.37887e-10)
(486.92 8.98418 2.09917e-10)
(486.713 10.7627 -9.5173e-11)
(486.41 10.0993 -1.61615e-10)
(486.323 11.2979 3.49993e-11)
(485.828 11.3448 8.20217e-11)
(488.101 0.324777 -3.67671e-09)
(488.088 0.914285 1.20685e-09)
(488.071 1.30465 -3.2706e-10)
(488.029 1.99751 9.79242e-11)
(487.992 2.38458 1.54384e-10)
(487.93 3.05756 -3.15092e-10)
(487.866 3.49091 -4.87976e-10)
(487.791 4.07853 -1.16304e-10)
(487.693 4.62079 1.83066e-10)
(487.612 5.05102 2.7625e-10)
(487.477 5.77382 2.07854e-10)
(487.389 5.96926 3.36743e-10)
(487.218 6.94622 3.05338e-10)
(487.124 6.83338 -1.50505e-12)
(486.918 8.12676 -1.92772e-10)
(486.816 7.65403 -1.67436e-10)
(486.581 9.29047 -2.23665e-10)
(486.46 8.46212 -1.1987e-10)
(486.212 10.3813 2.10206e-10)
(486.046 9.3558 1.77706e-10)
(485.837 11.231 -9.56428e-11)
(485.551 10.4879 -1.74492e-10)
(485.459 11.8187 8.59255e-12)
(484.981 11.7541 9.09048e-11)
(487.113 0.338223 -3.70633e-09)
(487.101 0.947512 1.16252e-09)
(487.084 1.35574 -3.51502e-10)
(487.043 2.07229 9.8474e-11)
(487.008 2.47587 1.31226e-10)
(486.947 3.17413 -3.16331e-10)
(486.886 3.6224 -4.65574e-10)
(486.813 4.23656 -7.27091e-11)
(486.718 4.79238 2.46896e-10)
(486.64 5.24984 3.15081e-10)
(486.508 5.98554 2.23277e-10)
(486.425 6.20788 3.24114e-10)
(486.257 7.19852 2.61748e-10)
(486.168 7.11036 -2.44923e-11)
(485.966 8.42074 -1.98621e-10)
(485.87 7.9671 -1.89813e-10)
(485.639 9.62841 -2.6921e-10)
(485.526 8.80675 -1.41391e-10)
(485.281 10.7693 2.55883e-10)
(485.125 9.71642 2.33447e-10)
(484.915 11.6843 -6.20852e-11)
(484.644 10.8632 -1.6628e-10)
(484.549 12.325 -5.18238e-12)
(484.089 12.1482 9.57106e-11)
(486.075 0.351113 -3.72084e-09)
(486.063 0.979381 1.16691e-09)
(486.047 1.40469 -3.52852e-10)
(486.007 2.14406 1.04335e-10)
(485.973 2.56338 1.41498e-10)
(485.914 3.2861 -3.12216e-10)
(485.855 3.74854 -4.66959e-10)
(485.785 4.38849 -1.22623e-10)
(485.693 4.9571 1.97945e-10)
(485.618 5.44113 3.21186e-10)
(485.489 6.18892 2.34269e-10)
(485.41 6.43755 3.3489e-10)
(485.247 7.44097 2.72705e-10)
(485.163 7.37704 -1.57622e-11)
(484.965 8.70333 -1.89124e-10)
(484.875 8.26868 -1.85748e-10)
(484.648 9.95343 -2.64767e-10)
(484.543 9.13918 -1.32474e-10)
(484.301 11.1424 2.67133e-10)
(484.156 10.0656 2.42858e-10)
(483.945 12.1217 -5.23088e-11)
(483.691 11.2247 -1.5777e-10)
(483.591 12.8162 9.60364e-12)
(483.15 12.5267 6.85609e-11)
(484.986 0.363415 -3.74047e-09)
(484.974 1.00982 1.21158e-09)
(484.959 1.45137 -3.29174e-10)
(484.92 2.21266 6.10725e-11)
(484.888 2.64688 8.60171e-11)
(484.83 3.39322 -3.29582e-10)
(484.774 3.86901 -4.42693e-10)
(484.706 4.53399 -1.06752e-10)
(484.617 5.11458 2.04168e-10)
(484.545 5.6245 3.1229e-10)
(484.421 6.38356 2.0893e-10)
(484.346 6.6579 3.51054e-10)
(484.187 7.67318 3.31782e-10)
(484.108 7.63301 -2.11904e-11)
(483.915 8.97412 -2.59365e-10)
(483.831 8.55827 -2.10125e-10)
(483.609 10.265 -2.49397e-10)
(483.511 9.45871 -1.27842e-10)
(483.273 11.5002 2.62735e-10)
(483.139 10.4029 2.2959e-10)
(482.927 12.5421 -7.8976e-11)
(482.689 11.5716 -1.44222e-10)
(482.587 13.2912 6.0649e-11)
(482.164 12.8891 1.02133e-10)
(483.846 0.375108 -3.72177e-09)
(483.833 1.03878 1.23978e-09)
(483.819 1.49571 -3.15018e-10)
(483.781 2.27796 7.26819e-11)
(483.751 2.7262 9.1489e-11)
(483.696 3.49525 -3.312e-10)
(483.642 3.98353 -4.4941e-10)
(483.577 4.67272 -6.33134e-11)
(483.491 5.26447 2.43032e-10)
(483.423 5.79958 2.92665e-10)
(483.303 6.56906 1.82566e-10)
(483.232 6.86853 3.21332e-10)
(483.077 7.89475 2.94359e-10)
(483.003 7.87789 -1.17439e-11)
(482.816 9.23271 -1.99674e-10)
(482.738 8.83544 -1.61352e-10)
(482.52 10.5627 -2.61026e-10)
(482.43 9.7648 -1.47172e-10)
(482.197 11.8421 2.36061e-10)
(482.073 10.7274 2.01535e-10)
(481.862 12.9451 -6.3077e-11)
(481.64 11.903 -1.34937e-10)
(481.535 13.7489 6.63071e-11)
(481.132 13.2347 1.02446e-10)
(482.654 0.386175 -3.72893e-09)
(482.642 1.06622 1.21373e-09)
(482.629 1.53763 -3.75627e-10)
(482.592 2.33986 8.48642e-11)
(482.564 2.80121 1.18684e-10)
(482.51 3.59202 -3.38389e-10)
(482.459 4.09188 -4.34446e-10)
(482.396 4.80442 -8.51858e-11)
(482.314 5.40642 1.83339e-10)
(482.25 5.96599 3.10362e-10)
(482.134 6.745 2.2256e-10)
(482.067 7.06901 3.22613e-10)
(481.918 8.10524 3.17748e-10)
(481.849 8.11125 -2.26917e-11)
(481.666 9.47871 -2.5209e-10)
(481.595 9.0998 -1.92453e-10)
(481.382 10.8461 -2.7298e-10)
(481.3 10.057 -1.37263e-10)
(481.071 12.1676 2.65914e-10)
(480.959 11.0385 1.97066e-10)
(480.748 13.33 -1.03254e-10)
(480.543 12.2181 -1.55125e-10)
(480.436 14.188 6.58927e-12)
(480.052 13.5632 6.75065e-11)
(481.412 0.396606 -3.80004e-09)
(481.4 1.09212 1.19319e-09)
(481.387 1.57709 -3.77263e-10)
(481.352 2.39829 5.55879e-11)
(481.325 2.8718 1.19227e-10)
(481.273 3.68339 -3.16688e-10)
(481.225 4.19386 -4.47199e-10)
(481.165 4.92885 -6.75254e-11)
(481.087 5.54015 2.30207e-10)
(481.026 6.12338 3.22984e-10)
(480.914 6.91099 2.58185e-10)
(480.852 7.25891 3.29481e-10)
(480.708 8.30421 2.89543e-10)
(480.644 8.33267 -2.88231e-11)
(480.467 9.71169 -2.29956e-10)
(480.402 9.35096 -1.98266e-10)
(480.195 11.1149 -2.56172e-10)
(480.121 10.3348 -1.01174e-10)
(479.897 12.4764 2.78955e-10)
(479.795 11.3355 2.27923e-10)
(479.586 13.696 -1.03877e-10)
(479.398 12.5165 -1.80973e-10)
(479.288 14.6081 7.05947e-12)
(478.924 13.8745 8.34545e-11)
(480.118 0.406391 -3.77231e-09)
(480.106 1.11644 1.2506e-09)
(480.094 1.61406 -3.21834e-10)
(480.06 2.4532 6.83998e-11)
(480.035 2.9379 8.53279e-11)
(479.986 3.76927 -3.48347e-10)
(479.94 4.28936 -4.66054e-10)
(479.883 5.04583 -7.32333e-11)
(479.808 5.66543 2.31415e-10)
(479.751 6.27148 3.35992e-10)
(479.644 7.06668 2.23854e-10)
(479.587 7.43785 3.0805e-10)
(479.447 8.49122 2.78428e-10)
(479.39 8.54168 -3.50215e-11)
(479.218 9.93122 -2.25224e-10)
(479.159 9.58846 -1.82645e-10)
(478.958 11.3687 -2.26912e-10)
(478.892 10.5979 -6.39339e-11)
(478.673 12.7682 2.68458e-10)
(478.582 11.6174 1.76201e-10)
(478.375 14.0419 -9.23346e-11)
(478.204 12.7985 -1.60439e-10)
(478.091 15.0101 4.2452e-11)
(477.747 14.1689 1.31738e-10)
(478.772 0.415516 -3.77304e-09)
(478.761 1.13917 1.22293e-09)
(478.75 1.64848 -3.99097e-10)
(478.717 2.50452 6.23691e-11)
(478.694 2.99945 1.56277e-10)
(478.646 3.84956 -3.12824e-10)
(478.603 4.37827 -4.79599e-10)
(478.55 5.15525 -7.28979e-11)
(478.478 5.78209 1.96779e-10)
(478.425 6.41008 2.60065e-10)
(478.322 7.21182 2.24826e-10)
(478.27 7.60549 3.79355e-10)
(478.136 8.66588 3.03943e-10)
(478.084 8.73782 -4.71156e-11)
(477.918 10.1368 -2.20286e-10)
(477.867 9.81182 -1.60871e-10)
(477.671 11.6071 -2.5234e-10)
(477.614 10.8458 -1.29324e-10)
(477.4 13.0429 2.82565e-10)
(477.319 11.8836 2.03442e-10)
(477.115 14.3668 -1.11549e-10)
(476.961 13.064 -1.6626e-10)
(476.845 15.3927 5.47408e-11)
(476.523 14.445 1.05001e-10)
(477.376 0.423965 -3.84733e-09)
(477.364 1.16026 1.20084e-09)
(477.354 1.68031 -3.88627e-10)
(477.322 2.55219 4.98626e-11)
(477.301 3.05636 1.08763e-10)
(477.256 3.9242 -3.39576e-10)
(477.215 4.4605 -4.69249e-10)
(477.165 5.25702 -8.50251e-11)
(477.097 5.89005 2.10482e-10)
(477.048 6.53905 2.97853e-10)
(476.95 7.3462 2.32002e-10)
(476.903 7.76161 3.62984e-10)
(476.774 8.82786 3.17624e-10)
(476.728 8.92074 -1.27526e-11)
(476.568 10.328 -2.1504e-10)
(476.523 10.0205 -1.84256e-10)
(476.334 11.8296 -2.4653e-10)
(476.285 11.078 -9.55961e-11)
(476.076 13.2999 2.90602e-10)
(476.006 12.1338 2.37074e-10)
(475.806 14.6701 -4.23508e-11)
(475.668 13.3131 -1.88756e-10)
(475.55 15.7543 -7.03434e-12)
(475.25 14.7008 7.74904e-11)
(475.927 0.431721 -3.78678e-09)
(475.916 1.17969 1.26945e-09)
(475.907 1.70948 -3.48023e-10)
(475.876 2.59614 9.0014e-11)
(475.857 3.10855 1.40001e-10)
(475.814 3.99308 -3.15357e-10)
(475.776 4.53597 -4.52269e-10)
(475.729 5.35105 -7.19828e-11)
(475.665 5.9892 2.18154e-10)
(475.62 6.65833 2.99243e-10)
(475.526 7.46974 2.26668e-10)
(475.484 7.90609 3.46128e-10)
(475.36 8.97695 2.93083e-10)
(475.321 9.09014 -3.74233e-11)
(475.166 10.5044 -2.54912e-10)
(475.129 10.2142 -2.31806e-10)
(474.946 12.0356 -2.99522e-10)
(474.905 11.2941 -8.39753e-11)
(474.703 13.539 2.92588e-10)
(474.643 12.3673 2.26637e-10)
(474.447 14.9515 -5.54034e-11)
(474.326 13.5446 -1.50117e-10)
(474.206 16.0947 3.13284e-11)
(473.927 14.9373 1.063e-10)
(474.427 0.43877 -3.81904e-09)
(474.417 1.1974 1.24669e-09)
(474.408 1.73596 -3.87034e-10)
(474.379 2.63629 9.01619e-11)
(474.361 3.15593 1.27954e-10)
(474.32 4.05611 -3.43537e-10)
(474.285 4.60458 -4.41285e-10)
(474.241 5.43725 -7.80136e-11)
(474.181 6.07947 2.00231e-10)
(474.14 6.76785 3.26265e-10)
(474.051 7.58238 2.34178e-10)
(474.013 8.03887 3.41369e-10)
(473.895 9.11307 3.33111e-10)
(473.862 9.24591 -1.96532e-11)
(473.713 10.6657 -2.49796e-10)
(473.684 10.3923 -1.84611e-10)
(473.506 12.2247 -2.67434e-10)
(473.475 11.4933 -1.30732e-10)
(473.279 13.7594 2.94311e-10)
(473.23 12.5837 2.157e-10)
(473.038 15.2111 -9.56737e-11)
(472.933 13.7585 -1.38997e-10)
(472.811 16.4132 3.20427e-11)
(472.555 15.1543 8.38186e-11)
(472.875 0.445103 -3.88571e-09)
(472.865 1.2134 1.25198e-09)
(472.858 1.7597 -3.50829e-10)
(472.829 2.67261 4.97533e-11)
(472.814 3.19846 1.34746e-10)
(472.775 4.11324 -2.98021e-10)
(472.743 4.66625 -4.81708e-10)
(472.702 5.51555 -7.10934e-11)
(472.645 6.16078 2.47252e-10)
(472.609 6.86754 2.88823e-10)
(472.524 7.68405 2.41724e-10)
(472.492 8.15993 3.93891e-10)
(472.378 9.23617 3.01099e-10)
(472.351 9.38802 -1.40739e-11)
(472.209 10.8119 -1.97409e-10)
(472.187 10.5549 -2.1581e-10)
(472.016 12.3966 -2.6172e-10)
(471.993 11.6752 -8.28187e-11)
(471.803 13.9607 2.62061e-10)
(471.765 12.782 2.22188e-10)
(471.579 15.4491 -4.21213e-11)
(471.488 13.9557 -1.68631e-10)
(471.366 16.7085 3.90916e-11)
(471.132 15.3505 1.31342e-10)
(471.272 0.450721 -3.86425e-09)
(471.262 1.22767 1.29491e-09)
(471.255 1.78072 -3.20335e-10)
(471.228 2.70507 8.52367e-11)
(471.214 3.23612 9.64667e-11)
(471.178 4.16442 -3.40807e-10)
(471.149 4.72093 -4.507e-10)
(471.111 5.58587 -4.38674e-11)
(471.058 6.23304 2.75333e-10)
(471.025 6.95732 3.23463e-10)
(470.945 7.77467 2.02494e-10)
(470.918 8.26923 3.50342e-10)
(470.81 9.34623 3.29171e-10)
(470.789 9.51649 1.07876e-11)
(470.653 10.943 -1.78106e-10)
(470.638 10.7018 -1.97986e-10)
(470.473 12.5511 -3.11119e-10)
(470.46 11.8396 -1.25449e-10)
(470.277 14.1424 2.77535e-10)
(470.249 12.9613 2.35024e-10)
(470.069 15.6653 -2.18358e-11)
(469.993 14.1362 -1.57622e-10)
(469.869 16.98 -1.52417e-11)
(469.659 15.5256 8.40209e-11)
(469.617 0.455629 -3.9402e-09)
(469.607 1.24024 1.2259e-09)
(469.601 1.79903 -4.06697e-10)
(469.575 2.73371 3.63845e-11)
(469.563 3.26892 9.67968e-11)
(469.529 4.20966 -3.63465e-10)
(469.503 4.76862 -4.99091e-10)
(469.468 5.64818 -1.11865e-10)
(469.419 6.29621 1.89445e-10)
(469.39 7.03711 2.77838e-10)
(469.315 7.85417 2.03484e-10)
(469.293 8.36667 3.32144e-10)
(469.19 9.44317 2.82417e-10)
(469.176 9.63131 -5.4583e-11)
(469.045 11.0589 -2.69175e-10)
(469.038 10.8332 -2.36839e-10)
(468.879 12.6882 -3.05275e-10)
(468.875 11.9863 -1.44041e-10)
(468.698 14.3043 2.37277e-10)
(468.682 13.1213 1.80952e-10)
(468.507 15.8587 -1.13333e-10)
(468.446 14.2994 -1.94541e-10)
(468.322 17.2273 -8.04654e-12)
(468.135 15.6792 7.24407e-11)
(467.91 0.459839 -3.8918e-09)
(467.9 1.25113 1.2705e-09)
(467.895 1.81467 -3.95707e-10)
(467.871 2.75858 1.01266e-10)
(467.86 3.29693 1.37327e-10)
(467.828 4.24902 -3.44215e-10)
(467.805 4.80935 -4.33422e-10)
(467.773 5.70251 -6.29909e-11)
(467.728 6.35026 2.18087e-10)
(467.703 7.10688 3.54322e-10)
(467.632 7.92244 2.59771e-10)
(467.615 8.45216 3.60564e-10)
(467.518 9.52687 3.5994e-10)
(467.51 9.7324 -2.78831e-12)
(467.385 11.1596 -2.35411e-10)
(467.385 10.9492 -2.24774e-10)
(467.233 12.8081 -3.13501e-10)
(467.238 12.1156 -1.06214e-10)
(467.067 14.4466 2.60592e-10)
(467.062 13.2617 1.8169e-10)
(466.893 16.0292 -6.40866e-11)
(466.846 14.4441 -1.70778e-10)
(466.724 17.4493 -7.77407e-12)
(466.56 15.8112 1.16133e-10)
(466.151 0.463363 -3.90227e-09)
(466.141 1.26036 1.28452e-09)
(466.137 1.8277 -3.91237e-10)
(466.114 2.77973 1.09181e-10)
(466.105 3.32021 1.44604e-10)
(466.075 4.28257 -3.39191e-10)
(466.054 4.84321 -4.28298e-10)
(466.025 5.74892 -5.55006e-11)
(465.984 6.39525 2.2626e-10)
(465.964 7.16663 2.93872e-10)
(465.898 7.97947 1.98236e-10)
(465.886 8.52563 3.75851e-10)
(465.794 9.59721 3.04979e-10)
(465.792 9.81961 -5.66148e-11)
(465.673 11.245 -2.22684e-10)
(465.681 11.0496 -2.12657e-10)
(465.535 12.9108 -3.00696e-10)
(465.548 12.2278 -9.3259e-11)
(465.384 14.5695 2.77133e-10)
(465.39 13.3829 1.94958e-10)
(465.227 16.1773 -5.04989e-11)
(465.194 14.5689 -1.59354e-10)
(465.075 17.6444 1.367e-11)
(464.933 15.9218 1.35591e-10)
(464.339 0.466213 -3.93874e-09)
(464.33 1.26797 1.33765e-09)
(464.327 1.83815 -3.65991e-10)
(464.305 2.79723 5.09559e-11)
(464.298 3.33884 1.4495e-10)
(464.27 4.3104 -2.83283e-10)
(464.252 4.87029 -4.57596e-10)
(464.226 5.78751 -1.04754e-10)
(464.188 6.43127 2.34635e-10)
(464.172 7.21644 3.58349e-10)
(464.11 8.02528 2.48737e-10)
(464.103 8.58705 3.43211e-10)
(464.017 9.6541 3.27411e-10)
(464.021 9.8928 1.68222e-11)
(463.908 11.3148 -2.38092e-10)
(463.924 11.1342 -2.39966e-10)
(463.784 12.9959 -2.73069e-10)
(463.807 12.3226 -8.01073e-11)
(463.648 14.673 2.79376e-10)
(463.665 13.4852 1.83022e-10)
(463.508 16.3037 -8.04713e-11)
(463.489 14.6731 -1.41226e-10)
(463.373 17.811 2.13416e-11)
(463.254 16.0106 6.7245e-11)
(462.476 0.468393 -3.98432e-09)
(462.467 1.27396 1.27351e-09)
(462.464 1.84605 -4.01633e-10)
(462.443 2.81109 3.63527e-11)
(462.438 3.35288 8.33841e-11)
(462.412 4.33257 -3.94228e-10)
(462.397 4.89067 -4.6654e-10)
(462.374 5.81838 -1.12022e-11)
(462.34 6.45841 2.85518e-10)
(462.327 7.25641 3.67184e-10)
(462.27 8.05995 2.78467e-10)
(462.269 8.6365 3.93467e-10)
(462.188 9.69755 3.35881e-10)
(462.198 9.95194 -1.76925e-11)
(462.091 11.3689 -2.46537e-10)
(462.114 11.2029 -2.27548e-10)
(461.981 13.0634 -3.03498e-10)
(462.013 12.3998 -1.45515e-10)
(461.861 14.757 2.29763e-10)
(461.889 13.5686 1.6437e-10)
(461.737 16.4085 -7.41672e-11)
(461.732 14.7573 -1.09894e-10)
(461.619 17.9493 8.09282e-11)
(461.523 16.077 1.43818e-10)
(460.56 0.469906 -4.03023e-09)
(460.551 1.27834 1.28785e-09)
(460.549 1.85141 -3.69467e-10)
(460.529 2.82135 2.9391e-11)
(460.526 3.36234 1.04039e-10)
(460.502 4.34912 -3.44576e-10)
(460.489 4.90439 -4.61492e-10)
(460.469 5.84157 -4.67227e-11)
(460.439 6.47676 2.02114e-10)
(460.43 7.28663 3.11868e-10)
(460.378 8.08361 2.58365e-10)
(460.381 8.6741 3.32239e-10)
(460.305 9.72763 3.00824e-10)
(460.322 9.99707 -2.51577e-11)
(460.221 11.4073 -2.26042e-10)
(460.252 11.2555 -1.8125e-10)
(460.125 13.1128 -2.9724e-10)
(460.167 12.459 -1.12499e-10)
(460.021 14.821 2.98473e-10)
(460.06 13.6328 1.77837e-10)
(459.914 16.4916 -1.05237e-10)
(459.923 14.8218 -1.68177e-10)
(459.813 18.0601 4.39148e-11)
(459.738 16.1216 1.3154e-10)
(458.591 0.470749 -3.97809e-09)
(458.582 1.28111 1.31833e-09)
(458.581 1.85424 -3.92163e-10)
(458.562 2.82799 4.45886e-11)
(458.56 3.36722 9.03814e-11)
(458.539 4.36003 -3.24169e-10)