/*--------------------------------*- C++ -*----------------------------------*\
  =========                 |
  \\      /  F ield         | OpenFOAM: The Open Source CFD Toolbox
   \\    /   O peration     | Website:  https://openfoam.org
    \\  /    A nd           | Version:  10
     \\/     M anipulation  |
\*---------------------------------------------------------------------------*/
FoamFile
{
    format      ascii;
    class       surfaceScalarField;
    location    "0.36";
    object      phi;
}
// * * * * * * * * * * * * * * * * * * * * * * * * * * * * * * * * * * * * * //

dimensions      [1 0 -1 0 0 0 0];

internalField   nonuniform List<scalar> 
8154
(
-5.84573e-09
-2.21957e-08
-5.70316e-08
-9.20902e-08
-1.71747e-07
-2.2566e-07
-3.69389e-07
-4.52712e-07
-6.73589e-07
-8.13126e-07
-1.10452e-06
-1.3379e-06
-1.66832e-06
-2.027e-06
-2.36112e-06
-2.8682e-06
-3.25924e-06
-3.98766e-06
-4.56699e-06
-5.50699e-06
-6.82104e-06
-7.26754e-06
-6.84348e-06
-0.000277438
-0.000832367
2.40044e-08
-0.00138747
9.61822e-08
-0.00194288
2.13096e-07
-0.00249867
3.77899e-07
-0.00305502
5.76978e-07
-0.00361203
8.23793e-07
-0.00416972
1.08912e-06
-0.00472846
1.39909e-06
-0.0052879
1.71213e-06
-0.00584877
2.0569e-06
-0.00641057
2.40254e-06
-0.00697376
2.74734e-06
-0.00753864
3.11976e-06
-0.00810417
3.43659e-06
-0.0086731
3.85011e-06
-0.00924021
4.12489e-06
-0.00981487
4.57173e-06
-0.0103833
4.92303e-06
-0.0109645
5.13785e-06
-0.0115338
5.27869e-06
-0.0121234
5.11506e-06
-0.0126948
4.02861e-06
-0.013293
2.45144e-06
-0.000277462
-0.000832439
2.63203e-08
-0.00138758
1.04734e-07
-0.00194304
2.34508e-07
-0.00249887
4.10005e-07
-0.00305527
6.34903e-07
-0.00361229
8.8984e-07
-0.00417003
1.19537e-06
-0.00472877
1.50252e-06
-0.00528824
1.86807e-06
-0.00584912
2.19155e-06
-0.00641092
2.59299e-06
-0.00697413
2.89182e-06
-0.00753896
3.29816e-06
-0.00810458
3.53956e-06
-0.00867338
3.90447e-06
-0.00924066
4.10396e-06
-0.00981523
4.3885e-06
-0.0103835
5.00063e-06
-0.0109647
4.66502e-06
-0.0115337
5.23018e-06
-0.0121224
5.33163e-06
-0.0126932
5.04267e-06
-0.0132905
4.23029e-06
-0.000277488
-0.000832518
2.12634e-08
-0.00138771
8.48685e-08
-0.00194322
1.8787e-07
-0.0024991
3.30369e-07
-0.00305553
5.01564e-07
-0.0036126
7.07575e-07
-0.00417034
9.23372e-07
-0.00472914
1.16784e-06
-0.00528857
1.39529e-06
-0.00584952
1.64277e-06
-0.00641121
1.84601e-06
-0.00697454
2.04869e-06
-0.0075392
2.19624e-06
-0.00810495
2.28394e-06
-0.00867358
2.35414e-06
-0.00924094
2.20603e-06
-0.00981584
2.3425e-06
-0.0103832
1.89819e-06
-0.0109652
1.7811e-06
-0.0115338
1.39267e-06
-0.0121221
1.15625e-06
-0.0126924
7.21308e-07
-0.0132863
5.14732e-07
-0.00027751
-0.000832581
2.55057e-08
-0.00138782
1.01851e-07
-0.00194336
2.25882e-07
-0.00249927
3.9768e-07
-0.00305573
6.0531e-07
-0.00361281
8.55868e-07
-0.00417058
1.12016e-06
-0.00472937
1.42198e-06
-0.00528881
1.70371e-06
-0.00584973
2.01791e-06
-0.00641142
2.27187e-06
-0.00697469
2.54721e-06
-0.00753929
2.73232e-06
-0.00810502
2.89495e-06
-0.00867343
2.98569e-06
-0.00924108
2.89726e-06
-0.00981539
2.97329e-06
-0.0103831
2.28137e-06
-0.0109648
2.51703e-06
-0.0115335
1.72644e-06
-0.0121217
1.20865e-06
-0.0126922
3.8151e-07
-0.0132858
-1.71536e-07
-0.000277535
-0.000832658
3.36297e-08
-0.00138794
1.34245e-07
-0.00194353
2.99088e-07
-0.00249948
5.2638e-07
-0.00305598
8.07675e-07
-0.00361308
1.14188e-06
-0.00417088
1.51259e-06
-0.00472965
1.92051e-06
-0.00528913
2.34026e-06
-0.00584998
2.77446e-06
-0.00641169
3.19404e-06
-0.00697488
3.59487e-06
-0.00753945
3.96276e-06
-0.00810511
4.25838e-06
-0.00867334
4.5223e-06
-0.00924116
4.6144e-06
-0.0098147
4.72901e-06
-0.0103833
4.39884e-06
-0.0109641
4.36624e-06
-0.011533
3.6752e-06
-0.0121208
3.21591e-06
-0.0126916
2.2732e-06
-0.0132859
1.3503e-06
-0.000277569
-0.000832758
3.75647e-08
-0.0013881
1.49953e-07
-0.00194376
3.34365e-07
-0.00249976
5.88483e-07
-0.00305632
9.04168e-07
-0.00361345
1.27857e-06
-0.00417129
1.69676e-06
-0.00473007
2.15522e-06
-0.00528956
2.63217e-06
-0.0058504
3.12217e-06
-0.0064121
3.60244e-06
-0.00697525
4.05722e-06
-0.00753974
4.48033e-06
-0.00810537
4.82109e-06
-0.00867344
5.1241e-06
-0.00924128
5.2487e-06
-0.00981437
5.3671e-06
-0.0103832
5.07976e-06
-0.0109634
4.96702e-06
-0.0115325
4.21974e-06
-0.0121199
3.68277e-06
-0.0126907
2.64351e-06
-0.0132846
1.61598e-06
-0.000277606
-0.000832871
4.14128e-08
-0.00138829
1.65317e-07
-0.00194402
3.68741e-07
-0.00250008
6.49063e-07
-0.00305669
9.97733e-07
-0.00361386
1.41145e-06
-0.00417175
1.87456e-06
-0.00473055
2.38305e-06
-0.00529005
2.91352e-06
-0.00585088
3.46025e-06
-0.00641255
3.9967e-06
-0.00697567
4.50824e-06
-0.00754008
4.98123e-06
-0.00810567
5.37039e-06
-0.00867357
5.70738e-06
-0.0092414
5.8614e-06
-0.00981409
5.99449e-06
-0.0103831
5.71511e-06
-0.0109626
5.59731e-06
-0.011532
4.81302e-06
-0.0121188
4.20958e-06
-0.0126897
2.99373e-06
-0.013283
1.79957e-06
-0.000277648
-0.000832995
4.51241e-08
-0.00138849
1.80114e-07
-0.0019443
4.01808e-07
-0.00250042
7.0713e-07
-0.0030571
1.08725e-06
-0.00361433
1.53796e-06
-0.00417226
2.04359e-06
-0.00473108
2.59855e-06
-0.0052906
3.17982e-06
-0.00585142
3.77892e-06
-0.00641306
4.36958e-06
-0.00697615
4.93334e-06
-0.00754047
5.45552e-06
-0.008106
5.88832e-06
-0.00867372
6.25839e-06
-0.00924153
6.44047e-06
-0.00981381
6.57895e-06
-0.010383
6.32483e-06
-0.0109618
6.17688e-06
-0.0115314
5.37357e-06
-0.0121176
4.83567e-06
-0.0126885
3.36284e-06
-0.0132811
2.0201e-06
-0.000277693
-0.000833129
4.87859e-08
-0.00138871
1.94704e-07
-0.0019446
4.34359e-07
-0.0025008
7.64192e-07
-0.00305756
1.17494e-06
-0.00361483
1.66154e-06
-0.00417281
2.20796e-06
-0.00473166
2.80747e-06
-0.0052912
3.43685e-06
-0.00585201
4.08596e-06
-0.00641363
4.72791e-06
-0.00697667
5.34206e-06
-0.0075409
5.91136e-06
-0.00810637
6.38672e-06
-0.00867391
6.78849e-06
-0.00924167
6.99615e-06
-0.00981356
7.13585e-06
-0.0103829
6.90108e-06
-0.010961
6.72905e-06
-0.0115307
5.91806e-06
-0.0121163
4.85253e-06
-0.0126872
3.71864e-06
-0.0132791
2.21335e-06
-0.000277742
-0.000833275
5.23962e-08
-0.00138895
2.09084e-07
-0.00194493
4.66427e-07
-0.00250122
8.20361e-07
-0.00305804
1.26111e-06
-0.00361538
1.78271e-06
-0.00417341
2.36859e-06
-0.00473229
3.01085e-06
-0.00529185
3.68592e-06
-0.00585265
4.38227e-06
-0.00641424
5.07235e-06
-0.00697724
5.73395e-06
-0.00754138
6.34786e-06
-0.00810676
6.86404e-06
-0.00867412
7.29683e-06
-0.00924181
7.52788e-06
-0.00981333
7.66714e-06
-0.0103827
7.44776e-06
-0.0109602
7.24674e-06
-0.01153
6.39142e-06
-0.0121148
5.59897e-06
-0.0126857
4.03058e-06
-0.0132769
2.3982e-06
-0.000277794
-0.000833432
5.59687e-08
-0.00138921
2.2332e-07
-0.00194529
4.98186e-07
-0.00250166
8.7602e-07
-0.00305856
1.34649e-06
-0.00361596
1.90271e-06
-0.00417405
2.52739e-06
-0.00473296
3.21141e-06
-0.00529254
3.93054e-06
-0.00585334
4.67198e-06
-0.0064149
5.40733e-06
-0.00697785
6.11335e-06
-0.00754189
6.76875e-06
-0.00810719
7.32341e-06
-0.00867435
7.78633e-06
-0.00924195
8.04184e-06
-0.00981311
8.18705e-06
-0.0103825
7.96916e-06
-0.0109594
7.74203e-06
-0.0115293
6.86193e-06
-0.0121132
6.00913e-06
-0.012684
4.35624e-06
-0.0132745
2.5852e-06
-0.00027785
-0.000833599
5.9496e-08
-0.00138948
2.37384e-07
-0.00194566
5.29594e-07
-0.00250213
9.31141e-07
-0.00305912
1.43115e-06
-0.00361659
2.02182e-06
-0.00417474
2.685e-06
-0.00473368
3.41031e-06
-0.00529328
4.17255e-06
-0.00585408
4.95759e-06
-0.00641561
5.73589e-06
-0.00697851
6.48337e-06
-0.00754245
7.1767e-06
-0.00810765
7.76629e-06
-0.00867461
8.25641e-06
-0.0092421
8.53478e-06
-0.0098129
8.6869e-06
-0.0103822
8.46707e-06
-0.0109585
8.20533e-06
-0.0115284
7.28618e-06
-0.0121116
6.37486e-06
-0.0126823
4.65117e-06
-0.0132719
2.75546e-06
-0.000277909
-0.000833777
6.29774e-08
-0.00138978
2.51271e-07
-0.00194607
5.6064e-07
-0.00250263
9.85706e-07
-0.00305971
1.51509e-06
-0.00361725
2.14011e-06
-0.00417546
2.84175e-06
-0.00473444
3.60825e-06
-0.00529407
4.41329e-06
-0.00585486
5.24123e-06
-0.00641636
6.06106e-06
-0.0069792
6.84778e-06
-0.00754304
7.57589e-06
-0.00810813
8.19668e-06
-0.00867489
8.71025e-06
-0.00924225
9.00822e-06
-0.00981269
9.16457e-06
-0.010382
8.9452e-06
-0.0109576
8.64373e-06
-0.0115275
7.67998e-06
-0.0121099
6.7079e-06
-0.0126804
4.89505e-06
-0.0132692
2.90201e-06
-0.000277972
-0.000833965
6.64155e-08
-0.00139008
2.64986e-07
-0.00194649
5.91307e-07
-0.00250316
1.03964e-06
-0.00306034
1.59814e-06
-0.00361795
2.2573e-06
-0.00417623
2.99725e-06
-0.00473525
3.80492e-06
-0.0052949
4.65272e-06
-0.00585568
5.52339e-06
-0.00641715
6.38422e-06
-0.00697993
7.20896e-06
-0.00754366
7.96967e-06
-0.00810864
8.61835e-06
-0.00867519
9.15123e-06
-0.00924241
9.4647e-06
-0.00981247
9.6236e-06
-0.0103817
9.4068e-06
-0.0109566
9.06367e-06
-0.0115265
8.05523e-06
-0.012108
7.01364e-06
-0.0126784
5.05396e-06
-0.0132663
3.02676e-06
-0.000278038
-0.000834163
6.98179e-08
-0.00139041
2.7855e-07
-0.00194694
6.21616e-07
-0.00250371
1.09292e-06
-0.003061
1.68014e-06
-0.00361869
2.37301e-06
-0.00417704
3.15086e-06
-0.00473609
3.99941e-06
-0.00529577
4.88983e-06
-0.00585654
5.80323e-06
-0.00641797
6.70508e-06
-0.00698069
7.56764e-06
-0.00754431
8.36016e-06
-0.00810917
9.03481e-06
-0.00867551
9.58353e-06
-0.00924257
9.90757e-06
-0.00981226
1.00649e-05
-0.0103813
9.84813e-06
-0.0109556
9.46446e-06
-0.0115255
8.41802e-06
-0.0121061
7.31386e-06
-0.0126764
5.27402e-06
-0.0132632
3.15715e-06
-0.000278108
-0.000834372
7.3188e-08
-0.00139075
2.91977e-07
-0.00194741
6.51572e-07
-0.0025043
1.14547e-06
-0.00306169
1.76087e-06
-0.00361947
2.48677e-06
-0.00417789
3.30173e-06
-0.00473698
4.1904e-06
-0.00529668
5.12283e-06
-0.00585744
6.07864e-06
-0.00641883
7.02155e-06
-0.00698148
7.92221e-06
-0.00754499
8.74699e-06
-0.00810972
9.44751e-06
-0.00867584
1.00109e-05
-0.00924272
1.03422e-05
-0.00981204
1.04913e-05
-0.0103809
1.02618e-05
-0.0109545
9.84461e-06
-0.0115244
8.76118e-06
-0.0121041
7.59581e-06
-0.0126742
5.49176e-06
-0.0132601
3.27829e-06
-0.000278181
-0.00083459
7.6517e-08
-0.00139111
3.05225e-07
-0.0019479
6.81073e-07
-0.00250492
1.1971e-06
-0.00306242
1.83996e-06
-0.00362029
2.59792e-06
-0.00417878
3.4488e-06
-0.00473791
4.37629e-06
-0.00529764
5.34945e-06
-0.00585838
6.34665e-06
-0.00641973
7.33008e-06
-0.00698231
8.2689e-06
-0.00754569
9.12673e-06
-0.00811028
9.85426e-06
-0.00867617
1.04336e-05
-0.00924287
1.07725e-05
-0.00981181
1.09122e-05
-0.0103805
1.06661e-05
-0.0109535
1.02146e-05
-0.0115232
9.09468e-06
-0.012102
7.86717e-06
-0.012672
5.69166e-06
-0.0132568
3.39182e-06
-0.000278258
-0.000834819
7.97788e-08
-0.00139149
3.18192e-07
-0.00194842
7.09903e-07
-0.00250556
1.24745e-06
-0.00306318
1.91689e-06
-0.00362114
2.70571e-06
-0.00417971
3.591e-06
-0.00473889
4.55558e-06
-0.00529864
5.56758e-06
-0.00585936
6.60439e-06
-0.00642067
7.62691e-06
-0.00698316
8.60314e-06
-0.00754642
9.4943e-06
-0.00811085
1.02501e-05
-0.00867652
1.08477e-05
-0.00924301
1.11964e-05
-0.00981157
1.13288e-05
-0.01038
1.10682e-05
-0.0109523
1.0578e-05
-0.011522
9.42442e-06
-0.0120998
8.13465e-06
-0.0126698
5.88587e-06
-0.0132534
3.50119e-06
-0.000278337
-0.000835057
8.29157e-08
-0.00139188
3.30658e-07
-0.00194896
7.37601e-07
-0.00250623
1.29578e-06
-0.00306397
1.99063e-06
-0.00362202
2.80886e-06
-0.00418067
3.72677e-06
-0.0047399
4.72631e-06
-0.00529967
5.77478e-06
-0.00586038
6.84868e-06
-0.00642165
7.9079e-06
-0.00698405
8.91962e-06
-0.00754717
9.84319e-06
-0.00811145
1.06275e-05
-0.00867687
1.12455e-05
-0.00924314
1.16074e-05
-0.00981131
1.17366e-05
-0.0103795
1.14642e-05
-0.0109512
1.09348e-05
-0.0115207
9.75389e-06
-0.0120976
8.40346e-06
-0.0126674
6.0802e-06
-0.0132498
3.61016e-06
-0.00027842
-0.000835305
8.58503e-08
-0.00139229
3.42324e-07
-0.00194952
7.63547e-07
-0.00250692
1.34109e-06
-0.00306478
2.05982e-06
-0.00362294
2.90566e-06
-0.00418167
3.85412e-06
-0.00474095
4.88625e-06
-0.00530075
5.96848e-06
-0.00586144
7.07649e-06
-0.00642266
8.16928e-06
-0.00698497
9.21349e-06
-0.00754796
1.01671e-05
-0.00811207
1.09787e-05
-0.00867723
1.16178e-05
-0.00924327
1.19957e-05
-0.00981103
1.21271e-05
-0.010379
1.18475e-05
-0.01095
1.12825e-05
-0.0115193
1.0082e-05
-0.0120952
8.67651e-06
-0.0126649
6.28064e-06
-0.0132462
3.72294e-06
-0.000278506
-0.000835561
8.84931e-08
-0.00139271
3.52845e-07
-0.00195009
7.86997e-07
-0.00250764
1.38216e-06
-0.00306563
2.12274e-06
-0.00362389
2.99393e-06
-0.00418271
3.97049e-06
-0.00474203
5.03256e-06
-0.00530186
6.14563e-06
-0.00586253
7.28452e-06
-0.00642371
8.40733e-06
-0.00698593
9.48026e-06
-0.00754877
1.04602e-05
-0.00811271
1.12961e-05
-0.00867761
1.19548e-05
-0.0092434
1.23492e-05
-0.00981075
1.24871e-05
-0.0103784
1.22078e-05
-0.0109488
1.16214e-05
-0.0115179
1.04015e-05
-0.0120928
8.94569e-06
-0.0126624
6.48833e-06
-0.0132425
3.8417e-06
-0.000278594
-0.000835825
9.0758e-08
-0.00139314
3.61877e-07
-0.00195069
8.07204e-07
-0.00250838
1.41772e-06
-0.0030665
2.17748e-06
-0.00362486
3.07115e-06
-0.00418377
4.0728e-06
-0.00474314
5.1617e-06
-0.005303
6.3024e-06
-0.00586366
7.46874e-06
-0.00642478
8.61787e-06
-0.0069869
9.71547e-06
-0.00754961
1.07174e-05
-0.00811337
1.15733e-05
-0.00867801
1.22477e-05
-0.00924353
1.26563e-05
-0.00981047
1.28009e-05
-0.0103779
1.25258e-05
-0.0109476
1.19289e-05
-0.0115165
1.06911e-05
-0.0120904
9.19346e-06
-0.0126598
6.69282e-06
-0.0132386
3.96144e-06
-0.000278685
-0.000836096
9.25743e-08
-0.00139358
3.69138e-07
-0.0019513
8.23515e-07
-0.00250914
1.44658e-06
-0.0030674
2.22224e-06
-0.00362586
3.13474e-06
-0.00418486
4.15769e-06
-0.00474428
5.26961e-06
-0.00530416
6.43415e-06
-0.00586481
7.6242e-06
-0.00642588
8.7958e-06
-0.0069879
9.91399e-06
-0.00755046
1.09336e-05
-0.00811404
1.18044e-05
-0.00867842
1.24899e-05
-0.00924367
1.29081e-05
-0.0098102
1.30562e-05
-0.0103773
1.27835e-05
-0.0109463
1.21755e-05
-0.011515
1.09278e-05
-0.0120879
9.39503e-06
-0.012657
6.86827e-06
-0.0132347
4.06373e-06
-0.000278777
-0.000836372
9.38939e-08
-0.00139404
3.74425e-07
-0.00195192
8.35447e-07
-0.00250992
1.46783e-06
-0.00306831
2.25543e-06
-0.00362689
3.18233e-06
-0.00418597
4.22182e-06
-0.00474544
5.35194e-06
-0.00530535
6.53563e-06
-0.00586598
7.74494e-06
-0.006427
8.93477e-06
-0.00698892
1.00694e-05
-0.00755133
1.11022e-05
-0.00811473
1.19835e-05
-0.00867884
1.26748e-05
-0.00924382
1.30972e-05
-0.00980992
1.32442e-05
-0.0103766
1.29703e-05
-0.0109451
1.23497e-05
-0.0115134
1.10964e-05
-0.0120854
9.52499e-06
-0.0126542
6.97102e-06
-0.0132306
4.11415e-06
-0.000278871
-0.000836653
9.47054e-08
-0.0013945
3.77683e-07
-0.00195256
8.42833e-07
-0.0025107
1.48106e-06
-0.00306924
2.27628e-06
-0.00362793
3.21255e-06
-0.0041871
4.26305e-06
-0.00474663
5.40567e-06
-0.00530656
6.6028e-06
-0.00586717
7.82623e-06
-0.00642813
9.02945e-06
-0.00698995
1.01766e-05
-0.00755222
1.12186e-05
-0.00811543
1.21068e-05
-0.00867926
1.27992e-05
-0.00924396
1.32215e-05
-0.00980965
1.33612e-05
-0.010376
1.30822e-05
-0.0109438
1.24471e-05
-0.0115119
1.11913e-05
-0.0120828
9.57258e-06
-0.0126514
6.96493e-06
-0.0132265
4.08811e-06
-0.000278966
-0.000836936
9.53896e-08
-0.00139496
3.80425e-07
-0.00195319
8.49041e-07
-0.0025115
1.49218e-06
-0.00307017
2.29385e-06
-0.00362898
3.23816e-06
-0.00418825
4.29836e-06
-0.00474782
5.45241e-06
-0.00530779
6.66262e-06
-0.00586837
7.90072e-06
-0.00642928
9.11955e-06
-0.00699099
1.02828e-05
-0.0075531
1.13397e-05
-0.00811613
1.22412e-05
-0.00867968
1.29429e-05
-0.0092441
1.33725e-05
-0.00980937
1.35134e-05
-0.0103754
1.32361e-05
-0.0109426
1.25947e-05
-0.0115102
1.13406e-05
-0.0120802
9.69952e-06
-0.0126485
7.05704e-06
-0.0132224
4.19638e-06
-0.000279061
-0.00083722
9.56792e-08
-0.00139543
3.81583e-07
-0.00195384
8.51667e-07
-0.0025123
1.4969e-06
-0.00307112
2.30137e-06
-0.00363004
3.24927e-06
-0.0041894
4.31403e-06
-0.00474903
5.47384e-06
-0.00530903
6.6913e-06
-0.00586959
7.93843e-06
-0.00643044
9.1681e-06
-0.00699205
1.03437e-05
-0.00755401
1.14139e-05
-0.00811683
1.23282e-05
-0.0086801
1.30406e-05
-0.00924424
1.34785e-05
-0.00980909
1.36228e-05
-0.0103747
1.33478e-05
-0.0109413
1.27004e-05
-0.0115086
1.1444e-05
-0.0120776
9.80072e-06
-0.0126457
7.14227e-06
-0.0132182
4.37118e-06
-0.000279157
-0.000837506
9.54646e-08
-0.0013959
3.80721e-07
-0.00195448
8.49744e-07
-0.0025131
1.49353e-06
-0.00307207
2.29623e-06
-0.0036311
3.24215e-06
-0.00419056
4.30488e-06
-0.00475025
5.46297e-06
-0.00531028
6.67944e-06
-0.00587082
7.92702e-06
-0.00643162
9.15903e-06
-0.00699312
1.03394e-05
-0.00755492
1.14164e-05
-0.00811755
1.23392e-05
-0.00868054
1.30601e-05
-0.00924439
1.35054e-05
-0.00980881
1.36529e-05
-0.0103741
1.338e-05
-0.0109401
1.2727e-05
-0.0115069
1.14709e-05
-0.0120749
9.82104e-06
-0.0126427
7.20316e-06
-0.013214
3.93151e-06
-0.000279252
-0.000837791
9.47836e-08
-0.00139637
3.78e-07
-0.00195513
8.43663e-07
-0.0025139
1.48282e-06
-0.00307301
2.27974e-06
-0.00363216
3.21884e-06
-0.00419172
4.27388e-06
-0.00475147
5.42378e-06
-0.00531152
6.63197e-06
-0.00587205
7.8721e-06
-0.0064328
9.0982e-06
-0.0069942
1.02753e-05
-0.00755584
1.13522e-05
-0.00811828
1.22785e-05
-0.00868098
1.30055e-05
-0.00924453
1.34586e-05
-0.00980853
1.36122e-05
-0.0103735
1.33443e-05
-0.0109388
1.26882e-05
-0.0115053
1.14323e-05
-0.0120723
9.75813e-06
-0.0126397
7.17067e-06
-0.0132099
3.89318e-06
-0.000279347
-0.000838075
9.36635e-08
-0.00139684
3.73536e-07
-0.00195577
8.33718e-07
-0.0025147
1.46539e-06
-0.00307395
2.25297e-06
-0.00363322
3.18112e-06
-0.00419287
4.22376e-06
-0.00475267
5.36017e-06
-0.00531277
6.55415e-06
-0.00587328
7.78019e-06
-0.00643398
8.9931e-06
-0.00699528
1.01593e-05
-0.00755677
1.12285e-05
-0.00811901
1.21519e-05
-0.00868143
1.28812e-05
-0.00924469
1.33415e-05
-0.00980825
1.35051e-05
-0.0103728
1.32491e-05
-0.0109376
1.25984e-05
-0.0115036
1.13464e-05
-0.0120697
9.64921e-06
-0.0126368
7.08434e-06
-0.0132055
4.20399e-06
-0.00027944
-0.000838354
9.21322e-08
-0.0013973
3.67443e-07
-0.0019564
8.20178e-07
-0.00251549
1.44173e-06
-0.00307488
2.21682e-06
-0.00363426
3.13043e-06
-0.00419401
4.15679e-06
-0.00475387
5.27556e-06
-0.00531399
6.45082e-06
-0.00587449
7.65782e-06
-0.00643514
8.85189e-06
-0.00699635
1.00009e-05
-0.00755769
1.10554e-05
-0.00811974
1.19689e-05
-0.00868188
1.26944e-05
-0.00924485
1.31585e-05
-0.00980799
1.33331e-05
-0.0103722
1.30954e-05
-0.0109363
1.24644e-05
-0.0115019
1.12343e-05
-0.0120671
9.54614e-06
-0.012634
7.01822e-06
-0.0132013
4.16402e-06
-0.000279533
-0.00083863
9.023e-08
-0.00139775
3.59881e-07
-0.00195702
8.03388e-07
-0.00251626
1.41244e-06
-0.0030758
2.1722e-06
-0.00363529
3.0681e-06
-0.00419513
4.0749e-06
-0.00475504
5.17271e-06
-0.0053152
6.32598e-06
-0.00587568
7.51058e-06
-0.00643629
8.68211e-06
-0.0069974
9.80959e-06
-0.0075586
1.08441e-05
-0.00812047
1.17417e-05
-0.00868234
1.24565e-05
-0.00924503
1.29182e-05
-0.00980774
1.30999e-05
-0.0103715
1.28813e-05
-0.0109351
1.22787e-05
-0.0115002
1.10879e-05
-0.0120646
9.43658e-06
-0.0126311
6.93797e-06
-0.0131972
4.11776e-06
-0.000279623
-0.000838899
8.80156e-08
-0.00139819
3.51077e-07
-0.00195763
7.8383e-07
-0.00251702
1.37832e-06
-0.00307669
2.12023e-06
-0.00363629
2.99564e-06
-0.00419623
3.97995e-06
-0.0047562
5.054e-06
-0.00531639
6.18273e-06
-0.00587686
7.34268e-06
-0.00643742
8.48965e-06
-0.00699844
9.5935e-06
-0.00755949
1.06054e-05
-0.00812119
1.14833e-05
-0.0086828
1.21822e-05
-0.00924522
1.26348e-05
-0.00980751
1.28165e-05
-0.0103709
1.26115e-05
-0.0109339
1.20378e-05
-0.0114985
1.08934e-05
-0.0120621
9.29278e-06
-0.0126283
6.85803e-06
-0.013193
4.06341e-06
-0.000279711
-0.000839162
8.55631e-08
-0.00139862
3.41318e-07
-0.00195822
7.6212e-07
-0.00251776
1.34039e-06
-0.00307757
2.06235e-06
-0.00363728
2.91484e-06
-0.0041973
3.87404e-06
-0.00475733
4.92174e-06
-0.00531755
6.02365e-06
-0.005878
7.15712e-06
-0.00643852
8.27833e-06
-0.00699945
9.35791e-06
-0.00756037
1.03468e-05
-0.00812189
1.12043e-05
-0.00868326
1.18854e-05
-0.0092454
1.2325e-05
-0.0098073
1.24997e-05
-0.0103704
1.22996e-05
-0.0109327
1.17473e-05
-0.0114969
1.06472e-05
-0.0120597
9.11057e-06
-0.0126255
6.77571e-06
-0.013189
4.00406e-06
-0.000279796
-0.000839418
8.29541e-08
-0.00139904
3.30924e-07
-0.0019588
7.3895e-07
-0.00251849
1.29979e-06
-0.00307842
2.00022e-06
-0.00363824
2.82782e-06
-0.00419835
3.75968e-06
-0.00475843
4.77862e-06
-0.00531868
5.85137e-06
-0.00587913
6.95639e-06
-0.0064396
8.05055e-06
-0.00700044
9.10552e-06
-0.00756122
1.00722e-05
-0.00812257
1.09109e-05
-0.00868369
1.15757e-05
-0.00924558
1.20026e-05
-0.0098071
1.21679e-05
-0.0103698
1.19662e-05
-0.0109316
1.14234e-05
-0.0114954
1.03535e-05
-0.0120574
8.87594e-06
-0.0126227
6.64936e-06
-0.013185
3.92751e-06
-0.000279879
-0.000839666
8.02631e-08
-0.00139945
3.20191e-07
-0.00195936
7.14974e-07
-0.00251919
1.25766e-06
-0.00307925
1.93552e-06
-0.00363917
2.73684e-06
-0.00419937
3.63957e-06
-0.0047595
4.62763e-06
-0.00531979
5.66886e-06
-0.00588022
6.7431e-06
-0.00644065
7.80827e-06
-0.00700141
8.83748e-06
-0.00756206
9.78222e-06
-0.00812323
1.06036e-05
-0.00868412
1.12555e-05
-0.00924575
1.16739e-05
-0.0098069
1.1834e-05
-0.0103693
1.16314e-05
-0.0109306
1.10927e-05
-0.0114939
1.0039e-05
-0.0120551
8.59296e-06
-0.01262
6.42165e-06
-0.013181
3.81714e-06
-0.000279959
-0.000839905
7.75458e-08
-0.00139985
3.09342e-07
-0.0019599
6.90699e-07
-0.00251986
1.21491e-06
-0.00308005
1.86966e-06
-0.00364007
2.64386e-06
-0.00420036
3.51624e-06
-0.00476054
4.47178e-06
-0.00532086
5.47935e-06
-0.00588129
6.52028e-06
-0.00644168
7.55386e-06
-0.00700235
8.55488e-06
-0.00756288
9.47607e-06
-0.00812387
1.02799e-05
-0.00868454
1.09211e-05
-0.00924592
1.13353e-05
-0.0098067
1.14981e-05
-0.0103688
1.13027e-05
-0.0109295
1.07748e-05
-0.0114925
9.73786e-06
-0.012053
8.31383e-06
-0.0126174
6.18845e-06
-0.0131772
3.67456e-06
-0.000280037
-0.000840137
7.48316e-08
-0.00140023
2.98498e-07
-0.00196043
6.66407e-07
-0.00252052
1.17207e-06
-0.00308083
1.8035e-06
-0.00364094
2.5502e-06
-0.00420132
3.39153e-06
-0.00476155
4.31341e-06
-0.0053219
5.28562e-06
-0.00588232
6.29093e-06
-0.00644268
7.29004e-06
-0.00700328
8.25956e-06
-0.00756368
9.15373e-06
-0.00812451
9.93717e-06
-0.00868496
1.05662e-05
-0.00924608
1.09775e-05
-0.00980651
1.11491e-05
-0.0103682
1.09703e-05
-0.0109285
1.04672e-05
-0.011491
9.45721e-06
-0.0120508
8.05906e-06
-0.0126149
5.97051e-06
-0.0131736
3.48859e-06
-0.000280111
-0.00084036
7.21173e-08
-0.00140059
2.87651e-07
-0.00196093
6.42098e-07
-0.00252115
1.12916e-06
-0.00308157
1.73719e-06
-0.00364179
2.45616e-06
-0.00420224
3.26601e-06
-0.00476252
4.15343e-06
-0.00532291
5.08905e-06
-0.00588332
6.05682e-06
-0.00644365
7.0188e-06
-0.00700417
7.95323e-06
-0.00756446
8.81592e-06
-0.00812513
9.57376e-06
-0.00868537
1.01856e-05
-0.00924625
1.059e-05
-0.00980634
1.07707e-05
-0.0103677
1.06129e-05
-0.0109274
1.01485e-05
-0.0114896
9.18237e-06
-0.0120487
7.83688e-06
-0.0126124
5.78888e-06
-0.0131701
3.31508e-06
-0.000280183
-0.000840575
6.93793e-08
-0.00140095
2.7671e-07
-0.00196142
6.17577e-07
-0.00252176
1.08588e-06
-0.00308229
1.67027e-06
-0.0036426
2.36121e-06
-0.00420313
3.13912e-06
-0.00476346
3.99135e-06
-0.00532387
4.88932e-06
-0.00588428
5.81798e-06
-0.00644459
6.74063e-06
-0.00700503
7.63674e-06
-0.00756522
8.46362e-06
-0.00812574
9.18992e-06
-0.00868578
9.77739e-06
-0.00924643
1.01668e-05
-0.00980619
1.03497e-05
-0.0103673
1.02076e-05
-0.0109265
9.78514e-06
-0.0114883
8.8708e-06
-0.0120467
7.60981e-06
-0.0126099
5.6419e-06
-0.0131667
3.29004e-06
-0.000280252
-0.000840782
6.65674e-08
-0.00140129
2.65478e-07
-0.00196189
5.92408e-07
-0.00252234
1.04145e-06
-0.00308298
1.60159e-06
-0.00364337
2.26373e-06
-0.00420398
3.00881e-06
-0.00476436
3.82471e-06
-0.0053248
4.68367e-06
-0.00588521
5.57148e-06
-0.00644548
6.45275e-06
-0.00700586
7.30764e-06
-0.00756595
8.09499e-06
-0.00812632
8.78434e-06
-0.00868617
9.34046e-06
-0.00924661
9.70557e-06
-0.00980605
9.87944e-06
-0.0103669
9.74043e-06
-0.0109255
9.3493e-06
-0.011487
8.47647e-06
-0.0120447
7.30574e-06
-0.0126076
5.42999e-06
-0.0131635
3.22394e-06
-0.000280319
-0.00084098
6.36141e-08
-0.00140161
2.53674e-07
-0.00196234
5.65955e-07
-0.0025229
9.94754e-07
-0.00308365
1.5294e-06
-0.00364412
2.16129e-06
-0.0042048
2.87179e-06
-0.00476522
3.64943e-06
-0.00532569
4.46705e-06
-0.00588609
5.31166e-06
-0.00644633
6.14858e-06
-0.00700664
6.9596e-06
-0.00756663
7.70316e-06
-0.00812687
8.35206e-06
-0.00868654
8.86942e-06
-0.00924679
9.20431e-06
-0.0098059
9.3545e-06
-0.0103665
9.2081e-06
-0.0109247
8.82485e-06
-0.0114859
7.98064e-06
-0.0120429
6.87759e-06
-0.0126054
5.09683e-06
-0.0131602
3.04015e-06
-0.000280382
-0.00084117
6.07757e-08
-0.00140193
2.42315e-07
-0.00196277
5.40502e-07
-0.00252344
9.49855e-07
-0.00308428
1.46007e-06
-0.00364483
2.06306e-06
-0.00420557
2.7406e-06
-0.00476604
3.48197e-06
-0.00532654
4.26043e-06
-0.00588692
5.06465e-06
-0.00644714
5.86007e-06
-0.00700739
6.63118e-06
-0.00756728
7.33452e-06
-0.00812739
7.94849e-06
-0.00868688
8.4307e-06
-0.00924693
8.74156e-06
-0.00980575
8.86726e-06
-0.0103661
8.71639e-06
-0.0109238
8.32972e-06
-0.0114848
7.51195e-06
-0.0120411
6.45257e-06
-0.0126033
4.75776e-06
-0.0131572
2.81196e-06
-0.000280443
-0.000841351
5.82642e-08
-0.00140222
2.32269e-07
-0.00196318
5.18011e-07
-0.00252395
9.10238e-07
-0.00308488
1.39905e-06
-0.00364551
1.97688e-06
-0.00420632
2.62604e-06
-0.00476682
3.33638e-06
-0.00532734
4.08204e-06
-0.00588772
4.85252e-06
-0.00644791
5.61497e-06
-0.00700809
6.35423e-06
-0.0075679
7.02911e-06
-0.00812787
7.61778e-06
-0.0086872
8.0814e-06
-0.00924705
8.3787e-06
-0.0098056
8.50058e-06
-0.0103657
8.35142e-06
-0.010923
7.98276e-06
-0.0114837
7.18822e-06
-0.0120394
6.19105e-06
-0.0126014
4.5579e-06
-0.0131544
2.73349e-06
-0.000280501
-0.000841525
5.55503e-08
-0.00140251
2.21411e-07
-0.00196357
4.93702e-07
-0.00252444
8.67414e-07
-0.00308546
1.33309e-06
-0.00364616
1.88374e-06
-0.00420703
2.50226e-06
-0.00476756
3.17909e-06
-0.00532811
3.88937e-06
-0.00588848
4.62333e-06
-0.00644865
5.34995e-06
-0.00700876
6.05432e-06
-0.00756848
6.69825e-06
-0.00812833
7.25914e-06
-0.0086875
7.70327e-06
-0.00924717
7.98606e-06
-0.00980545
8.10557e-06
-0.0103653
7.95818e-06
-0.0109222
7.61013e-06
-0.0114827
6.83666e-06
-0.0120377
5.88903e-06
-0.0125995
4.31116e-06
-0.0131516
2.65022e-06
-0.000280556
-0.00084169
5.26069e-08
-0.00140278
2.09634e-07
-0.00196394
4.67345e-07
-0.0025249
8.2099e-07
-0.00308601
1.26159e-06
-0.00364678
1.78283e-06
-0.00420771
2.36823e-06
-0.00476827
3.00892e-06
-0.00532885
3.68113e-06
-0.0058892
4.37573e-06
-0.00644935
5.06355e-06
-0.0070094
5.72993e-06
-0.00756904
6.34014e-06
-0.00812877
6.87051e-06
-0.00868779
7.29312e-06
-0.00924729
7.55955e-06
-0.00980531
7.6771e-06
-0.010365
7.5337e-06
-0.0109215
7.21557e-06
-0.0114818
6.47091e-06
-0.0120362
5.56067e-06
-0.0125979
4.0255e-06
-0.013149
2.44577e-06
-0.000280609
-0.000841847
4.94103e-08
-0.00140304
1.96848e-07
-0.0019643
4.38753e-07
-0.00252534
7.70655e-07
-0.00308653
1.18409e-06
-0.00364736
1.6735e-06
-0.00420835
2.22316e-06
-0.00476895
2.82495e-06
-0.00532954
3.45638e-06
-0.00588989
4.10873e-06
-0.00645002
4.75494e-06
-0.00701001
5.38024e-06
-0.00756957
5.95439e-06
-0.0081292
6.45136e-06
-0.00868806
6.85051e-06
-0.00924741
7.0971e-06
-0.00980517
7.21188e-06
-0.0103646
7.07127e-06
-0.0109207
6.79145e-06
-0.0114809
6.08883e-06
-0.0120347
5.24292e-06
-0.0125963
4.08705e-06
-0.0131465
2.28013e-06
-0.000280658
-0.000841994
4.59381e-08
-0.00140328
1.8297e-07
-0.00196463
4.07753e-07
-0.00252576
7.16123e-07
-0.00308702
1.10017e-06
-0.00364791
1.55515e-06
-0.00420895
2.06626e-06
-0.00476958
2.62619e-06
-0.00533019
3.214e-06
-0.00589053
3.82109e-06
-0.00645064
4.42287e-06
-0.00701058
5.00399e-06
-0.00757007
5.54012e-06
-0.00812959
6.00108e-06
-0.00868831
6.37546e-06
-0.00924752
6.59881e-06
-0.00980504
6.7117e-06
-0.0103644
6.56991e-06
-0.01092
6.32255e-06
-0.01148
5.66447e-06
-0.0120332
4.96393e-06
-0.0125948
3.61657e-06
-0.0131442
2.16348e-06
-0.000280704
-0.00084213
4.2177e-08
-0.00140351
1.67951e-07
-0.00196494
3.74233e-07
-0.00252614
6.57196e-07
-0.00308748
1.00952e-06
-0.00364842
1.42736e-06
-0.00420951
1.8969e-06
-0.00477017
2.41184e-06
-0.0053308
2.95298e-06
-0.00589113
3.51149e-06
-0.00645122
4.06597e-06
-0.00701111
4.59954e-06
-0.00757053
5.0959e-06
-0.00812996
5.51825e-06
-0.00868855
5.86714e-06
-0.00924763
6.06408e-06
-0.0098049
6.18144e-06
-0.0103641
6.03769e-06
-0.0109194
5.81055e-06
-0.0114793
5.17199e-06
-0.0120318
4.59066e-06
-0.0125934
3.31812e-06
-0.0131421
1.98678e-06
-0.000280745
-0.000842256
3.81307e-08
-0.00140371
1.51798e-07
-0.00196522
3.38187e-07
-0.0025265
5.93829e-07
-0.0030879
9.12052e-07
-0.00364889
1.28998e-06
-0.00421002
1.71489e-06
-0.00477071
2.18154e-06
-0.00533136
2.67276e-06
-0.00589168
3.17903e-06
-0.00645175
3.68317e-06
-0.0070116
4.16543e-06
-0.00757095
4.62051e-06
-0.00813031
5.00117e-06
-0.00868875
5.32458e-06
-0.00924775
5.49067e-06
-0.00980476
5.62007e-06
-0.0103639
5.47645e-06
-0.0109188
5.29014e-06
-0.0114787
5.09073e-06
-0.0120305
4.05895e-06
-0.012592
3.0139e-06
-0.0131401
1.79686e-06
-0.000280783
-0.000842369
3.38188e-08
-0.0014039
1.34572e-07
-0.00196548
2.99714e-07
-0.00252682
5.26177e-07
-0.00308828
8.07923e-07
-0.00364932
1.14324e-06
-0.00421049
1.52052e-06
-0.0047712
1.93561e-06
-0.00533186
2.3735e-06
-0.00589219
2.8234e-06
-0.00645223
3.27423e-06
-0.00701205
3.70099e-06
-0.00757133
4.11374e-06
-0.00813063
4.44851e-06
-0.00868893
4.74944e-06
-0.00924787
4.87998e-06
-0.00980463
5.02369e-06
-0.0103637
4.88027e-06
-0.0109182
4.81336e-06
-0.0114781
4.33227e-06
-0.0120294
3.66857e-06
-0.0125908
2.73258e-06
-0.0131383
1.61579e-06
-0.000280817
-0.00084247
2.92529e-08
-0.00140406
1.16337e-07
-0.00196571
2.5896e-07
-0.0025271
4.54497e-07
-0.00308861
6.97518e-07
-0.00364969
9.8773e-07
-0.0042109
1.31467e-06
-0.00477163
1.6751e-06
-0.00533231
2.05628e-06
-0.00589264
2.44533e-06
-0.00645266
2.84053e-06
-0.00701246
3.20683e-06
-0.00757166
3.57811e-06
-0.00813094
3.85949e-06
-0.00868907
4.14675e-06
-0.009248
4.23724e-06
-0.00980452
4.40174e-06
-0.0103636
4.61901e-06
-0.0109176
4.11611e-06
-0.0114775
3.74304e-06
-0.0120285
3.2053e-06
-0.0125897
2.39786e-06
-0.0131367
1.41776e-06
-0.000280846
-0.000842556
2.43956e-08
-0.00140421
9.71016e-08
-0.0019659
2.16073e-07
-0.00252734
3.792e-07
-0.0030889
5.81594e-07
-0.00365002
8.24549e-07
-0.00421126
1.09869e-06
-0.00477201