/*--------------------------------*- C++ -*----------------------------------*\
  =========                 |
  \\      /  F ield         | OpenFOAM: The Open Source CFD Toolbox
   \\    /   O peration     | Website:  https://openfoam.org
    \\  /    A nd           | Version:  10
     \\/     M anipulation  |
\*---------------------------------------------------------------------------*/
FoamFile
{
    format      ascii;
    class       volScalarField;
    location    "0.36";
    object      rho;
}
// * * * * * * * * * * * * * * * * * * * * * * * * * * * * * * * * * * * * * //

dimensions      [1 -3 0 0 0 0 0];

internalField   nonuniform List<scalar> 
4176
(
0.0308487
0.0308516
0.030858
0.0308682
0.0308815
0.0308977
0.0309187
0.03094
0.0309694
0.0309955
0.0310323
0.0310648
0.0311068
0.0311475
0.0311926
0.0312439
0.031287
0.0313548
0.0313934
0.0314789
0.0315108
0.0316159
0.0316362
0.0317505
0.0308567
0.0308595
0.0308649
0.0308747
0.0308859
0.0309015
0.0309193
0.0309398
0.030965
0.0309899
0.031022
0.0310523
0.0310899
0.031127
0.0311682
0.0312142
0.031254
0.0313143
0.0313501
0.0314265
0.031454
0.031554
0.0315747
0.0317038
0.030876
0.0308789
0.0308845
0.0308946
0.0309063
0.0309223
0.030941
0.030962
0.0309885
0.0310139
0.0310477
0.0310787
0.0311182
0.0311562
0.0311996
0.0312468
0.031289
0.0313519
0.0313878
0.031468
0.0314957
0.0315944
0.0316132
0.0317344
0.0309047
0.0309075
0.030913
0.0309228
0.0309342
0.0309497
0.030968
0.0309883
0.0310143
0.0310387
0.031072
0.0311016
0.0311408
0.031177
0.0312201
0.0312655
0.0313073
0.0313703
0.0314015
0.0314841
0.0315094
0.0316068
0.0316245
0.0317368
0.0309441
0.030947
0.0309524
0.0309623
0.0309736
0.0309892
0.0310073
0.0310279
0.0310535
0.0310783
0.0311112
0.0311412
0.0311801
0.0312165
0.0312597
0.0313045
0.0313483
0.0314081
0.031443
0.0315235
0.0315504
0.0316474
0.0316666
0.0317804
0.0309936
0.0309964
0.0310018
0.0310116
0.0310226
0.0310382
0.0310559
0.0310763
0.0311014
0.031126
0.0311583
0.0311881
0.0312263
0.0312623
0.0313051
0.0313488
0.0313931
0.0314499
0.0314882
0.0315647
0.0315925
0.0316883
0.0317083
0.0318237
0.0310535
0.0310563
0.0310616
0.0310713
0.0310823
0.0310978
0.0311152
0.0311355
0.0311604
0.0311848
0.0312168
0.0312463
0.0312842
0.0313197
0.0313624
0.0314054
0.0314499
0.0315051
0.0315442
0.0316188
0.0316479
0.0317421
0.0317624
0.0318758
0.0311237
0.0311265
0.0311316
0.0311413
0.0311521
0.0311674
0.0311846
0.0312047
0.0312292
0.0312534
0.0312849
0.031314
0.0313516
0.0313865
0.0314288
0.031471
0.0315155
0.0315689
0.0316092
0.0316811
0.0317113
0.0318039
0.0318248
0.0319367
0.0312042
0.0312069
0.031212
0.0312217
0.0312323
0.0312475
0.0312644
0.0312843
0.0313085
0.0313323
0.0313635
0.0313922
0.0314294
0.0314637
0.0315057
0.031547
0.0315915
0.0316432
0.0316843
0.0317539
0.0317851
0.0318757
0.031897
0.0320072
0.031295
0.0312978
0.0313028
0.0313123
0.0313228
0.0313378
0.0313545
0.0313742
0.031398
0.0314215
0.0314523
0.0314805
0.0315172
0.0315509
0.0315925
0.0316329
0.0316773
0.0317274
0.0317692
0.0318363
0.0318682
0.0319569
0.0319786
0.0320869
0.0313963
0.031399
0.0314039
0.0314134
0.0314236
0.0314385
0.0314549
0.0314744
0.0314978
0.031521
0.0315513
0.0315791
0.0316153
0.0316483
0.0316895
0.031729
0.0317732
0.0318218
0.031864
0.0319288
0.0319617
0.0320475
0.0320698
0.0321762
0.031508
0.0315107
0.0315156
0.0315249
0.031535
0.0315497
0.0315658
0.031585
0.031608
0.0316308
0.0316607
0.0316879
0.0317237
0.031756
0.0317967
0.0318352
0.031879
0.0319262
0.0319687
0.0320312
0.0320649
0.0321479
0.0321706
0.0322749
0.0316303
0.031633
0.0316377
0.031647
0.0316568
0.0316713
0.0316871
0.031706
0.0317287
0.031751
0.0317804
0.0318071
0.0318423
0.0318739
0.0319141
0.0319516
0.031995
0.0320407
0.0320835
0.0321436
0.0321776
0.0322586
0.0322812
0.0323832
0.0317632
0.0317659
0.0317705
0.0317796
0.0317892
0.0318035
0.031819
0.0318375
0.0318598
0.0318817
0.0319106
0.0319367
0.0319713
0.0320022
0.0320417
0.0320783
0.0321212
0.0321654
0.0322083
0.032266
0.0323008
0.0323788
0.0324015
0.0325012
0.0319068
0.0319095
0.031914
0.031923
0.0319323
0.0319464
0.0319615
0.0319797
0.0320014
0.0320229
0.0320512
0.0320768
0.0321108
0.0321408
0.0321797
0.0322152
0.0322576
0.0323004
0.0323432
0.0323985
0.0324336
0.0325092
0.0325319
0.032629
0.0320612
0.0320639
0.0320682
0.0320771
0.0320862
0.0321
0.0321147
0.0321326
0.0321538
0.0321748
0.0322025
0.0322274
0.0322607
0.0322899
0.0323281
0.0323626
0.0324044
0.0324456
0.0324882
0.0325411
0.0325767
0.0326492
0.0326725
0.0327668
0.0322265
0.0322291
0.0322334
0.0322421
0.0322509
0.0322645
0.0322787
0.0322962
0.0323169
0.0323373
0.0323644
0.0323885
0.0324212
0.0324495
0.032487
0.0325203
0.0325615
0.0326012
0.0326434
0.032694
0.0327298
0.0327996
0.0328231
0.0329144
0.0324027
0.0324054
0.0324095
0.0324181
0.0324266
0.0324398
0.0324537
0.0324707
0.0324908
0.0325107
0.032537
0.0325605
0.0325923
0.0326197
0.0326564
0.0326886
0.032729
0.0327672
0.032809
0.0328571
0.0328934
0.0329599
0.0329839
0.0330721
0.0325901
0.0325927
0.0325967
0.0326051
0.0326133
0.0326262
0.0326396
0.0326562
0.0326757
0.0326949
0.0327205
0.0327432
0.0327742
0.0328006
0.0328364
0.0328674
0.032907
0.0329437
0.0329849
0.0330307
0.0330671
0.0331307
0.0331549
0.03324
0.0327887
0.0327912
0.032795
0.0328033
0.0328111
0.0328238
0.0328366
0.0328527
0.0328716
0.0328902
0.032915
0.0329368
0.0329669
0.0329924
0.0330272
0.0330569
0.0330956
0.0331307
0.0331713
0.0332147
0.0332512
0.0333117
0.0333363
0.0334181
0.0329986
0.0330011
0.0330047
0.0330127
0.0330203
0.0330325
0.0330449
0.0330604
0.0330786
0.0330965
0.0331206
0.0331415
0.0331707
0.033195
0.0332289
0.0332573
0.033295
0.0333284
0.0333683
0.0334093
0.0334458
0.0335031
0.0335281
0.0336064
0.0332199
0.0332223
0.0332258
0.0332336
0.0332407
0.0332526
0.0332644
0.0332794
0.0332969
0.0333141
0.0333373
0.0333573
0.0333855
0.0334087
0.0334416
0.0334686
0.0335052
0.0335369
0.0335759
0.0336147
0.0336511
0.0337051
0.0337303
0.0338052
0.0334527
0.0334551
0.0334584
0.0334659
0.0334727
0.0334841
0.0334954
0.0335098
0.0335265
0.0335429
0.0335653
0.0335843
0.0336115
0.0336336
0.0336653
0.0336909
0.0337264
0.0337564
0.0337944
0.0338309
0.033867
0.0339177
0.0339431
0.0340144
0.0336971
0.0336994
0.0337025
0.0337099
0.0337162
0.0337272
0.0337378
0.0337516
0.0337676
0.0337832
0.0338046
0.0338227
0.0338488
0.0338697
0.0339003
0.0339244
0.0339588
0.0339869
0.0340239
0.0340581
0.0340939
0.0341412
0.0341666
0.0342342
0.0339531
0.0339555
0.0339583
0.0339654
0.0339713
0.033982
0.0339919
0.0340051
0.0340202
0.034035
0.0340554
0.0340725
0.0340975
0.0341172
0.0341466
0.0341692
0.0342024
0.0342287
0.0342646
0.0342964
0.0343316
0.0343757
0.034401
0.0344647
0.034221
0.0342233
0.0342259
0.0342328
0.0342383
0.0342484
0.0342578
0.0342703
0.0342846
0.0342984
0.0343179
0.0343338
0.0343578
0.0343761
0.0344044
0.0344254
0.0344573
0.0344818
0.0345165
0.0345459
0.0345806
0.0346211
0.0346464
0.0347062
0.0345007
0.0345029
0.0345054
0.034512
0.034517
0.0345267
0.0345354
0.0345472
0.0345607
0.0345737
0.0345921
0.0346069
0.0346296
0.0346466
0.0346737
0.0346931
0.0347237
0.0347463
0.0347798
0.0348069
0.0348407
0.0348779
0.0349031
0.034959
0.0347923
0.0347945
0.0347967
0.0348031
0.0348077
0.0348169
0.0348249
0.0348361
0.0348487
0.0348608
0.0348781
0.0348918
0.0349133
0.0349289
0.0349547
0.0349724
0.0350017
0.0350224
0.0350547
0.0350793
0.0351123
0.0351458
0.0351712
0.0352228
0.0350959
0.0350981
0.0351001
0.0351062
0.0351104
0.0351192
0.0351265
0.035137
0.0351487
0.0351598
0.0351761
0.0351886
0.0352089
0.0352231
0.0352475
0.0352635
0.0352915
0.0353101
0.0353411
0.0353633
0.0353952
0.0354253
0.0354501
0.0354984
0.0354117
0.0354138
0.0354156
0.0354215
0.0354252
0.0354335
0.0354401
0.0354499
0.0354607
0.0354709
0.0354862
0.0354975
0.0355166
0.0355293
0.0355524
0.0355666
0.0355931
0.0356097
0.0356394
0.0356591
0.03569
0.0357165
0.0357411
0.0357852
0.0357397
0.0357418
0.0357434
0.035749
0.0357521
0.03576
0.0357659
0.035775
0.0357849
0.0357942
0.0358084
0.0358185
0.0358364
0.0358476
0.0358693
0.0358818
0.0359068
0.0359213
0.0359495
0.0359668
0.0359965
0.0360197
0.0360444
0.0360833
0.03608
0.036082
0.0360834
0.0360887
0.0360914
0.0360988
0.036104
0.0361124
0.0361214
0.0361298
0.0361429
0.0361518
0.0361684
0.0361782
0.0361986
0.0362092
0.0362328
0.0362451
0.0362719
0.0362866
0.036315
0.0363349
0.0363593
0.0363937
0.0364327
0.0364347
0.0364358
0.0364409
0.0364431
0.03645
0.0364545
0.0364622
0.0364703
0.0364777
0.0364897
0.0364974
0.0365128
0.0365211
0.0365401
0.036549
0.0365711
0.0365812
0.0366065
0.0366186
0.0366456
0.0366624
0.0366864
0.0367162
0.0367978
0.0367998
0.0368007
0.0368055
0.0368073
0.0368137
0.0368175
0.0368245
0.0368316
0.0368381
0.036849
0.0368555
0.0368697
0.0368765
0.0368942
0.0369012
0.0369219
0.0369299
0.0369537
0.0369631
0.0369887
0.0370021
0.0370258
0.0370509
0.0371755
0.0371774
0.0371781
0.0371827
0.037184
0.0371899
0.0371931
0.0371993
0.0372056
0.0372111
0.0372209
0.0372262
0.0372391
0.0372444
0.0372608
0.037266
0.0372853
0.0372911
0.0373135
0.0373203
0.0373443
0.0373545
0.0373776
0.0373979
0.0375659
0.0375677
0.0375682
0.0375725
0.0375734
0.0375788
0.0375813
0.0375869
0.0375923
0.0375968
0.0376055
0.0376096
0.0376213
0.0376251
0.03764
0.0376435
0.0376613
0.037665
0.0376859
0.0376901
0.0377127
0.0377197
0.0377418
0.0377575
0.037969
0.0379708
0.037971
0.0379751
0.0379755
0.0379806
0.0379824
0.0379872
0.0379917
0.0379953
0.038003
0.0380058
0.0380162
0.0380185
0.0380321
0.0380338
0.0380502
0.0380516
0.0380711
0.0380728
0.038094
0.0380979
0.0381187
0.0381297
0.0383849
0.0383867
0.0383868
0.0383906
0.0383906
0.0383951
0.0383963
0.0384005
0.0384041
0.0384068
0.0384134
0.038415
0.0384242
0.038425
0.0384371
0.038437
0.0384519
0.0384512
0.0384692
0.0384682
0.0384881
0.0384889
0.0385088
0.0385148
0.0388139
0.0388156
0.0388155
0.0388191
0.0388186
0.0388227
0.0388232
0.0388267
0.0388295
0.0388313
0.0388368
0.0388373
0.0388452
0.0388445
0.0388552
0.0388533
0.0388667
0.0388638
0.0388803
0.0388766
0.0388952
0.0388928
0.0389117
0.0389131
0.0392559
0.0392576
0.0392573
0.0392606
0.0392597
0.0392634
0.0392632
0.0392661
0.039268
0.0392689
0.0392734
0.0392727
0.0392794
0.0392772
0.0392865
0.0392828
0.0392947
0.0392895
0.0393045
0.0392981
0.0393152
0.0393097
0.0393276
0.0393247
0.0397112
0.0397128
0.0397123
0.0397154
0.0397141
0.0397174
0.0397165
0.0397187
0.0397198
0.0397197
0.0397232
0.0397213
0.0397268
0.0397232
0.0397311
0.0397256
0.0397361
0.0397286
0.0397422
0.0397329
0.0397487
0.0397397
0.0397564
0.0397498
0.0401798
0.0401814
0.0401807
0.0401836
0.0401818
0.0401847
0.0401831
0.0401847
0.0401849
0.0401839
0.0401863
0.0401833
0.0401876
0.0401825
0.0401891
0.0401818
0.0401909
0.0401811
0.0401933
0.0401811
0.0401956
0.0401832
0.0401987
0.0401879
0.0406619
0.0406635
0.0406626
0.0406653
0.040663
0.0406654
0.0406632
0.0406641
0.0406634
0.0406615
0.0406629
0.0406587
0.0406618
0.0406552
0.0406605
0.0406514
0.0406591
0.040647
0.040658
0.0406429
0.0406564
0.0406401
0.0406548
0.0406392
0.0411576
0.0411592
0.0411581
0.0411605
0.0411578
0.0411597
0.0411569
0.0411571
0.0411555
0.0411527
0.041153
0.0411476
0.0411495
0.0411415
0.0411454
0.0411345
0.0411408
0.0411265
0.0411363
0.0411182
0.0411307
0.0411109
0.0411247
0.0411045
0.041667
0.0416685
0.0416672
0.0416694
0.0416662
0.0416678
0.0416642
0.0416637
0.0416613
0.0416575
0.0416568
0.0416502
0.0416508
0.0416413
0.0416439
0.0416312
0.0416362
0.0416196
0.0416281
0.0416072
0.0416188
0.0415951
0.0416085
0.0415838
0.0421902
0.0421917
0.0421901
0.0421921
0.0421884
0.0421895
0.0421852
0.0421841
0.0421807
0.0421761
0.0421743
0.0421665
0.0421659
0.0421549
0.0421561
0.0421416
0.0421452
0.0421263
0.0421335
0.0421097
0.0421204
0.0420931
0.0421061
0.0420765
0.0427271
0.0427286
0.0427268
0.0427285
0.0427244
0.0427251
0.0427201
0.0427183
0.042714
0.0427084
0.0427055
0.0426965
0.0426947
0.0426822
0.0426821
0.0426658
0.042668
0.0426467
0.0426528
0.0426259
0.042636
0.0426046
0.0426178
0.0425828
0.0432779
0.0432793
0.0432774
0.0432788
0.0432742
0.0432744
0.0432688
0.0432663
0.0432611
0.0432546
0.0432506
0.0432404
0.0432374
0.0432234
0.0432219
0.0432037
0.0432047
0.043181
0.0431859
0.0431559
0.0431653
0.0431299
0.0431432
0.0431032
0.0438426
0.0438439
0.0438417
0.043843
0.0438379
0.0438377
0.0438313
0.0438282
0.0438221
0.0438146
0.0438096
0.0437982
0.043794
0.0437784
0.0437757
0.0437556
0.0437553
0.0437291
0.0437331
0.0436998
0.0437088
0.0436687
0.0436828
0.0436376
0.044421
0.0444223
0.04442
0.044421
0.0444154
0.0444148
0.0444077
0.0444039
0.0443969
0.0443885
0.0443825
0.0443698
0.0443644
0.0443473
0.0443434
0.0443213
0.0443199
0.0442911
0.0442943
0.0442576
0.0442665
0.0442215
0.0442361
0.044186
0.0450132
0.0450145
0.0450119
0.0450127
0.0450067
0.0450056
0.0449979
0.0449934
0.0449856
0.0449763
0.0449692
0.0449553
0.0449488
0.0449301
0.044925
0.0449008
0.0448985
0.0448669
0.0448696
0.0448295
0.0448383
0.0447888
0.0448031
0.0447486
0.0456191
0.0456204
0.0456176
0.0456182
0.0456117
0.0456102
0.0456018
0.0455967
0.045588
0.0455778
0.0455698
0.0455545
0.0455471
0.0455267
0.0455207
0.0454942
0.0454912
0.0454568
0.0454591
0.0454147
0.0454242
0.0453704
0.0453844
0.0453254
0.0462385
0.0462398
0.0462368
0.0462372
0.0462302
0.0462284
0.0462193
0.0462136
0.0462041
0.0461929
0.0461841
0.0461675
0.0461592
0.046137
0.0461304
0.0461014
0.0460981
0.0460605
0.0460629
0.0460142
0.0460238
0.0459665
0.0459796
0.0459165
0.0468714
0.0468726
0.0468694
0.0468696
0.0468623
0.0468601
0.0468503
0.046844
0.0468338
0.0468217
0.0468121
0.0467941
0.0467853
0.0467609
0.0467541
0.0467221
0.0467193
0.0466775
0.0466807
0.0466288
0.046637
0.0465766
0.0465892
0.0465219
0.0475175
0.0475187
0.0475153
0.0475153
0.0475075
0.0475051
0.0474947
0.0474878
0.047477
0.0474638
0.0474537
0.0474341
0.0474251
0.0473983
0.0473918
0.0473563
0.0473545
0.0473089
0.0473117
0.0472572
0.0472644
0.0472011
0.0472128
0.0471417
0.0481766
0.0481778
0.0481743
0.0481741
0.0481659
0.0481632
0.0481522
0.0481448
0.0481334
0.0481191
0.0481089
0.0480873
0.0480787
0.0480492
0.0480432
0.0480047
0.0480022
0.0479553
0.0479561
0.0478999
0.0479058
0.0478396
0.0478507
0.0477757
0.0488484
0.0488498
0.048846
0.0488459
0.0488372
0.0488343
0.0488227
0.0488147
0.0488031
0.0487874
0.0487776
0.0487535
0.0487456
0.0487136
0.0487073
0.0486675
0.0486635
0.0486148
0.0486149
0.0485563
0.0485612
0.0484923
0.0485026
0.048424
0.0495329
0.0495344
0.0495302
0.0495304
0.0495211
0.0495182
0.049506
0.0494973
0.0494859
0.0494686
0.0494588
0.0494337
0.0494248
0.049392
0.0493846
0.0493435
0.0493385
0.0492885
0.0492868
0.0492268
0.0492303
0.049159
0.0491685
0.0490864
0.0502299
0.0502313
0.0502269
0.0502272
0.0502173
0.0502146
0.0502018
0.050193
0.0501808
0.0501632
0.0501525
0.0501268
0.050117
0.0500835
0.0500748
0.050033
0.0500267
0.0499751
0.0499728
0.0499107
0.0499133
0.0498396
0.0498483
0.049763
0.050939
0.0509405
0.050936
0.0509361
0.0509262
0.0509231
0.0509096
0.0509015
0.0508879
0.0508703
0.0508589
0.0508326
0.0508221
0.0507877
0.0507782
0.0507355
0.0507282
0.0506755
0.0506717
0.0506082
0.0506098
0.0505339
0.0505419
0.0504535
0.0516601
0.0516616
0.0516572
0.0516571
0.0516471
0.0516439
0.05163
0.051622
0.0516069
0.0515903
0.0515774
0.051551
0.0515397
0.0515049
0.0514942
0.051451
0.0514424
0.0513887
0.0513841
0.051319
0.0513195
0.0512417
0.0512489
0.0511577
0.052393
0.0523946
0.0523902
0.05239
0.0523799
0.0523766
0.0523624
0.0523544
0.0523384
0.0523224
0.0523077
0.0522821
0.0522695
0.0522343
0.0522228
0.052179
0.0521695
0.0521148
0.0521093
0.0520427
0.0520424
0.0519626
0.0519693
0.0518753
0.0531377
0.0531393
0.0531349
0.0531347
0.0531245
0.0531212
0.0531067
0.0530987
0.0530819
0.0530663
0.0530504
0.0530254
0.053011
0.0529764
0.0529636
0.0529194
0.0529089
0.0528535
0.052847
0.0527792
0.052778
0.0526966
0.0527025
0.0526061
0.0538941
0.0538958
0.0538913
0.0538911
0.0538808
0.0538774
0.0538627
0.0538546
0.0538374
0.053822
0.0538051
0.0537805
0.0537649
0.0537303
0.0537165
0.0536719
0.0536604
0.0536043
0.053597
0.053528
0.0535258
0.053443
0.0534483
0.0533497
0.0546622
0.0546639
0.0546594
0.0546592
0.0546487
0.0546454
0.0546303
0.0546223
0.0546046
0.0545893
0.0545716
0.0545471
0.0545307
0.0544958
0.0544811
0.054436
0.0544238
0.0543669
0.0543588
0.0542888
0.0542859
0.0542017
0.0542062
0.0541057
0.0554419
0.0554437
0.0554391
0.055439
0.0554283
0.055425
0.0554096
0.0554015
0.0553834
0.0553681
0.0553495
0.0553252
0.0553076
0.0552729
0.0552574
0.0552114
0.0551986
0.0551411
0.055132
0.0550613
0.0550573
0.0549721
0.054976
0.0548736
0.0562333
0.0562352
0.0562305
0.0562305
0.0562195
0.0562161
0.0562004
0.0561921
0.0561735
0.0561582
0.0561387
0.0561144
0.056096
0.0560608
0.0560447
0.0559979
0.0559845
0.0559262
0.0559164
0.0558449
0.0558402
0.0557538
0.055757
0.0556532
0.0570364
0.0570384
0.0570335
0.0570335
0.0570222
0.0570187
0.0570025
0.056994
0.0569748
0.0569593
0.0569387
0.0569145
0.0568948
0.0568597
0.0568428
0.0567951
0.0567812
0.0567223
0.0567113
0.0566394
0.0566335
0.0565465
0.056549
0.0564439
0.0578509
0.057853
0.0578479
0.0578477
0.057836
0.0578323
0.0578156
0.0578067
0.0577869
0.0577711
0.0577493
0.0577253
0.0577042
0.057669
0.0576511
0.0576026
0.0575882
0.0575284
0.0575168
0.0574443
0.0574376
0.0573498
0.0573516
0.0572456
0.0586762
0.0586784
0.058673
0.0586727
0.0586606
0.0586564
0.0586392
0.0586298
0.0586092
0.0585929
0.0585701
0.0585461
0.0585232
0.0584885
0.058469
0.0584204
0.0584053
0.0583448
0.0583321
0.0582595
0.0582517
0.0581635
0.0581646
0.0580578
0.0595114
0.0595135
0.059508
0.0595074
0.059495
0.0594903
0.0594726
0.0594626
0.0594413
0.0594244
0.0594005
0.0593766
0.0593519
0.0593178
0.0592958
0.0592487
0.0592318
0.0591706
0.0591576
0.0590846
0.0590762
0.0589875
0.0589879
0.0588806
0.0603547
0.0603568
0.0603513
0.0603504
0.0603378
0.0603327
0.0603146
0.060304
0.0602822
0.0602647
0.0602401
0.060216
0.0601897
0.0601564
0.0601322
0.0600861
0.0600677
0.0600063
0.0599928
0.0599198
0.0599104
0.0598218
0.0598216
0.0597139
0.0612042
0.0612063
0.0612008
0.0611998
0.0611872
0.061182
0.0611637
0.061153
0.0611308
0.0611131
0.0610881
0.061064
0.0610365
0.061004
0.0609777
0.0609332
0.060912
0.0608528
0.0608378
0.0607647
0.0607549
0.0606664
0.0606658
0.060558
0.0620576
0.0620598
0.0620545
0.0620537
0.0620413
0.0620363
0.0620184
0.0620079
0.061986
0.0619686
0.0619436
0.0619198
0.0618919
0.0618603
0.0618326
0.0617896
0.0617662
0.0617092
0.0616926
0.0616197
0.0616097
0.0615217
0.0615207
0.0614131
0.0629129
0.0629153
0.0629104
0.0629101
0.0628983
0.0628941
0.0628769
0.0628674
0.0628464
0.0628299
0.0628057
0.0627829
0.0627554
0.062725
0.0626967
0.0626557
0.0626309
0.0625752
0.062558
0.0624852
0.0624754
0.0623876
0.0623867
0.0622795
0.0637695
0.063772
0.0637677
0.0637681
0.0637573
0.0637543
0.0637385
0.0637304
0.063711
0.0636962
0.0636735
0.0636525
0.0636262
0.0635977
0.06357
0.0635312
0.0635054
0.0634526
0.0634333
0.0633629
0.0633524
0.0632648
0.0632639
0.0631571
0.064628
0.0646309
0.0646272
0.0646286
0.0646189
0.0646174
0.0646031
0.064597
0.0645795
0.0645669
0.0645465
0.0645278
0.0645037
0.0644776
0.0644516
0.0644155
0.0643906
0.0643401
0.0643205
0.0642525
0.0642415
0.0641537
0.064153
0.0640462
0.0654919
0.065495
0.0654918
0.0654942
0.0654855
0.0654856
0.0654729
0.0654687
0.0654532
0.065443
0.0654249
0.065409
0.0653872
0.0653642
0.0653408
0.0653076
0.0652846
0.0652375
0.0652195
0.065153
0.0651434
0.0650557
0.0650551
0.0649473
0.0663666
0.0663703
0.0663671
0.0663706
0.0663622
0.0663637
0.0663517
0.0663493
0.0663351
0.0663269
0.0663106
0.0662972
0.0662777
0.0662572
0.0662371
0.0662057
0.0661875
0.0661411
0.0661279
0.066063
0.0660572
0.0659704
0.0659712
0.0658627
0.06726
0.0672645
0.0672604
0.0672653
0.0672556
0.0672589
0.0672453
0.0672452
0.0672297
0.067224
0.0672072
0.0671958
0.0671771
0.0671583
0.0671422
0.0671083
0.0670996
0.0670477
0.0670455
0.0669771
0.0669789
0.0668945
0.0668988
0.066796
0.0681815
0.0681854
0.0681821
0.0681851
0.0681765
0.0681771
0.0681647
0.0681615
0.0681471
0.0681386
0.0681223
0.0681098
0.0680904
0.0680733
0.0680546
0.0680233
0.0680148
0.067965
0.0679634
0.0678979
0.0679029
0.0678202
0.0678294
0.0677343
0.0691391
0.0691428
0.0691389
0.0691409
0.0691308
0.0691298
0.0691152
0.0691097
0.0690926
0.0690815
0.0690625
0.0690471
0.069025
0.0690061
0.0689825
0.0689548
0.0689383
0.0688927
0.0688884
0.0688226
0.0688297
0.0687453
0.068758
0.0686631
0.0701396
0.070143
0.0701382
0.0701389
0.0701267
0.0701234
0.0701057
0.0700968
0.0700758
0.0700604
0.0700367
0.0700165
0.0699894
0.0699656
0.0699362
0.0699052
0.0698817
0.0698355
0.0698256
0.0697566
0.0697639
0.0696743
0.0696893
0.0695904
0.0711862
0.0711898
0.0711836
0.0711833
0.0711686
0.0711629
0.0711415
0.0711293
0.0711031
0.0710831
0.0710531
0.0710271
0.0709927
0.0709622
0.0709244
0.0708864
0.0708547
0.0708007
0.0707852
0.0707071
0.0707118
0.0706136
0.0706294
0.070522
0.0722789
0.072283
0.0722751
0.0722744
0.072257
0.0722497
0.0722243
0.0722096
0.0721775
0.0721548
0.0721163
0.0720866
0.0720423
0.0720051
0.071958
0.0719102
0.0718702
0.0718012
0.0717782
0.0716865
0.071684
0.0715722
0.0715856
0.0714645
0.0734146
0.073418
0.0734108
0.0734077
0.0733903
0.0733798
0.0733536
0.0733342
0.0733011
0.0732713
0.0732317
0.073193
0.0731454
0.0730993
0.0730434
0.0729896
0.0729318
0.0728581
0.0728179
0.072713
0.0726958
0.0725655
0.0725707
0.0724276
0.0745865
0.0745897
0.0745823
0.0745787
0.0745605
0.0745491
0.0745214
0.0745005
0.0744653
0.0744332
0.0743905
0.0743484
0.0742966
0.0742456
0.0741841
0.0741234
0.0740544
0.07398
0.0739118
0.0738093
0.0737658
0.0736177
0.0736063
0.0734301
0.0757866
0.0757896
0.0757824
0.0757787
0.0757603
0.0757487
0.0757206
0.0756991
0.0756632
0.0756302
0.0755866
0.0755431
0.0754897
0.0754365
0.0753726
0.0753088
0.0752357
0.0751574
0.0750787
0.074978
0.0749047
0.0747598
0.0747214
0.0745075
0.0770062
0.0770094
0.0770023
0.076999
0.0769807
0.0769695
0.0769417
0.0769207
0.0768852
0.0768527
0.0768095
0.0767664
0.0767135
0.0766608
0.0765972
0.0765338
0.076461
0.0763827
0.0763036
0.0762046
0.0761254
0.0759885
0.0759325
0.0757069
0.0782366
0.0782402
0.0782334
0.0782306
0.0782129
0.0782026
0.0781756
0.0781558
0.0781213
0.0780903
0.0780484
0.0780072
0.0779561
0.0779054
0.0778441
0.0777832
0.077713
0.077638
0.0775635
0.0774659
0.0773984
0.0772601
0.0772207
0.0770224
0.0794701
0.079474
0.0794675
0.0794655
0.0794485
0.0794394
0.0794135
0.0793953
0.0793624
0.0793334
0.0792936
0.0792548
0.0792063
0.0791587
0.0791004
0.0790434
0.0789768
0.0789064
0.0788365
0.0787449
0.0786831
0.0785523
0.0785157
0.0783321
0.0806995
0.0807036
0.0806975
0.0806964
0.0806802
0.0806725
0.0806479
0.0806316
0.0806005
0.0805739
0.0805364
0.0805006
0.0804549
0.0804109
0.0803563
0.0803033
0.0802411
0.080176
0.0801108
0.0800256
0.0799683
0.0798475
0.0798132
0.0796433
0.0819185
0.0819231
0.0819173
0.0819172
0.0819018
0.0818957
0.0818723
0.0818582
0.0818288
0.0818051
0.0817698
0.0817376
0.0816946
0.0816548
0.0816035
0.0815553
0.0814973
0.0814381
0.0813771
0.0812982
0.0812468
0.081135
0.0811029
0.080947
0.0831225
0.0831274
0.0831215
0.0831231
0.0831077
0.0831039
0.0830812
0.0830701
0.0830416
0.0830218
0.0829876
0.0829603
0.0829186
0.0828846
0.0828355
0.0827931
0.0827388
0.0826851
0.0826299
0.0825565
0.0825095
0.082408
0.0823779
0.0822358
0.0843069
0.0843121
0.0843064
0.0843092
0.0842942
0.0842926
0.0842704
0.0842624
0.0842346
0.084219
0.0841856
0.0841636
0.0841227
0.0840953
0.0840469
0.0840124
0.0839596
0.083913
0.0838618
0.0837956
0.0837523
0.0836606
0.0836328
0.0835041
0.0854682
0.0854736
0.0854687
0.0854715
0.0854587
0.0854568
0.0854379
0.0854298
0.0854063
0.0853908
0.0853624
0.0853412
0.0853056
0.0852801
0.0852371
0.0852058
0.085158
0.085117
0.0850687
0.0850108
0.0849707
0.0848889
0.0848633
0.0847475
0.0866036
0.0866092
0.086605
0.0866081
0.0865966
0.0865956
0.0865787
0.0865717
0.0865511
0.0865368
0.0865125
0.0864925
0.0864621
0.0864379
0.0864007
0.0863718
0.0863293
0.0862933
0.0862486
0.0861994
0.0861614
0.0860891
0.0860656
0.0859625
0.087711
0.0877166
0.0877129
0.0877165
0.0877061
0.0877061
0.0876908
0.0876853
0.087667
0.0876545
0.0876332
0.0876154
0.0875888
0.0875673
0.0875345
0.0875089
0.087471
0.0874393
0.0873986
0.087358
0.0873218
0.0872585
0.0872371
0.0871461
0.0887885
0.0887939
0.0887907
0.0887948
0.0887853
0.0887864
0.0887725
0.0887686
0.0887523
0.0887418
0.0887231
0.0887077
0.0886844
0.0886656
0.0886369
0.0886145
0.0885813
0.0885541
0.0885175
0.0884826
0.0884492
0.0883955
0.0883758
0.0882965
0.0898342
0.0898397
0.0898369
0.0898415
0.0898328
0.0898349
0.0898224
0.0898199
0.0898055
0.0897969
0.0897807
0.0897675
0.0897474
0.0897314
0.0897062
0.0896874
0.089658
0.0896351
0.0896029
0.089574
0.0895421
0.0894985
0.0894795
0.0894117
0.0908474
0.0908528
0.0908503
0.0908555
0.0908475
0.0908507
0.0908392
0.0908383
0.0908255
0.0908188
0.0908049
0.090794
0.0907766
0.0907633
0.0907416
0.0907257
0.0907005
0.0906812
0.0906532
0.0906291
0.0906009
0.0905653
0.0905477
0.0904904
0.0918272
0.0918325
0.0918303
0.0918359
0.0918287
0.0918326
0.0918225
0.0918227
0.0918117
0.0918066
0.0917949
0.0917861
0.0917714
0.0917606
0.091742
0.0917294
0.0917074
0.0916921
0.0916676
0.0916481
0.0916236
0.0915951
0.0915799
0.0915314
0.092773
0.0927782
0.0927763
0.0927824
0.0927756
0.0927806
0.0927713
0.0927729
0.0927633
0.0927599
0.0927501
0.0927433
0.0927311
0.0927228
0.0927071
0.0926972
0.0926789
0.0926667
0.092646
0.0926308
0.0926097
0.092588
0.0925737
0.0925341
0.0936846
0.0936898
0.0936879
0.0936946
0.093688
0.0936944
0.0936854
0.0936887
0.0936802
0.0936784
0.0936704
0.0936655
0.0936556
0.0936494
0.0936365
0.0936293
0.0936139
0.0936052
0.0935879
0.0935766
0.093559
0.0935424
0.0935299
0.0934986
0.0945618
0.0945668
0.0945658
0.0945712
0.0945677
0.0945717
0.0945666
0.0945686
0.0945629
0.0945617
0.0945557
0.0945525
0.0945446
0.0945406
0.0945302
0.0945255
0.094513
0.0945073
0.0944929
0.0944853
0.0944712
0.0944592
0.0944485
0.0944249
0.095405
0.09541
0.0954084
0.0954161
0.0954096
0.0954185
0.09541
0.0954165
0.0954094
0.0954111
0.0954058
0.0954045
0.0953985
0.0953965
0.0953884
0.0953859
0.095376
0.0953729
0.0953617
0.0953575
0.0953458
0.0953382
0.0953301
0.0953132
0.0962141
0.0962188
0.0962187
0.0962236
0.0962223
0.0962259
0.0962241
0.0962263
0.0962242
0.0962246
0.096222
0.0962217
0.0962176
0.0962173
0.0962114
0.096211
0.0962036
0.0962033
0.0961942
0.0961932
0.0961845
0.0961806
0.0961745
0.0961642
0.09699
0.0969945
0.0969939
0.0970007
0.096997
0.0970047
0.0969995
0.0970064
0.0970021
0.0970058
0.0970033
0.0970049
0.0970022
0.0970036
0.0969997
0.0970012
0.096996
0.0969978
0.0969918
0.0969934
0.096987
0.096987
0.0969832
0.0969781
0.0977326
0.0977371
0.0977371
0.0977428
0.0977413
0.0977471
0.0977455
0.0977499
0.0977494
0.0977519
0.0977518
0.0977541
0.0977531
0.0977559
0.0977537
0.0977571
0.0977539
0.0977581
0.0977537
0.0977584
0.0977543
0.0977577
0.0977553
0.0977558
0.0984434
0.0984472
0.0984481
0.0984528
0.0984532
0.0984577
0.0984577
0.0984624
0.0984624
0.0984664
0.0984668
0.0984705
0.0984707
0.098475
0.0984744
0.0984793
0.0984779
0.0984839
0.098482
0.0984886
0.0984865
0.0984931
0.0984923
0.0984976
0.0991222
0.0991265
0.0991264
0.099133
0.0991309
0.099139
0.0991367
0.0991438
0.0991435
0.0991487
0.0991499
0.0991547
0.099156
0.0991615
0.0991623
0.0991687
0.0991689
0.0991769
0.0991762
0.0991856
0.0991847
0.0991944
0.0991944
0.0992043
0.0997709
0.099774
0.0997761
0.0997791
0.0997824
0.0997847
0.0997888
0.0997913
0.0997955
0.0997989
0.0998024
0.0998072
0.09981
0.0998164
0.0998185
0.0998262
0.0998278
0.0998371
0.0998383
0.0998492
0.0998503
0.0998624
0.0998634
0.0998769
0.100389
0.100393
0.100393
0.100399
0.100399
0.100406
0.100405
0.100413
0.100414
0.100421
0.100423
0.10043
0.100433
0.100441
0.100444
0.100453
0.100456
0.100466
0.100469
0.100482
0.100483
0.100498
0.1005
0.100517
0.100979
0.100982
0.100984
0.100987
0.10099
0.100994
0.100998
0.101002
0.101007
0.101011
0.101016
0.101023
0.101027
0.101035
0.10104
0.101049
0.101053
0.101065
0.101069
0.101083
0.101086
0.101103
0.101106
0.101125
0.101541
0.101544
0.101546
0.101549
0.101552
0.101556
0.10156
0.101565
0.101569
0.101576
0.10158
0.101588
0.101592
0.101601
0.101606
0.101617
0.101622
0.101635
0.10164
0.101655
0.101659
0.101677
0.101681
0.101702
0.102076
0.102079
0.10208
0.102085
0.102086
0.102093
0.102094
0.102101
0.102105
0.102112
0.102117
0.102125
0.10213
0.10214
0.102146
0.102157
0.102163
0.102177
0.102182
0.102199
0.102204
0.102224
0.102227
0.102252
0.102585
0.102587
0.10259
0.102591
0.102598
0.102598
0.102606
0.102608
0.102616
0.102621
0.102627
0.102636
0.102642
0.102652
0.102658
0.102671
0.102677
0.102692
0.102698
0.102716
0.102721
0.102743
0.102746
0.102773
0.103069
0.103071
0.103072
0.103078
0.103078
0.103087
0.103086
0.103096
0.103098
0.103108
0.103112
0.103122
0.103128
0.103139
0.103146
0.103159
0.103165
0.103181
0.103188
0.103207
0.103212
0.103235
0.10324
0.103266
0.103529
0.103531
0.103534
0.103535
0.103542
0.103542
0.103551
0.103552
0.103562
0.103566
0.103575
0.103583
0.10359
0.103601
0.103608
0.103622
0.103629
0.103645
0.103653
0.103672
0.103679
0.103702
0.103708
0.103736
0.103966
0.103969
0.103969
0.103975
0.103975
0.103984
0.103983
0.103995
0.103996
0.104007
0.104011
0.104022
0.104028
0.10404
0.104048
0.104062
0.104069
0.104086
0.104094
0.104114
0.104121
0.104146
0.104151
0.104181
0.104382
0.104383
0.104387
0.104387
0.104395
0.104394
0.104404
0.104405
0.104415
0.10442
0.104428
0.104437
0.104445
0.104457
0.104465
0.104479
0.104487
0.104505
0.104513
0.104534
0.10454
0.104566
0.104572
0.104603
0.104776
0.104779
0.104778
0.104786
0.104783
0.104795
0.104792
0.104805
0.104806
0.104817
0.104822
0.104833
0.10484
0.104852
0.104861
0.104875
0.104883
0.104901
0.10491
0.104931
0.104938
0.104965
0.104971
0.105002
0.105151
0.105151
0.105156
0.105154
0.105164
0.105161
0.105174
0.105173
0.105184
0.105189
0.105198
0.105207
0.105215
0.105227
0.105236
0.105251
0.105259
0.105277
0.105286
0.105308
0.105315
0.105342
0.105348
0.105381
0.105506
0.105509
0.105507
0.105516
0.105511
0.105525
0.105521
0.105535
0.105535
0.105547
0.105552
0.105563
0.10557
0.105583
0.105592
0.105607
0.105615
0.105634
0.105642
0.105664
0.105672
0.1057
0.105706
0.105739
0.105843
0.105843
0.105849
0.105846
0.105857
0.105853
0.105866
0.105865
0.105877
0.105881
0.10589
0.105899
0.105908
0.10592
0.105929