/*--------------------------------*- C++ -*----------------------------------*\
  =========                 |
  \\      /  F ield         | OpenFOAM: The Open Source CFD Toolbox
   \\    /   O peration     | Website:  https://openfoam.org
    \\  /    A nd           | Version:  10
     \\/     M anipulation  |
\*---------------------------------------------------------------------------*/
FoamFile
{
    format      ascii;
    class       volScalarField;
    location    "0.36";
    object      T;
}
// * * * * * * * * * * * * * * * * * * * * * * * * * * * * * * * * * * * * * //

dimensions      [0 0 0 1 0 0 0];

internalField   nonuniform List<scalar> 
4176
(
180.347
180.352
180.372
180.383
180.425
180.445
180.506
180.538
180.613
180.661
180.749
180.809
180.913
180.986
181.1
181.192
181.307
181.43
181.534
181.703
181.777
182.011
182.025
182.325
180.356
180.361
180.381
180.393
180.436
180.457
180.518
180.552
180.627
180.678
180.767
180.829
180.935
181.01
181.127
181.221
181.34
181.465
181.571
181.744
181.818
182.062
182.08
182.41
180.384
180.389
180.409
180.42
180.462
180.483
180.542
180.576
180.648
180.698
180.785
180.846
180.95
181.023
181.138
181.229
181.347
181.468
181.572
181.74
181.81
182.05
182.067
182.408
180.436
180.44
180.46
180.472
180.513
180.534
180.593
180.627
180.7
180.749
180.837
180.897
181.001
181.073
181.19
181.28
181.399
181.522
181.621
181.795
181.862
182.098
182.113
182.439
180.511
180.516
180.535
180.546
180.587
180.608
180.666
180.7
180.772
180.821
180.907
180.966
181.07
181.14
181.257
181.344
181.465
181.586
181.683
181.857
181.924
182.156
182.172
182.487
180.61
180.615
180.634
180.645
180.686
180.707
180.764
180.798
180.868
180.917
181.002
181.062
181.164
181.234
181.35
181.435
181.558
181.673
181.776
181.945
182.014
182.244
182.263
182.578
180.733
180.738
180.757
180.768
180.808
180.828
180.885
180.918
180.988
181.037
181.12
181.18
181.28
181.35
181.465
181.548
181.672
181.782
181.889
182.052
182.122
182.35
182.37
182.684
180.88
180.884
180.904
180.914
180.954
180.974
181.031
181.063
181.132
181.18
181.263
181.321
181.421
181.489
181.603
181.685
181.808
181.914
182.024
182.181
182.254
182.478
182.5
182.809
181.051
181.055
181.074
181.085
181.124
181.144
181.199
181.231
181.3
181.347
181.428
181.486
181.584
181.652
181.764
181.845
181.967
182.069
182.181
182.333
182.408
182.627
182.65
182.955
181.245
181.25
181.268
181.279
181.318
181.337
181.392
181.423
181.491
181.537
181.618
181.674
181.771
181.838
181.949
182.027
182.149
182.248
182.361
182.507
182.585
182.797
182.822
183.122
181.463
181.468
181.486
181.496
181.535
181.554
181.608
181.639
181.705
181.751
181.83
181.886
181.981
182.046
182.156
182.233
182.353
182.449
182.562
182.703
182.783
182.989
183.016
183.311
181.705
181.71
181.728
181.738
181.776
181.794
181.848
181.878
181.943
181.988
182.066
182.121
182.215
182.278
182.387
182.461
182.58
182.673
182.787
182.922
183.002
183.205
183.231
183.52
181.971
181.975
181.994
182.003
182.04
182.058
182.111
182.14
182.205
182.249
182.325
182.379
182.471
182.533
182.64
182.712
182.83
182.919
183.033
183.163
183.246
183.44
183.468
183.751
182.26
182.264
182.283
182.291
182.329
182.346
182.398
182.426
182.49
182.532
182.608
182.66
182.751
182.811
182.916
182.986
183.102
183.189
183.302
183.427
183.51
183.699
183.727
184.004
182.573
182.577
182.595
182.604
182.641
182.657
182.708
182.736
182.798
182.84
182.913
182.964
183.053
183.112
183.215
183.283
183.397
183.481
183.594
183.713
183.797
183.979
184.007
184.278
182.91
182.914
182.932
182.94
182.976
182.992
183.042
183.069
183.13
183.17
183.242
183.292
183.379
183.436
183.537
183.602
183.715
183.795
183.907
184.022
184.105
184.282
184.31
184.574
183.271
183.275
183.292
183.299
183.335
183.35
183.4
183.425
183.485
183.524
183.595
183.642
183.728
183.782
183.882
183.945
184.055
184.132
184.243
184.352
184.436
184.606
184.634
184.892
183.655
183.659
183.676
183.683
183.718
183.732
183.781
183.805
183.863
183.901
183.97
184.016
184.099
184.152
184.249
184.31
184.418
184.492
184.6
184.705
184.788
184.952
184.98
185.231
184.063
184.067
184.084
184.09
184.125
184.137
184.185
184.208
184.265
184.301
184.369
184.413
184.494
184.544
184.64
184.697
184.803
184.874
184.98
185.08
185.162
185.32
185.348
185.592
184.495
184.498
184.515
184.521
184.555
184.567
184.614
184.635
184.691
184.725
184.791
184.833
184.912
184.96
185.052
185.107
185.211
185.278
185.382
185.477
185.559
185.71
185.738
185.974
184.95
184.953
184.97
184.975
185.008
185.019
185.065
185.085
185.139
185.172
185.236
185.276
185.352
185.398
185.488
185.54
185.641
185.705
185.807
185.896
185.977
186.122
186.149
186.379
185.429
185.432
185.448
185.453
185.486
185.496
185.54
185.559
185.611
185.642
185.704
185.742
185.816
185.859
185.946
185.996
186.093
186.154
186.253
186.338
186.418
186.555
186.583
186.804
185.932
185.935
185.951
185.955
185.986
185.995
186.039
186.056
186.107
186.136
186.195
186.231
186.303
186.343
186.428
186.474
186.568
186.625
186.722
186.801
186.88
187.011
187.038
187.252
186.458
186.461
186.476
186.48
186.51
186.518
186.56
186.576
186.625
186.652
186.709
186.743
186.812
186.85
186.931
186.975
187.066
187.119
187.212
187.288
187.364
187.488
187.515
187.72
187.008
187.011
187.025
187.028
187.058
187.065
187.105
187.119
187.167
187.192
187.247
187.278
187.345
187.38
187.458
187.498
187.586
187.636
187.725
187.796
187.871
187.987
188.013
188.211
187.581
187.583
187.598
187.6
187.629
187.634
187.674
187.686
187.732
187.754
187.807
187.836
187.9
187.932
188.007
188.044
188.129
188.175
188.261
188.327
188.399
188.509
188.532
188.723
188.177
188.179
188.193
188.194
188.223
188.227
188.265
188.275
188.319
188.34
188.39
188.416
188.478
188.507
188.579
188.613
188.694
188.736
188.819
188.88
188.95
189.052
189.074
189.257
188.796
188.798
188.812
188.812
188.84
188.842
188.879
188.888
188.93
188.948
188.996
189.02
189.078
189.104
189.173
189.204
189.281
189.32
189.399
189.455
189.521
189.618
189.639
189.813
189.437
189.44
189.453
189.453
189.479
189.481
189.516
189.523
189.563
189.579
189.625
189.646
189.701
189.725
189.79
189.817
189.891
189.926
190.001
190.053
190.116
190.205
190.225
190.39
190.102
190.104
190.117
190.116
190.141
190.142
190.176
190.181
190.219
190.233
190.276
190.294
190.347
190.367
190.429
190.453
190.523
190.554
190.625
190.672
190.732
190.814
190.834
190.988
190.789
190.791
190.803
190.801
190.826
190.825
190.858
190.861
190.898
190.909
190.95
190.966
191.016
191.032
191.091
191.111
191.178
191.204
191.271
191.314
191.371
191.446
191.463
191.61
191.498
191.5
191.512
191.509
191.533
191.531
191.562
191.564
191.598
191.608
191.647
191.659
191.706
191.72
191.775
191.792
191.855
191.877
191.94
191.978
192.031
192.099
192.115
192.253
192.229
192.231
192.243
192.239
192.262
192.259
192.289
192.289
192.321
192.329
192.365
192.375
192.419
192.43
192.481
192.495
192.554
192.572
192.631
192.664
192.713
192.775
192.79
192.918
192.983
192.984
192.995
192.991
193.013
193.008
193.037
193.035
193.066
193.071
193.105
193.113
193.154
193.162
193.21
193.22
193.275
193.289
193.344
193.372
193.417
193.473
193.486
193.605
193.757
193.759
193.77
193.765
193.786
193.78
193.807
193.804
193.833
193.836
193.867
193.872
193.911
193.915
193.96
193.966
194.018
194.029
194.079
194.103
194.144
194.193
194.204
194.313
194.554
194.555
194.565
194.56
194.58
194.573
194.599
194.594
194.621
194.622
194.651
194.653
194.689
194.691
194.732
194.735
194.783
194.79
194.836
194.855
194.892
194.935
194.943
195.044
195.371
195.372
195.382
195.376
195.396
195.387
195.412
195.405
195.431
195.429
195.456
195.456
195.489
195.488
195.526
195.525
195.57
195.572
195.615
195.629
195.663
195.7
195.705
195.796
196.21
196.211
196.22
196.213
196.232
196.223
196.246
196.238
196.261
196.258
196.283
196.28
196.31
196.306
196.342
196.337
196.378
196.376
196.416
196.425
196.455
196.486
196.488
196.57
197.069
197.07
197.079
197.072
197.09
197.079
197.101
197.091
197.113
197.108
197.131
197.125
197.153
197.145
197.178
197.169
197.208
197.201
197.237
197.242
197.268
197.294
197.293
197.365
197.949
197.95
197.959
197.951
197.968
197.956
197.977
197.966
197.986
197.979
197.999
197.992
198.016
198.006
198.036
198.024
198.059
198.048
198.081
198.08
198.103
198.122
198.118
198.183
198.849
198.85
198.859
198.85
198.866
198.854
198.873
198.861
198.879
198.87
198.888
198.878
198.901
198.888
198.915
198.899
198.931
198.915
198.945
198.939
198.959
198.972
198.965
199.022
199.77
199.771
199.779
199.77
199.785
199.772
199.79
199.776
199.793
199.782
199.798
199.786
199.806
199.79
199.814
199.794
199.824
199.804
199.83
199.819
199.836
199.842
199.833
199.882
200.711
200.711
200.719
200.709
200.724
200.71
200.727
200.711
200.727
200.714
200.728
200.713
200.731
200.712
200.734
200.71
200.737
200.713
200.736
200.72
200.733
200.734
200.721
200.762
201.671
201.672
201.679
201.669
201.683
201.667
201.683
201.666
201.68
201.666
201.678
201.661
201.676
201.654
201.674
201.646
201.67
201.642
201.663
201.641
201.652
201.646
201.631
201.663
202.652
202.652
202.659
202.648
202.662
202.645
202.66
202.641
202.654
202.637
202.647
202.628
202.641
202.616
202.634
202.602
202.624
202.591
202.609
202.582
202.591
202.579
202.561
202.586
203.651
203.651
203.658
203.647
203.659
203.642
203.655
203.636
203.646
203.628
203.636
203.615
203.625
203.598
203.613
203.578
203.597
203.559
203.576
203.543
203.55
203.53
203.512
203.528
204.67
204.67
204.676
204.664
204.676
204.658
204.67
204.649
204.658
204.638
204.644
204.62
204.628
204.598
204.611
204.573
204.589
204.547
204.562
204.524
204.528
204.502
204.484
204.49
205.707
205.707
205.713
205.7
205.712
205.692
205.703
205.681
205.688
205.667
205.671
205.645
205.651
205.618
205.628
205.586
205.601
205.554
205.567
205.523
205.526
205.492
205.475
205.471
206.762
206.762
206.768
206.755
206.765
206.745
206.755
206.731
206.737
206.714
206.716
206.688
206.692
206.656
206.664
206.618
206.631
206.58
206.591
206.541
206.543
206.501
206.485
206.472
207.835
207.835
207.841
207.827
207.837
207.815
207.825
207.799
207.804
207.779
207.779
207.749
207.751
207.712
207.718
207.669
207.679
207.624
207.633
207.577
207.579
207.53
207.513
207.492
208.926
208.925
208.931
208.917
208.926
208.903
208.912
208.885
208.888
208.861
208.86
208.827
208.827
208.786
208.79
208.737
208.746
208.686
208.694
208.63
208.635
208.575
208.56
208.53
210.033
210.032
210.038
210.023
210.031
210.008
210.015
209.987
209.989
209.961
209.957
209.923
209.921
209.877
209.879
209.823
209.831
209.764
209.773
209.701
209.708
209.641
209.624
209.587
211.156
211.155
211.16
211.145
211.153
211.129
211.135
211.106
211.107
211.077
211.072
211.035
211.032
210.985
210.985
210.925
210.932
210.86
210.871
210.792
210.796
210.723
210.706
210.661
212.295
212.294
212.299
212.283
212.29
212.266
212.271
212.241
212.24
212.208
212.202
212.164
212.159
212.109
212.108
212.044
212.051
211.972
211.984
211.898
211.903
211.824
211.805
211.754
213.448
213.447
213.452
213.436
213.443
213.417
213.421
213.39
213.388
213.355
213.348
213.307
213.302
213.248
213.247
213.179
213.186
213.103
213.112
213.022
213.025
212.941
212.922
212.863
214.616
214.615
214.619
214.603
214.609
214.583
214.586
214.554
214.551
214.516
214.509
214.465
214.46
214.401
214.403
214.328
214.336
214.247
214.258
214.162
214.164
214.075
214.055
213.99
215.796
215.796
215.8
215.783
215.789
215.762
215.765
215.732
215.728
215.691
215.684
215.637
215.632
215.57
215.571
215.493
215.5
215.41
215.416
215.319
215.318
215.225
215.204
215.132
216.99
216.989
216.993
216.976
216.981
216.954
216.956
216.922
216.919
216.879
216.873
216.822
216.818
216.754
216.753
216.674
216.678
216.585
216.591
216.49
216.488
216.391
216.368
216.291
218.195
218.194
218.197
218.181
218.185
218.159
218.16
218.125
218.122
218.08
218.073
218.022
218.016
217.95
217.949
217.867
217.87
217.776
217.778
217.675
217.672
217.571
217.548
217.465
219.411
219.411
219.414
219.397
219.401
219.374
219.374
219.34
219.335
219.294
219.286
219.233
219.226
219.16
219.156
219.074
219.074
218.979
218.98
218.875
218.87
218.766
218.741
218.653
220.638
220.638
220.641
220.624
220.628
220.601
220.6
220.566
220.559
220.519
220.509
220.456
220.448
220.381
220.377
220.293
220.292
220.195
220.194
220.087
220.081
219.973
219.949
219.856
221.875
221.875
221.878
221.861
221.864
221.837
221.836
221.803
221.794
221.755
221.742
221.691
221.681
221.614
221.608
221.523
221.521
221.423
221.42
221.312
221.304
221.194
221.169
221.071
223.121
223.121
223.124
223.107
223.111
223.083
223.082
223.048
223.038
223.001
222.986
222.936
222.924
222.856
222.85
222.764
222.761
222.662
222.658
222.549
222.539
222.427
222.401
222.299
224.376
224.376
224.379
224.362
224.366
224.338
224.337
224.304
224.293
224.256
224.239
224.19
224.176
224.109
224.102
224.015
224.011
223.911
223.905
223.795
223.785
223.67
223.644
223.539
225.64
225.64
225.643
225.626
225.63
225.602
225.601
225.567
225.556
225.52
225.501
225.453
225.437
225.372
225.363
225.275
225.27
225.169
225.163
225.052
225.04
224.924
224.897
224.789
226.913
226.912
226.916
226.898
226.902
226.874
226.873
226.839
226.827
226.792
226.772
226.724
226.708
226.641
226.631
226.544
226.538
226.436
226.429
226.317
226.305
226.187
226.16
226.048
228.193
228.193
228.196
228.179
228.182
228.154
228.152
228.119
228.106
228.071
228.05
228.003
227.985
227.92
227.908
227.821
227.814
227.711
227.703
227.59
227.577
227.458
227.431
227.316
229.481
229.481
229.484
229.467
229.47
229.442
229.44
229.406
229.393
229.358
229.336
229.289
229.269
229.204
229.191
229.104
229.096
228.992
228.985
228.869
228.857
228.736
228.709
228.592
230.777
230.777
230.78
230.762
230.765
230.737
230.734
230.7
230.686
230.651
230.627
230.582
230.559
230.495
230.48
230.394
230.385
230.28
230.271
230.156
230.142
230.021
229.994
229.875
232.079
232.079
232.082
232.064
232.067
232.038
232.034
232
231.985
231.95
231.924
231.879
231.855
231.791
231.773
231.689
231.678
231.573
231.565
231.447
231.434
231.311
231.284
231.164
233.386
233.386
233.389
233.371
233.373
233.344
233.34
233.305
233.289
233.253
233.226
233.182
233.154
233.092
233.072
232.988
232.976
232.871
232.862
232.743
232.73
232.608
232.58
232.459
234.697
234.697
234.699
234.681
234.683
234.653
234.648
234.613
234.596
234.559
234.531
234.487
234.458
234.397
234.374
234.292
234.276
234.174
234.164
234.045
234.031
233.908
233.881
233.76
236.008
236.008
236.011
235.992
235.994
235.963
235.958
235.922
235.905
235.868
235.839
235.796
235.764
235.705
235.679
235.599
235.581
235.481
235.469
235.351
235.336
235.214
235.188
235.066
237.317
237.316
237.319
237.3
237.303
237.272
237.268
237.232
237.215
237.178
237.149
237.106
237.073
237.016
236.987
236.91
236.89
236.791
236.778
236.662
236.647
236.525
236.499
236.377
238.619
238.619
238.622
238.604
238.607
238.577
238.574
238.538
238.522
238.487
238.458
238.417
238.384
238.328
238.299
238.224
238.201
238.107
238.089
237.978
237.962
237.841
237.816
237.694
239.914
239.914
239.918
239.9
239.905
239.876
239.874
239.841
239.827
239.793
239.766
239.727
239.695
239.642
239.613
239.542
239.518
239.426
239.408
239.298
239.283
239.162
239.139
239.017
241.2
241.201
241.206
241.189
241.195
241.168
241.169
241.138
241.126
241.096
241.071
241.036
241.006
240.957
240.929
240.862
240.837
240.752
240.732
240.624
240.609
240.49
240.467
240.346
242.481
242.482
242.488
242.473
242.48
242.456
242.459
242.43
242.422
242.395
242.374
242.342
242.316
242.271
242.246
242.184
242.161
242.08
242.06
241.958
241.943
241.823
241.802
241.681
243.762
243.764
243.77
243.756
243.765
243.743
243.748
243.722
243.716
243.693
243.675
243.647
243.624
243.584
243.563
243.505
243.487
243.409
243.395
243.293
243.283
243.165
243.146
243.023
245.053
245.055
245.062
245.049
245.058
245.038
245.042
245.02
245.014
244.994
244.978
244.954
244.934
244.896
244.881
244.823
244.815
244.736
244.73
244.631
244.628
244.512
244.496
244.376
246.364
246.367
246.373
246.361
246.369
246.349
246.354
246.331
246.325
246.306
246.29
246.267
246.247
246.213
246.2
246.143
246.141
246.059
246.066
245.963
245.969
245.857
245.847
245.736
247.708
247.71
247.717
247.702
247.711
247.687
247.692
247.666
247.66
247.637
247.62
247.595
247.574
247.541
247.523
247.47
247.465
247.387
247.394
247.294
247.304
247.192
247.189
247.084
249.094
249.096
249.101
249.085
249.092
249.066
249.067
249.038
249.028
249.001
248.979
248.95
248.923
248.887
248.862
248.81
248.796
248.72
248.724
248.622
248.634
248.52
248.521
248.415
250.529
250.53
250.534
250.517
250.521
250.491
250.489
250.454
250.439
250.406
250.377
250.341
250.307
250.263
250.23
250.173
250.148
250.07
250.063
249.956
249.968
249.845
249.849
249.736
252.013
252.016
252.018
251.999
252
251.967
251.96
251.922
251.899
251.861
251.823
251.781
251.736
251.684
251.638
251.571
251.535
251.443
251.43
251.309
251.314
251.178
251.182
251.054
253.546
253.548
253.549
253.528
253.527
253.492
253.481
253.438
253.411
253.367
253.322
253.272
253.218
253.157
253.099
253.022
252.969
252.865
252.835
252.698
252.69
252.534
252.533
252.382
255.119
255.12
255.122
255.099
255.097
255.059
255.047
255
254.97
254.921
254.872
254.815
254.755
254.685
254.617
254.533
254.46
254.353
254.295
254.15
254.116
253.937
253.922
253.736
256.721
256.722
256.724
256.7
256.699
256.659
256.646
256.598
256.566
256.514
256.463
256.403
256.339
256.265
256.19
256.1
256.017
255.907
255.823
255.68
255.613
255.422
255.381
255.149
258.342
258.342
258.345
258.321
258.32
258.28
258.267
258.218
258.187
258.135
258.083
258.023
257.957
257.882
257.806
257.715
257.627
257.517
257.423
257.283
257.191
257.006
256.938
256.67
259.968
259.969
259.972
259.949
259.948
259.909
259.897
259.85
259.819
259.768
259.718
259.659
259.595
259.523
259.448
259.359
259.272
259.164
259.072
258.935
258.844
258.663
258.593
258.327
261.589
261.59
261.594
261.571
261.572
261.534
261.524
261.478
261.45
261.401
261.353
261.298
261.236
261.168
261.096
261.012
260.93
260.828
260.741
260.61
260.528
260.354
260.294
260.052
263.196
263.197
263.201
263.18
263.181
263.145
263.136
263.093
263.067
263.022
262.977
262.926
262.868
262.805
262.737
262.66
262.581
262.488
262.406
262.284
262.209
262.047
261.993
261.771
264.779
264.781
264.785
264.765
264.768
264.734
264.727
264.686
264.663
264.622
264.579
264.533
264.478
264.421
264.357
264.287
264.214
264.129
264.053
263.941
263.872
263.724
263.674
263.47
266.332
266.335
266.339
266.321
266.324
266.293
266.287
266.25
266.228
266.192
266.152
266.111
266.059
266.009
265.949
265.887
265.818
265.743
265.67
265.571
265.507
265.372
265.326
265.141
267.851
267.854
267.859
267.842
267.846
267.817
267.813
267.78
267.759
267.728
267.689
267.655
267.605
267.563
267.505
267.452
267.387
267.319
267.254
267.165
267.105
266.985
266.941
266.774
269.331
269.334
269.339
269.323
269.329
269.301
269.299
269.268
269.251
269.223
269.188
269.159
269.112
269.076
269.021
268.977
268.915
268.858
268.797
268.716
268.662
268.555
268.514
268.365
270.768
270.771
270.778
270.762
270.77
270.743
270.744
270.714
270.701
270.674
270.644
270.618
270.576
270.544
270.495
270.456
270.4
270.35
270.292
270.224
270.174
270.081
270.041
269.909
272.161
272.164
272.171
272.156
272.165
272.14
272.143
272.115
272.105
272.081
272.055
272.031
271.995
271.966
271.924
271.888
271.838
271.796
271.742
271.684
271.637
271.557
271.519
271.404
273.508
273.511
273.519
273.504
273.515
273.49
273.496
273.47
273.462
273.441
273.419
273.397
273.366
273.341
273.303
273.273
273.228
273.192
273.142
273.097
273.049
272.982
272.947
272.847
274.808
274.811
274.819
274.805
274.817
274.794
274.801
274.777
274.772
274.753
274.734
274.716
274.688
274.667
274.634
274.608
274.568
274.538
274.493
274.455
274.412
274.355
274.324
274.238
276.06
276.063
276.072
276.057
276.072
276.048
276.059
276.035
276.033
276.016
276
275.985
275.961
275.943
275.914
275.893
275.857
275.834
275.793
275.763
275.721
275.677
275.647
275.575
277.264
277.267
277.276
277.264
277.276
277.257
277.265
277.247
277.244
277.231
277.217
277.205
277.184
277.17
277.145
277.128
277.097
277.077
277.041
277.018
276.98
276.947
276.916
276.858
278.42
278.423
278.434
278.418
278.438
278.412
278.429
278.405
278.41
278.396
278.386
278.375
278.358
278.347
278.325
278.313
278.285
278.271
278.239
278.221
278.186
278.162
278.134
278.088
279.529
279.532
279.54
279.531
279.542
279.529
279.536
279.523
279.522
279.515
279.504
279.498
279.483
279.475
279.456
279.447
279.424
279.414
279.385
279.373
279.343
279.326
279.298
279.265
280.591
280.593
280.604
280.591
280.609
280.588
280.606
280.586
280.594
280.582
280.577
280.572
280.56
280.554
280.539
280.533
280.512
280.507
280.482
280.476
280.447
280.438
280.412
280.389
281.607
281.61
281.618
281.61
281.622
281.611
281.62
281.61
281.611
281.608
281.601
281.599
281.589
281.586
281.573
281.571
281.553
281.552
281.529
281.527
281.503
281.499
281.474
281.462
282.577
282.58
282.59
282.579
282.596
282.58
282.596
282.581
282.59
282.583
282.581
282.579
282.572
282.571
282.561
282.561
282.546
282.548
282.53
282.532
282.509
282.511
282.489
282.484
283.504
283.508
283.513
283.511
283.517
283.515
283.518
283.517
283.516
283.518
283.513
283.516
283.509
283.511
283.503
283.506
283.493
283.499
283.482
283.488
283.469
283.476
283.455
283.457
284.388
284.389
284.401
284.389
284.41
284.391
284.412
284.397
284.409
284.403
284.406
284.407
284.404
284.406
284.4
284.406
284.396
284.403
284.39
284.399
284.382
284.394
284.377
284.383
285.23
285.235
285.236
285.242
285.239
285.249
285.242
285.253
285.247
285.255
285.251
285.257
285.254
285.259
285.255
285.262
285.254
285.265
285.253
285.266
285.251
285.267
285.251
285.263
286.033
286.033
286.045
286.032
286.056
286.035
286.062
286.044
286.061
286.055
286.062
286.064
286.064
286.07
286.068
286.077
286.071
286.083
286.074
286.089
286.077
286.096
286.083
286.098
286.795
286.801
286.799
286.81
286.801
286.819
286.806
286.825
286.815
286.83
286.825
286.835
286.833
286.842
286.84
286.851
286.847
286.862
286.854
286.872
286.861
286.883
286.871
286.891
287.522
287.522
287.533
287.523
287.544
287.527
287.551
287.537
287.555
287.55
287.559
287.563
287.566
287.574
287.574
287.587
287.584
287.6
287.594
287.614
287.605
287.63
287.618
287.643
288.21
288.216
288.215
288.224
288.219
288.233
288.225
288.242
288.235
288.25
288.247
288.259
288.26
288.271
288.271
288.285
288.284
288.301
288.297
288.318
288.31
288.337
288.327
288.356
288.867
288.868
288.874
288.873
288.882
288.881
288.891
288.89
288.899
288.902
288.909
288.916
288.92
288.931
288.933
288.947
288.947
288.966
288.962
288.987
288.979
289.008
288.998
289.03
289.488
289.492
289.494
289.497
289.502
289.505
289.511
289.516
289.52
289.528
289.532
289.542
289.545
289.558
289.56
289.575
289.577
289.597
289.594
289.619
289.613
289.644
289.636
289.668
290.079
290.082
290.083
290.09
290.088
290.101
290.097
290.11
290.109
290.121
290.124
290.135
290.139
290.152
290.155
290.171
290.173
290.194
290.193
290.219
290.214
290.246
290.241
290.27
290.639
290.641
290.646
290.645
290.656
290.652
290.667
290.662
290.677
290.678
290.688
290.696
290.702
290.715
290.719
290.736
290.739
290.76
290.76
290.787
290.783
290.816
290.808
290.847
291.171
291.174
291.173
291.183
291.178
291.194
291.186
291.206
291.199
291.217
291.217
291.231
291.235
291.249
291.253
291.271
291.275
291.296
291.297
291.325
291.322
291.356
291.349
291.387
291.675
291.676
291.682
291.679
291.692
291.686
291.704
291.697
291.714
291.713
291.726
291.733
291.741
291.755
291.76
291.777
291.782
291.804
291.806
291.834
291.831
291.867
291.86
291.901
292.152
292.156
292.153
292.166
292.158
292.177
292.167
292.188
292.181
292.199
292.2
292.214
292.219
292.234
292.24
292.258
292.263
292.285
292.287
292.316
292.315
292.349
292.344
292.385
292.606
292.605
292.614
292.606
292.626
292.612
292.636
292.626
292.645
292.645
292.657
292.665
292.674
292.688
292.694
292.712
292.718
292.741
292.743
292.772
292.771
292.806
292.8
292.845
293.033
293.039
293.032
293.05
293.035
293.062
293.045
293.071
293.063
293.081
293.082
293.097
293.103
293.118
293.124
293.142
293.149
293.171
293.175
293.203
293.204
293.239
293.235
293.277
293.441
293.439
293.451
293.438
293.464
293.444
293.474
293.459
293.482
293.48
293.493
293.501
293.51
293.524
293.531
293.55
293.556
293.579
293.583
293.612
293.612
293.647
293.643
293.687
293.824
293.83
293.823
293.842
293.825
293.854
293.835
293.863
293.852
293.873
293.873
293.889
293.894
293.91
293.916
293.935
293.942
293.965
293.969
293.998
293.999
294.034
294.029
294.075
294.19
294.189
294.199
294.188
294.211
294.194
294.222
294.208
294.231
294.228
294.243
294.25
294.26
294.274
294.281
294.3
294.306
294.329
294.334
294.363
294.364
294.399
294.396
294.438
294.534
294.539
294.534
294.548
294.538
294.559
294.547
294.57
294.562
294.582
294.582
294.598
294.604
294.619
294.626
294.645
294.652
294.675
294.679
294.708
294.709
294.745
294.741
294.784
294.862
294.861
294.869
294.863
294.879
294.87
294.889
294.883
294.9
294.901
294.913
294.922
294.931
294.945
294.953
294.972
294.978
295.001
295.006
295.035
295.035
295.072
295.067
295.111
295.171
295.175
295.171
295.183
295.176
295.193
295.186
295.203
295.201
295.216
295.219
295.233
295.24
295.254
295.262
295.281
295.287
295.31
295.314
295.343
295.344
295.381
295.376
295.418
295.465
295.464
295.471
295.466
295.48
295.474
295.489
295.487
295.499
295.505
295.514
295.524
295.532
295.547
295.554
295.573
295.579
295.602
295.607
295.636
295.637
295.672
295.668
295.711
295.742
295.745
295.742
295.752
295.747
295.761
295.758
295.771
295.772
295.785
295.789
295.802
295.809
295.823
295.831
295.849
295.856
295.879
295.883
295.911
295.914
295.947
295.944
295.986
296.005
296.005
296.009
296.009
296.017
296.016
296.026
296.029
296.038
296.045
296.053
296.063
296.071
296.085
296.093
296.111
296.117
296.139
296.145
296.173
296.176
296.208
296.205
296.247
296.253
296.255
296.256
296.26
296.262
296.269
296.271
296.28
296.284
296.294
296.3
296.312
296.319
296.333
296.341
296.359
296.365
296.388
296.392
296.419
296.421
296.457
296.452
296.493
296.489
296.49
296.492
296.495
296.498
296.503
296.507
296.514
296.519
296.529
296.535
296.546
296.554
296.567
296.575
296.593
296.599
296.621
296.626
296.654
296.658
296.687
296.686
296.726
296.712
296.713
296.714
296.718
296.72
296.726
296.729
296.736
296.742
296.751
296.757
296.768
296.775
296.789
296.797
296.814
296.821
296.843
296.847
296.874
296.876
296.91
296.906
296.946
296.923
296.924
296.926
296.928
296.932
296.935
296.941
296.947
296.952
296.961
296.967
296.979
296.986
296.999
297.007
297.024
297.03
297.052
297.056
297.084
297.087
297.116
297.115
297.154
297.123
297.124
297.125
297.128
297.13
297.136
297.138
297.147
297.151
297.161
297.166
297.178
297.184
297.198
297.205
297.223
297.228
297.25
297.255
297.28
297.281
297.317
297.311
297.351
297.311
297.312
297.314
297.317
297.319
297.324
297.328
297.334
297.34
297.348
297.354
297.366
297.372
297.386
297.393
297.41
297.416
297.437
297.441
297.467
297.469
297.5
297.499
297.535
297.49
297.491
297.493
297.494
297.499
297.501
297.507
297.512
297.518
297.527
297.532
297.544
297.55
297.563
297.57
297.588
297.592
297.614
297.618
297.644
297.646
297.677
297.674
297.712
297.659
297.66
297.661
297.665
297.666
297.672
297.674
297.682
297.686
297.696
297.7
297.712
297.718
297.732
297.738
297.755
297.76
297.782
297.785
297.81
297.812
297.843
297.842
297.876
297.82
297.82
297.822
297.824
297.827
297.831
297.836
297.841
297.847
297.854
297.86
297.871
297.877
297.891
297.897
297.913
297.918
297.939
297.942
297.969
297.97
298
297.998
298.033
297.971
297.971
297.973
297.975
297.979
297.981
297.987
297.992
297.997
298.005
298.01
298.022
298.027
298.041
298.047
298.063
298.068
298.09
298.093
298.117
298.119
298.148
298.147
298.181
298.114
298.115
298.115
298.119
298.12
298.126
298.127
298.136
298.139
298.148
298.152
298.164
298.169
298.183
298.189
298.205
298.21
298.23
298.233
298.259
298.259
298.289
298.287
298.321
298.249
298.249
298.252
298.251
298.259
298.257
298.266
298.267
298.276
298.281
298.288
298.298
298.303
298.317
298.323
298.339
298.342
298.366
298.366
298.392
298.393
298.421
298.42
298.452
298.376
298.378
298.377
298.383
298.38
298.391
298.387
298.4
298.399
298.411
298.413
298.426
298.43
298.444
298.448
298.466
298.47
298.489
298.493
298.517
298.518
298.546
298.545
298.577
298.498
298.497
298.502
298.498
298.509
298.503
298.516
298.514
298.525
298.528
298.535
298.545
298.55
298.564
298.568
298.585
298.588
298.61
298.611
298.635
298.636
298.665
298.664
298.694
298.611
298.613
298.611
298.619
298.613
298.627
298.62
298.636
298.632
298.646
298.647
298.66
298.662
298.678
298.68
298.698
298.7
298.722
298.723
298.748
298.748
298.775
298.774
298.805
298.719
298.718
298.723
298.719
298.73
298.724
298.737
298.735
298.745
298.749
298.755
298.766
298.77
298.783
298.787
298.804
298.807
298.828
298.829
298.852
298.853
298.881
298.88
298.909
298.82
298.822
298.82
298.828
298.822
298.835
298.829
298.844
298.841
298.854
298.854
298.867
298.87
298.885
298.887
298.904
298.907
298.927
298.929
298.952
298.954
298.979
298.978
299.008
298.916
298.915
298.919
298.918
298.924
298.923
298.931
298.933
298.94
298.946
298.951
298.961
298.965
298.979
298.982
298.998
299.001
299.022
299.022
299.046
299.045
299.074
299.072
299.1
299.005
299.007
299.006
299.011
299.01
299.017
299.017
299.026
299.027
299.037
299.039
299.051
299.054
299.068
299.071
299.088
299.09
299.109
299.111
299.134
299.136
299.159
299.16
299.187
299.09
299.091
299.091
299.095
299.095
299.102
299.101
299.111
299.111
299.121
299.123
299.135
299.137
299.152
299.154
299.171
299.173
299.193
299.194
299.218
299.216
299.243
299.242
299.27
299.17
299.17
299.172
299.172
299.177
299.177
299.184
299.186
299.193
299.199
299.203
299.214
299.217
299.231
299.233
299.25
299.251
299.271
299.273
299.294
299.296
299.319
299.32
299.346
299.244
299.246
299.244
299.251
299.246
299.258
299.252
299.267
299.262
299.276
299.276
299.288
299.29
299.305
299.306
299.323
299.326
299.344
299.345
299.369
299.367
299.393
299.391
299.419
299.315
299.314
299.318
299.315
299.324
299.32
299.33
299.329
299.338
299.342
299.348
299.357
299.36
299.374
299.375
299.391
299.394
299.414
299.414
299.435
299.437
299.46
299.46
299.485