/*--------------------------------*- C++ -*----------------------------------*\
  =========                 |
  \\      /  F ield         | OpenFOAM: The Open Source CFD Toolbox
   \\    /   O peration     | Website:  https://openfoam.org
    \\  /    A nd           | Version:  10
     \\/     M anipulation  |
\*---------------------------------------------------------------------------*/
FoamFile
{
    format      ascii;
    class       volVectorField;
    location    "0.36";
    object      U;
}
// * * * * * * * * * * * * * * * * * * * * * * * * * * * * * * * * * * * * * //

dimensions      [0 1 -1 0 0 0 0];

internalField   nonuniform List<vector> 
4176
(
(497.488 -0.0141625 -5.84512e-09)
(497.474 0.0637575 1.78666e-09)
(497.449 0.00137427 -5.62603e-10)
(497.4 0.0904262 4.18909e-11)
(497.346 0.0509689 -8.02147e-11)
(497.271 0.0896063 -5.8048e-10)
(497.18 0.125859 -4.62196e-10)
(497.088 0.0606288 1.69518e-10)
(496.954 0.225254 5.74237e-10)
(496.848 0.00494693 6.21189e-10)
(496.672 0.344319 4.56914e-10)
(496.549 -0.0689828 4.01403e-10)
(496.339 0.469698 1.78701e-10)
(496.191 -0.139322 -2.14733e-10)
(495.956 0.567706 -3.96523e-10)
(495.773 -0.135447 -2.81513e-10)
(495.536 0.528294 -2.26742e-10)
(495.286 0.0237786 -2.19593e-11)
(495.072 0.334641 3.0998e-10)
(494.73 0.323181 1.79997e-10)
(494.575 -0.0169804 -1.37883e-10)
(494.097 0.771797 -1.70392e-10)
(494.068 -0.516559 9.85913e-11)
(493.443 1.4427 2.18008e-10)
(497.47 0.00490819 -5.84381e-09)
(497.456 0.114584 1.78722e-09)
(497.43 0.0764253 -5.62708e-10)
(497.379 0.203333 4.11234e-11)
(497.325 0.186222 -8.02056e-11)
(497.247 0.264324 -5.80211e-10)
(497.156 0.321762 -4.62834e-10)
(497.059 0.295727 1.69631e-10)
(496.924 0.482221 5.74912e-10)
(496.814 0.298079 6.21397e-10)
(496.636 0.662838 4.56471e-10)
(496.508 0.278832 4.01301e-10)
(496.293 0.850263 1.77104e-10)
(496.142 0.258547 -2.14653e-10)
(495.9 1.0124 -3.96342e-10)
(495.714 0.302237 -2.81011e-10)
(495.47 1.04207 -2.27894e-10)
(495.216 0.510826 -2.20783e-11)
(494.995 0.914217 3.08957e-10)
(494.646 0.855304 1.79587e-10)
(494.491 0.628359 -1.37829e-10)
(493.992 1.33104 -1.72725e-10)
(493.957 0.125055 9.93846e-11)
(493.269 1.99285 2.17625e-10)
(497.413 0.0232586 -5.84724e-09)
(497.399 0.16124 1.78644e-09)
(497.375 0.147605 -5.64668e-10)
(497.324 0.307673 4.21091e-11)
(497.272 0.313823 -8.06186e-11)
(497.195 0.42651 -5.81059e-10)
(497.108 0.505882 -4.60137e-10)
(497.011 0.514962 1.71492e-10)
(496.882 0.722944 5.7693e-10)
(496.772 0.572747 6.21702e-10)
(496.599 0.96062 4.55567e-10)
(496.474 0.60623 4.0045e-10)
(496.263 1.20605 1.78684e-10)
(496.116 0.63412 -2.14615e-10)
(495.877 1.4286 -3.96593e-10)
(495.697 0.713987 -2.79791e-10)
(495.454 1.52258 -2.30603e-10)
(495.209 0.966065 -2.36959e-11)
(494.993 1.45705 3.09609e-10)
(494.653 1.34394 1.79128e-10)
(494.506 1.2476 -1.38796e-10)
(494.016 1.88232 -1.7007e-10)
(493.982 0.838679 9.96961e-11)
(493.27 2.60896 2.18587e-10)
(497.309 0.0419955 -5.84544e-09)
(497.295 0.208748 1.79019e-09)
(497.271 0.220107 -5.65525e-10)
(497.22 0.413993 4.51553e-11)
(497.168 0.443792 -8.14706e-11)
(497.091 0.591863 -5.85514e-10)
(497.004 0.693438 -4.60072e-10)
(496.907 0.738593 1.69046e-10)
(496.777 0.96816 5.70229e-10)
(496.668 0.853064 6.25233e-10)
(496.494 1.26396 4.56555e-10)
(496.37 0.940584 3.98707e-10)
(496.158 1.56872 1.80167e-10)
(496.013 1.01831 -2.16207e-10)
(495.77 1.85348 -4.03751e-10)
(495.593 1.13548 -2.81032e-10)
(495.346 2.01703 -2.28169e-10)
(495.097 1.42659 -2.40503e-11)
(494.89 2.00921 3.11881e-10)
(494.54 1.84081 1.78481e-10)
(494.398 1.85824 -1.41622e-10)
(493.915 2.42019 -1.70892e-10)
(493.887 1.52561 9.7949e-11)
(493.205 3.20569 2.09109e-10)
(497.157 0.0603303 -5.84755e-09)
(497.143 0.255274 1.79679e-09)
(497.119 0.291035 -5.6156e-10)
(497.069 0.518183 4.51506e-11)
(497.018 0.570931 -7.82968e-11)
(496.941 0.754028 -5.8018e-10)
(496.855 0.876907 -4.62069e-10)
(496.76 0.958137 1.71275e-10)
(496.631 1.20804 5.75837e-10)
(496.524 1.12855 6.2329e-10)
(496.351 1.56075 4.56837e-10)
(496.229 1.26938 4.01585e-10)
(496.018 1.92398 1.76738e-10)
(495.876 1.39605 -2.1726e-10)
(495.633 2.2712 -4.01867e-10)
(495.461 1.55017 -2.83562e-10)
(495.21 2.51236 -2.29253e-10)
(494.967 1.86976 -2.32607e-11)
(494.763 2.55428 3.06411e-10)
(494.411 2.33868 1.84231e-10)
(494.271 2.45277 -1.3392e-10)
(493.793 2.94607 -1.67946e-10)
(493.764 2.16819 1.0156e-10)
(493.102 3.7636 2.19939e-10)
(496.957 0.0786584 -5.86068e-09)
(496.942 0.301507 1.79454e-09)
(496.919 0.361813 -5.60089e-10)
(496.869 0.621791 4.04836e-11)
(496.819 0.697768 -8.95857e-11)
(496.742 0.91534 -5.85378e-10)
(496.657 1.05994 -4.59703e-10)
(496.562 1.17663 1.6751e-10)
(496.435 1.44733 5.7659e-10)
(496.327 1.40296 6.28859e-10)
(496.157 1.85666 4.57183e-10)
(496.035 1.59735 3.95849e-10)
(495.825 2.27763 1.73982e-10)
(495.684 1.77369 -2.14948e-10)
(495.442 2.68562 -4.04969e-10)
(495.274 1.96913 -2.81006e-10)
(495.018 3.00299 -2.18711e-10)
(494.787 2.31263 -2.03822e-11)
(494.57 3.10382 3.16236e-10)
(494.229 2.83548 1.86346e-10)
(494.084 3.04904 -1.38197e-10)
(493.611 3.4741 -1.78688e-10)
(493.576 2.81508 9.83408e-11)
(492.913 4.32055 2.20221e-10)
(496.708 0.0968099 -5.86014e-09)
(496.694 0.347077 1.79212e-09)
(496.671 0.431803 -5.7621e-10)
(496.621 0.723963 4.0534e-11)
(496.572 0.823152 -7.50337e-11)
(496.495 1.07444 -5.84636e-10)
(496.412 1.24087 -4.71141e-10)
(496.317 1.39218 1.72242e-10)
(496.192 1.68387 5.83367e-10)
(496.084 1.67385 6.2425e-10)
(495.916 2.14912 4.54467e-10)
(495.795 1.92153 4.06861e-10)
(495.588 2.6269 1.89668e-10)
(495.448 2.1477 -2.13122e-10)
(495.208 3.09395 -4.00642e-10)
(495.043 2.38643 -2.77739e-10)
(494.785 3.48259 -2.28196e-10)
(494.565 2.7573 -2.59977e-11)
(494.337 3.65124 3.10736e-10)
(494.01 3.3204 1.83855e-10)
(493.859 3.64417 -1.39672e-10)
(493.392 4.00168 -1.7881e-10)
(493.354 3.47172 1.0068e-10)
(492.692 4.8828 2.25321e-10)
(496.411 0.114825 -5.87659e-09)
(496.396 0.392183 1.80269e-09)
(496.374 0.501172 -5.56018e-10)
(496.324 0.825118 4.39837e-11)
(496.276 0.947369 -8.80306e-11)
(496.199 1.23194 -5.8193e-10)
(496.117 1.42006 -4.54691e-10)
(496.023 1.60559 1.71229e-10)
(495.899 1.91808 5.65437e-10)
(495.793 1.94214 6.22005e-10)
(495.626 2.43865 4.65446e-10)
(495.506 2.24281 4.01196e-10)
(495.301 2.97256 1.63966e-10)
(495.164 2.51873 -2.21927e-10)
(494.924 3.49779 -3.93721e-10)
(494.763 2.80124 -2.85849e-10)
(494.504 3.95481 -2.24569e-10)
(494.292 3.19959 -9.40886e-12)
(494.058 4.19394 3.14597e-10)
(493.743 3.80089 1.69101e-10)
(493.585 4.23744 -1.39937e-10)
(493.127 4.52441 -1.62718e-10)
(493.084 4.12305 9.82044e-11)
(492.43 5.43776 2.02182e-10)
(496.065 0.132658 -5.88941e-09)
(496.051 0.436733 1.78944e-09)
(496.029 0.569759 -5.77889e-10)
(495.979 0.925046 3.17717e-11)
(495.931 1.07013 -8.83007e-11)
(495.856 1.3875 -5.90512e-10)
(495.774 1.59707 -4.70095e-10)
(495.681 1.81633 1.68274e-10)
(495.559 2.14937 5.72373e-10)
(495.454 2.20714 6.19205e-10)
(495.289 2.7245 4.53775e-10)
(495.171 2.56033 3.9965e-10)
(494.967 3.31375 1.72219e-10)
(494.832 2.88577 -2.20837e-10)
(494.593 3.89619 -4.00517e-10)
(494.436 3.21222 -2.82803e-10)
(494.177 4.41857 -2.28871e-10)
(493.973 3.63895 -2.03928e-11)
(493.734 4.7298 3.11174e-10)
(493.43 4.27483 1.75926e-10)
(493.267 4.82804 -1.41998e-10)
(492.818 5.0423 -1.73821e-10)
(492.772 4.77005 1.00019e-10)
(492.126 5.98604 2.18612e-10)
(495.671 0.150308 -5.87434e-09)
(495.657 0.480737 1.81864e-09)
(495.635 0.637558 -5.59136e-10)
(495.586 1.02377 5.49268e-11)
(495.538 1.19143 -6.99021e-11)
(495.464 1.54117 -5.73777e-10)
(495.383 1.77189 -4.53245e-10)
(495.291 2.02446 1.85946e-10)
(495.17 2.37769 5.91194e-10)
(495.066 2.4688 6.3624e-10)
(494.903 3.00659 4.7225e-10)
(494.787 2.87395 4.15517e-10)
(494.585 3.65036 1.9059e-10)
(494.453 3.24857 -2.08386e-10)
(494.215 4.28906 -3.87065e-10)
(494.062 3.61906 -2.72131e-10)
(493.803 4.87421 -2.15023e-10)
(493.607 4.07459 -9.3866e-12)
(493.363 5.2582 3.25087e-10)
(493.071 4.74272 1.8745e-10)
(492.903 5.41373 -1.29974e-10)
(492.464 5.55327 -1.61689e-10)
(492.413 5.41098 1.09551e-10)
(491.778 6.526 2.27856e-10)
(495.228 0.167746 -5.8963e-09)
(495.214 0.524138 1.8079e-09)
(495.193 0.704472 -5.69016e-10)
(495.144 1.12116 4.74628e-11)
(495.097 1.31112 -7.7041e-11)
(495.023 1.69277 -5.82158e-10)
(494.944 1.94434 -4.58339e-10)
(494.852 2.22976 1.84572e-10)
(494.733 2.6028 5.89983e-10)
(494.631 2.72686 6.34911e-10)
(494.47 3.28455 4.72741e-10)
(494.355 3.18324 4.18043e-10)
(494.155 3.98191 1.93027e-10)
(494.026 3.60654 -2.06915e-10)
(493.79 4.67589 -3.82582e-10)
(493.641 4.02104 -2.66151e-10)
(493.382 5.32158 -2.07527e-10)
(493.194 4.50589 -3.0987e-12)
(492.947 5.77825 3.35579e-10)
(492.666 5.2036 1.98142e-10)
(492.492 5.99344 -1.4178e-10)
(492.065 6.05683 -1.95613e-10)
(492.01 6.04503 8.04415e-11)
(491.386 7.0572 1.9683e-10)
(494.737 0.18495 -5.90599e-09)
(494.723 0.566894 1.81136e-09)
(494.702 0.770422 -5.72567e-10)
(494.653 1.21715 4.20664e-11)
(494.608 1.42907 -8.24321e-11)
(494.534 1.84219 -5.88536e-10)
(494.456 2.11427 -4.6649e-10)
(494.366 2.43209 1.75115e-10)
(494.248 2.82454 5.80716e-10)
(494.147 2.98114 6.25892e-10)
(493.988 3.5582 4.62416e-10)
(493.876 3.48796 4.08778e-10)
(493.678 4.30813 1.81836e-10)
(493.551 3.95929 -2.16907e-10)
(493.318 5.05633 -3.97389e-10)
(493.173 4.41755 -2.79875e-10)
(492.914 5.76073 -2.24585e-10)
(492.733 4.9325 -1.63591e-11)
(492.483 6.28935 3.17174e-10)
(492.214 5.65807 1.7961e-10)
(492.035 6.56466 -1.36976e-10)
(491.621 6.55074 -1.66327e-10)
(491.562 6.67219 1.06515e-10)
(490.949 7.57909 2.23442e-10)
(494.197 0.201893 -5.9165e-09)
(494.183 0.608944 1.81175e-09)
(494.162 0.835308 -5.79143e-10)
(494.114 1.31158 3.6191e-11)
(494.069 1.54512 -9.10664e-11)
(493.997 1.98924 -6.01341e-10)
(493.92 2.28146 -4.8107e-10)
(493.831 2.63123 1.59086e-10)
(493.715 3.04268 5.64606e-10)
(493.616 3.2314 6.07677e-10)
(493.459 3.82729 4.36399e-10)
(493.348 3.7878 3.82664e-10)
(493.152 4.62868 1.48697e-10)
(493.029 4.30638 -2.22793e-10)
(492.797 5.42991 -3.73769e-10)
(492.657 4.80792 -2.62551e-10)
(492.4 6.19154 -2.06406e-10)
(492.225 5.35408 -3.84631e-12)
(491.973 6.79081 3.29787e-10)
(491.716 6.10467 1.89861e-10)
(491.532 7.12717 -1.2895e-10)
(491.13 7.0348 -1.61169e-10)
(491.069 7.29057 1.12005e-10)
(490.467 8.09105 2.26749e-10)
(493.608 0.218549 -5.91921e-09)
(493.594 0.650237 1.83701e-09)
(493.574 0.899038 -5.80743e-10)
(493.527 1.40435 1.69309e-11)
(493.482 1.65911 -9.43718e-11)
(493.411 2.13374 -5.93044e-10)
(493.336 2.4457 -4.60119e-10)
(493.247 2.82697 1.97057e-10)
(493.133 3.25696 5.84925e-10)
(493.036 3.47739 6.08793e-10)
(492.881 4.09154 4.49753e-10)
(492.772 4.0825 4.06131e-10)
(492.579 4.9433 1.9071e-10)
(492.459 4.64746 -2.04001e-10)
(492.23 5.79629 -4.07219e-10)
(492.093 5.19162 -3.03501e-10)
(491.838 6.6136 -2.42723e-10)
(491.67 5.77001 -2.23566e-11)
(491.416 7.28216 3.24136e-10)
(491.17 6.54303 1.95466e-10)
(490.982 7.68035 -1.41448e-10)
(490.594 7.50795 -1.90031e-10)
(490.53 7.89887 9.53313e-11)
(489.941 8.59257 2.24174e-10)
(492.97 0.234896 -5.94519e-09)
(492.956 0.690723 1.79947e-09)
(492.936 0.961523 -5.72624e-10)
(492.89 1.49533 7.3348e-11)
(492.847 1.77087 -6.89768e-11)
(492.776 2.27548 -5.90905e-10)
(492.702 2.60674 -4.8035e-10)
(492.615 3.01902 1.51872e-10)
(492.503 3.4671 5.83165e-10)
(492.407 3.7188 6.51593e-10)
(492.255 4.35066 4.70922e-10)
(492.149 4.37174 4.00398e-10)
(491.958 5.25168 1.56028e-10)
(491.841 4.98218 -2.26037e-10)
(491.615 6.15513 -3.83439e-10)
(491.483 5.5682 -2.74406e-10)
(491.229 7.02646 -2.32415e-10)
(491.068 6.17959 -3.36009e-11)
(490.813 7.76281 2.8358e-10)
(490.579 6.97283 1.66252e-10)
(490.387 8.22374 -1.28654e-10)
(490.011 7.96934 -1.65786e-10)
(489.945 8.49584 9.5681e-11)
(489.369 9.08312 1.99072e-10)
(492.283 0.250912 -5.94188e-09)
(492.269 0.730357 1.85192e-09)
(492.25 1.02268 -5.80714e-10)
(492.204 1.58441 1.36074e-11)
(492.162 1.88024 -9.68028e-11)
(492.092 2.41426 -5.92261e-10)
(492.02 2.76433 -4.52613e-10)
(491.934 3.20709 2.05969e-10)
(491.824 3.67275 5.88401e-10)
(491.731 3.95527 6.11633e-10)
(491.58 4.60427 4.57109e-10)
(491.477 4.65512 4.14315e-10)
(491.289 5.55347 2.00185e-10)
(491.175 5.31019 -2.30018e-10)
(490.952 6.50611 -4.40262e-10)
(490.824 5.93722 -2.99832e-10)
(490.573 7.42976 -2.3268e-10)
(490.419 6.58199 -8.54029e-12)
(490.163 8.23198 3.39686e-10)
(489.941 7.39382 1.72665e-10)
(489.745 8.75671 -1.67806e-10)
(489.384 8.41865 -1.79018e-10)
(489.314 9.08091 1.09263e-10)
(488.753 9.56198 2.36859e-10)
(491.546 0.266577 -5.96918e-09)
(491.533 0.769092 1.81837e-09)
(491.514 1.08244 -5.99974e-10)
(491.468 1.67147 9.81032e-12)
(491.427 1.98707 -8.65078e-11)
(491.359 2.54989 -5.6668e-10)
(491.288 2.91823 -4.49326e-10)
(491.204 3.39089 1.88365e-10)
(491.097 3.87356 5.86443e-10)
(491.005 4.18641 6.2393e-10)
(490.858 4.85196 4.4639e-10)
(490.757 4.93222 3.82882e-10)
(490.572 5.84825 1.80502e-10)
(490.462 5.63104 -1.99911e-10)
(490.241 6.84887 -3.90065e-10)
(490.118 6.29828 -2.76511e-10)
(489.87 7.82325 -2.28989e-10)
(489.722 6.97636 -2.47808e-11)
(489.467 8.68885 2.97701e-10)
(489.256 7.80565 1.49411e-10)
(489.057 9.27771 -1.79616e-10)
(488.71 8.85656 -1.75813e-10)
(488.636 9.65452 1.27412e-10)
(488.09 10.0279 2.33864e-10)
(490.76 0.281865 -5.97478e-09)
(490.747 0.806875 1.84625e-09)
(490.728 1.14071 -5.67384e-10)
(490.683 1.7564 6.45044e-11)
(490.643 2.09119 -6.35476e-11)
(490.576 2.68217 -5.72209e-10)
(490.507 3.06817 -4.41976e-10)
(490.425 3.57012 2.13445e-10)
(490.32 4.06919 6.28345e-10)
(490.231 4.41183 6.36952e-10)
(490.086 5.09328 4.30888e-10)
(489.988 5.20256 3.79607e-10)
(489.806 6.13554 1.47444e-10)
(489.7 5.94425 -2.52228e-10)
(489.483 7.183 -4.32665e-10)
(489.364 6.65097 -3.01827e-10)
(489.119 8.20668 -2.45972e-10)
(488.977 7.36197 -2.80432e-11)
(488.724 9.13276 3.11065e-10)
(488.524 8.20805 1.77718e-10)
(488.322 9.78633 -1.36287e-10)
(487.99 9.28261 -1.61528e-10)
(487.912 10.2159 1.16514e-10)
(487.382 10.4803 2.38183e-10)
(489.924 0.296748 -5.99559e-09)
(489.91 0.843644 1.83683e-09)
(489.892 1.19738 -5.89257e-10)
(489.848 1.83906 3.82285e-11)
(489.81 2.19242 -9.66742e-11)
(489.744 2.81089 -6.16635e-10)
(489.677 3.21391 -4.88351e-10)
(489.597 3.7445 1.64356e-10)
(489.494 4.25931 5.71258e-10)
(489.407 4.63113 6.13817e-10)
(489.265 5.32781 4.44467e-10)
(489.171 5.46564 3.84221e-10)
(488.992 6.41482 1.43025e-10)
(488.89 6.24924 -2.61045e-10)
(488.676 7.50794 -4.51272e-10)
(488.563 6.99473 -3.24854e-10)
(488.32 8.5796 -2.33277e-10)
(488.186 7.73831 1.30475e-11)
(487.934 9.56327 3.51271e-10)
(487.745 8.60057 2.03937e-10)
(487.54 10.2821 -1.15712e-10)
(487.224 9.69649 -1.5034e-10)
(487.141 10.7643 1.24984e-10)
(486.628 10.9188 2.42703e-10)
(489.037 0.311191 -6.02638e-09)
(489.024 0.87932 1.85233e-09)
(489.007 1.25234 -5.61491e-10)
(488.963 1.91927 4.31369e-11)
(488.926 2.29057 -7.1293e-11)
(488.861 2.93582 -5.68669e-10)
(488.796 3.35519 -4.67201e-10)
(488.718 3.91373 1.61202e-10)
(488.618 4.44358 5.90812e-10)
(488.534 4.84396 6.54056e-10)
(488.395 5.55512 4.58801e-10)
(488.305 5.72099 4.14338e-10)
(488.13 6.68558 1.92862e-10)
(488.031 6.54544 -2.417e-10)
(487.821 7.82314 -4.06777e-10)
(487.714 7.32892 -2.65378e-10)
(487.474 8.94148 -2.38264e-10)
(487.347 8.10481 -4.91648e-11)
(487.097 9.97997 3.02025e-10)
(486.919 8.98283 1.76897e-10)
(486.712 10.7644 -1.69329e-10)
(486.411 10.0979 -1.78468e-10)
(486.324 11.2992 1.12852e-10)
(485.827 11.343 2.06399e-10)
(488.1 0.325156 -6.02177e-09)
(488.087 0.913814 1.86856e-09)
(488.071 1.30543 -5.63355e-10)
(488.028 1.99686 7.76324e-11)
(487.992 2.38541 -5.35444e-11)
(487.929 3.0567 -6.08096e-10)
(487.866 3.49173 -5.13749e-10)
(487.79 4.07752 1.5323e-10)
(487.693 4.62168 5.74212e-10)
(487.611 5.04997 6.24174e-10)
(487.476 5.77482 4.59711e-10)
(487.389 5.96818 4.10616e-10)
(487.218 6.94733 1.83462e-10)
(487.124 6.83229 -2.17036e-10)
(486.918 8.12799 -3.88946e-10)
(486.816 7.65287 -2.61513e-10)
(486.581 9.29171 -2.00227e-10)
(486.46 8.46078 -2.44052e-11)
(486.212 10.3825 2.74297e-10)
(486.046 9.35444 1.44459e-10)
(485.836 11.2326 -1.69933e-10)
(485.551 10.4864 -1.91245e-10)
(485.46 11.8201 8.66823e-11)
(484.981 11.7524 2.15556e-10)
(487.113 0.338601 -6.057e-09)
(487.1 0.947035 1.82608e-09)
(487.084 1.35652 -5.88447e-10)
(487.043 2.07164 7.80029e-11)
(487.008 2.4767 -7.74121e-11)
(486.946 3.17326 -6.09911e-10)
(486.886 3.62322 -4.90795e-10)
(486.812 4.23555 1.97899e-10)
(486.717 4.79327 6.39127e-10)
(486.639 5.2488 6.63614e-10)
(486.508 5.98655 4.75325e-10)
(486.424 6.20681 3.97604e-10)
(486.257 7.19963 1.39119e-10)
(486.168 7.10927 -2.40609e-10)
(485.966 8.42196 -3.95054e-10)
(485.869 7.96592 -2.83723e-10)
(485.638 9.62967 -2.45429e-10)
(485.525 8.80542 -4.57137e-11)
(485.28 10.7705 3.1994e-10)
(485.125 9.71504 1.99952e-10)
(484.914 11.6859 -1.36515e-10)
(484.644 10.8617 -1.82933e-10)
(484.549 12.3265 7.31558e-11)
(484.088 12.1466 2.20648e-10)
(486.075 0.351489 -6.07689e-09)
(486.062 0.978896 1.83238e-09)
(486.047 1.40546 -5.90464e-10)
(486.006 2.1434 8.36305e-11)
(485.973 2.5642 -6.78706e-11)
(485.913 3.28523 -6.064e-10)
(485.855 3.74936 -4.91631e-10)
(485.784 4.38749 1.49116e-10)
(485.692 4.95799 5.91288e-10)
(485.617 5.4401 6.70369e-10)
(485.489 6.18994 4.86504e-10)
(485.409 6.43649 4.07989e-10)
(485.247 7.44208 1.49316e-10)
(485.162 7.37595 -2.32441e-10)
(484.965 8.70454 -3.85836e-10)
(484.874 8.26748 -2.79514e-10)
(484.648 9.95469 -2.40608e-10)
(484.542 9.13785 -3.65486e-11)
(484.301 11.1437 3.31154e-10)
(484.156 10.0642 2.09116e-10)
(483.944 12.1232 -1.26893e-10)
(483.69 11.2232 -1.74321e-10)
(483.591 12.8178 8.82031e-11)
(483.149 12.5253 1.93804e-10)
(484.985 0.363788 -6.1028e-09)
(484.973 1.00933 1.87901e-09)
(484.958 1.45213 -5.67141e-10)
(484.919 2.21199 4.03213e-11)
(484.887 2.64769 -1.24135e-10)
(484.83 3.39234 -6.24382e-10)
(484.774 3.86983 -4.66804e-10)
(484.705 4.53299 1.6613e-10)
(484.617 5.11549 5.98572e-10)
(484.545 5.62349 6.62161e-10)
(484.421 6.38458 4.61425e-10)
(484.345 6.65686 4.23761e-10)
(484.187 7.67429 2.07636e-10)
(484.107 7.63193 -2.38481e-10)
(483.915 8.97531 -4.56394e-10)
(483.83 8.55705 -3.03728e-10)
(483.608 10.2663 -2.24852e-10)
(483.51 9.45738 -3.1657e-11)
(483.273 11.5015 3.26723e-10)
(483.138 10.4014 1.95597e-10)
(482.926 12.5437 -1.53731e-10)
(482.689 11.57 -1.60669e-10)
(482.587 13.2929 1.39524e-10)
(482.164 12.8878 2.27681e-10)
(483.845 0.375478 -6.09072e-09)
(483.833 1.03827 1.90924e-09)
(483.819 1.49646 -5.53618e-10)
(483.781 2.27727 5.176e-11)
(483.751 2.72701 -1.19453e-10)
(483.695 3.49437 -6.2664e-10)
(483.641 3.98436 -4.7296e-10)
(483.576 4.67173 2.10729e-10)
(483.49 5.26538 6.38592e-10)
(483.422 5.79858 6.43264e-10)
(483.302 6.57009 4.35326e-10)
(483.231 6.86749 3.93655e-10)
(483.077 7.89585 1.69396e-10)
(483.003 7.8768 -2.2968e-10)
(482.815 9.23389 -3.97038e-10)
(482.737 8.83421 -2.54806e-10)
(482.52 10.564 -2.36099e-10)
(482.43 9.76348 -5.07132e-11)
(482.196 11.8433 3.00015e-10)
(482.073 10.7258 1.67288e-10)
(481.861 12.9467 -1.38006e-10)
(481.64 11.9014 -1.5128e-10)
(481.535 13.7506 1.45463e-10)
(481.131 13.2336 2.28319e-10)
(482.654 0.386542 -6.10503e-09)
(482.642 1.0657 1.88531e-09)
(482.628 1.53837 -6.15e-10)
(482.591 2.33915 6.37818e-11)
(482.563 2.80201 -9.30612e-11)
(482.509 3.59114 -6.34494e-10)
(482.458 4.09271 -4.57419e-10)
(482.395 4.80344 1.90058e-10)
(482.314 5.40735 5.80073e-10)
(482.249 5.965 6.61727e-10)
(482.133 6.74603 4.75615e-10)
(482.066 7.06797 3.94551e-10)
(481.917 8.10634 1.91958e-10)
(481.848 8.11016 -2.41316e-10)
(481.665 9.47987 -4.498e-10)
(481.594 9.09855 -2.85752e-10)
(481.382 10.8474 -2.47681e-10)
(481.3 10.0556 -4.05222e-11)
(481.071 12.1688 3.29843e-10)
(480.958 11.0369 1.62559e-10)
(480.747 13.3316 -1.78367e-10)
(480.543 12.2165 -1.71358e-10)
(480.435 14.1897 8.60267e-11)
(480.052 13.5621 1.93723e-10)
(481.411 0.396969 -6.18387e-09)
(481.399 1.09158 1.86696e-09)
(481.387 1.57782 -6.17414e-10)
(481.351 2.39757 3.43492e-11)
(481.324 2.8726 -9.33468e-11)
(481.273 3.68251 -6.13521e-10)
(481.224 4.19471 -4.69582e-10)
(481.164 4.92788 2.08947e-10)
(481.086 5.54108 6.28181e-10)
(481.025 6.12239 6.75158e-10)
(480.914 6.91202 5.11552e-10)
(480.851 7.25787 4.01041e-10)
(480.707 8.3053 1.62902e-10)
(480.644 8.33157 -2.48144e-10)
(480.466 9.71285 -4.28017e-10)
(480.401 9.34969 -2.91419e-10)
(480.195 11.1162 -2.30476e-10)
(480.12 10.3335 -4.1395e-12)
(479.896 12.4776 3.4286e-10)
(479.794 11.3339 1.93149e-10)
(479.585 13.6976 -1.79162e-10)
(479.397 12.5151 -1.97095e-10)
(479.287 14.6096 8.67957e-11)
(478.924 13.8732 2.10025e-10)
(480.117 0.40675 -6.16371e-09)
(480.105 1.1159 1.92661e-09)
(480.094 1.61477 -5.62855e-10)
(480.059 2.45246 4.69866e-11)
(480.034 2.9387 -1.28101e-10)
(479.985 3.76839 -6.45817e-10)
(479.939 4.29023 -4.87833e-10)
(479.882 5.04488 2.04514e-10)
(479.807 5.66637 6.30686e-10)
(479.75 6.27049 6.88983e-10)
(479.643 7.06771 4.7754e-10)
(479.586 7.4368 3.79171e-10)
(479.447 8.49231 1.50923e-10)
(479.389 8.54057 -2.55049e-10)
(479.217 9.93236 -4.23655e-10)
(479.159 9.58718 -2.75659e-10)
(478.958 11.37 -2.00803e-10)
(478.891 10.5966 3.34125e-11)
(478.673 12.7695 3.3234e-10)
(478.581 11.6159 1.4117e-10)
(478.374 14.0435 -1.67809e-10)
(478.203 12.7975 -1.76457e-10)
(478.089 15.0112 1.225e-10)
(477.747 14.1668 2.58639e-10)
(478.772 0.415871 -6.17263e-09)
(478.76 1.13861 1.90128e-09)
(478.75 1.64918 -6.40958e-10)
(478.716 2.50378 4.07817e-11)
(478.693 3.00025 -5.80064e-11)
(478.645 3.8487 -6.11e-10)
(478.603 4.37916 -5.0081e-10)
(478.548 5.15432 2.0615e-10)
(478.478 5.78306 5.97342e-10)
(478.425 6.40909 6.13915e-10)
(478.322 7.21283 4.78852e-10)
(478.269 7.60443 4.5007e-10)
(478.135 8.66695 1.75564e-10)
(478.084 8.7367 -2.67868e-10)
(477.917 10.1379 -4.191e-10)
(477.866 9.81054 -2.53753e-10)
(477.671 11.6084 -2.25856e-10)
(477.613 10.8445 -3.16663e-11)
(477.399 13.0442 3.46429e-10)
(477.318 11.8822 1.68139e-10)
(477.114 14.3683 -1.87225e-10)
(476.96 13.0638 -1.82172e-10)
(476.844 15.3928 1.35104e-10)
(476.523 14.4411 2.32263e-10)
(477.375 0.424317 -6.25598e-09)
(477.364 1.15969 1.88158e-09)
(477.354 1.681 -6.31301e-10)
(477.321 2.55144 2.81017e-11)
(477.3 3.05716 -1.06442e-10)
(477.255 3.92334 -6.38445e-10)
(477.215 4.46142 -4.89889e-10)
(477.164 5.2561 1.95349e-10)
(477.096 5.89102 6.12365e-10)
(477.047 6.53807 6.52574e-10)
(476.949 7.34721 4.86381e-10)
(476.902 7.76053 4.33308e-10)
(476.773 8.82892 1.88357e-10)
(476.727 8.91959 -2.34253e-10)
(476.566 10.3291 -4.14252e-10)
(476.522 10.0193 -2.77006e-10)
(476.333 11.8308 -2.19639e-10)
(476.284 11.0768 2.38192e-12)
(476.076 13.3013 3.54451e-10)
(476.005 12.1323 2.01493e-10)
(475.805 14.6715 -1.18226e-10)
(475.668 13.3122 -2.04567e-10)
(475.549 15.7551 7.36461e-11)
(475.249 14.6981 2.05127e-10)
(475.926 0.432072 -6.20405e-09)
(475.915 1.17911 1.95256e-09)
(475.907 1.71017 -5.91508e-10)
(475.875 2.59538 6.80648e-11)
(475.856 3.10935 -7.61626e-11)
(475.813 3.99222 -6.14936e-10)
(475.776 4.5369 -4.72341e-10)
(475.727 5.35015 2.09732e-10)
(475.664 5.99018 6.21477e-10)
(475.619 6.65735 6.5487e-10)
(475.525 7.47075 4.81408e-10)
(475.483 7.90499 4.16059e-10)
(475.359 8.978 1.62912e-10)
(475.32 9.08898 -2.59681e-10)
(475.165 10.5055 -4.5454e-10)
(475.128 10.2129 -3.24428e-10)
(474.945 12.0369 -2.72228e-10)
(474.905 11.2928 1.43338e-11)
(474.702 13.5403 3.56424e-10)
(474.642 12.3659 1.90777e-10)
(474.446 14.9529 -1.31493e-10)
(474.325 13.543 -1.65802e-10)
(474.205 16.0963 1.12343e-10)
(473.927 14.9359 2.34311e-10)
(474.426 0.439121 -6.24528e-09)
(474.416 1.19682 1.93224e-09)
(474.408 1.73665 -6.3137e-10)
(474.378 2.63553 6.80346e-11)
(474.36 3.15675 -8.9064e-11)
(474.319 4.05527 -6.43831e-10)
(474.285 4.60553 -4.60795e-10)
(474.24 5.43637 2.05063e-10)
(474.18 6.08047 6.04959e-10)
(474.139 6.76686 6.82823e-10)
(474.05 7.58337 4.89292e-10)
(474.012 8.03774 4.10901e-10)
(473.894 9.1141 2.02036e-10)
(473.861 9.24472 -2.4269e-10)
(473.712 10.6668 -4.4985e-10)
(473.683 10.3911 -2.77123e-10)
(473.506 12.226 -2.39726e-10)
(473.474 11.4921 -3.20776e-11)
(473.278 13.7608 3.58139e-10)
(473.229 12.5823 1.79558e-10)
(473.037 15.2125 -1.71986e-10)
(472.932 13.7571 -1.54573e-10)
(472.809 16.4146 1.13396e-10)
(472.555 15.1526 2.12219e-10)
(472.875 0.445458 -6.32117e-09)
(472.864 1.21282 1.94e-09)
(472.857 1.7604 -5.95981e-10)
(472.828 2.67184 2.74608e-11)
(472.813 3.19928 -8.31514e-11)
(472.774 4.11239 -5.99072e-10)
(472.742 4.66721 -5.00669e-10)
(472.7 5.51467 2.13357e-10)
(472.645 6.16179 6.53425e-10)
(472.607 6.86654 6.46352e-10)
(472.523 7.68504 4.97221e-10)
(472.491 8.15878 4.63011e-10)
(472.378 9.23718 1.69103e-10)
(472.351 9.3868 -2.37902e-10)
(472.207 10.813 -3.97899e-10)
(472.186 10.5536 -3.08207e-10)
(472.015 12.3978 -2.336e-10)
(471.993 11.674 1.61764e-11)
(471.803 13.9621 3.25883e-10)
(471.764 12.7805 1.8576e-10)
(471.578 15.4505 -1.18653e-10)
(471.488 13.9543 -1.84093e-10)
(471.364 16.7099 1.20791e-10)
(471.132 15.3489 2.60134e-10)
(471.271 0.45108 -6.30903e-09)
(471.261 1.2271 1.98542e-09)
(471.255 1.78143 -5.66302e-10)
(471.227 2.70431 6.27601e-11)
(471.214 3.23695 -1.22309e-10)
(471.177 4.16357 -6.42622e-10)
(471.148 4.7219 -4.69098e-10)
(471.109 5.58499 2.41967e-10)
(471.057 6.23405 6.82971e-10)
(471.024 6.95631 6.81978e-10)
(470.944 7.77566 4.58384e-10)
(470.917 8.26804 4.19086e-10)
(470.809 9.34723 1.96252e-10)
(470.788 9.51525 -2.1385e-10)
(470.651 10.9441 -3.79052e-10)
(470.637 10.7006 -2.90279e-10)
(470.473 12.5523 -2.82591e-10)
(470.459 11.8383 -2.60991e-11)
(470.276 14.1438 3.41358e-10)
(470.248 12.9599 1.98307e-10)
(470.068 15.6666 -9.85962e-11)
(469.992 14.1348 -1.72974e-10)
(469.868 16.9814 6.68055e-11)
(469.659 15.5239 2.13223e-10)
(469.616 0.455996 -6.39454e-09)
(469.606 1.23968 1.91901e-09)
(469.6 1.79975 -6.53526e-10)
(469.574 2.73296 1.37498e-11)
(469.562 3.26976 -1.22905e-10)
(469.528 4.20881 -6.66082e-10)
(469.502 4.76959 -5.16942e-10)
(469.466 5.64729 1.75382e-10)
(469.418 6.29722 5.98553e-10)
(469.389 7.03609 6.37377e-10)
(469.314 7.85514 4.59792e-10)
(469.292 8.36546 4.00513e-10)
(469.189 9.44416 1.48561e-10)
(469.175 9.63006 -2.80032e-10)
(469.043 11.06 -4.70604e-10)
(469.036 10.832 -3.29024e-10)
(468.878 12.6895 -2.76335e-10)
(468.874 11.9851 -4.4336e-11)
(468.697 14.3057 3.01099e-10)
(468.681 13.1198 1.43951e-10)
(468.506 15.8601 -1.90337e-10)
(468.445 14.298 -2.09779e-10)
(468.32 17.2287 7.43612e-11)
(468.135 15.6775 2.02061e-10)
(467.909 0.460216 -6.35573e-09)
(467.899 1.25058 1.96622e-09)
(467.894 1.81542 -6.43372e-10)
(467.869 2.75784 7.84464e-11)
(467.859 3.29777 -8.33023e-11)
(467.827 4.24816 -6.47711e-10)
(467.804 4.81032 -4.50705e-10)
(467.771 5.70161 2.25665e-10)
(467.727 6.35127 6.28705e-10)
(467.702 7.10583 7.14892e-10)
(467.631 7.92341 5.16527e-10)
(467.614 8.45093 4.28553e-10)
(467.517 9.52787 2.25159e-10)
(467.509 9.73115 -2.29077e-10)
(467.383 11.1607 -4.37326e-10)
(467.384 10.948 -3.16858e-10)
(467.232 12.8094 -2.84149e-10)
(467.237 12.1144 -6.16003e-12)
(467.066 14.4479 3.24414e-10)
(467.061 13.2603 1.44397e-10)
(466.892 16.0306 -1.41328e-10)
(466.846 14.4427 -1.85907e-10)
(466.722 17.4507 7.49999e-11)
(466.56 15.8096 2.46176e-10)
(466.15 0.463752 -6.376e-09)
(466.14 1.25983 1.9829e-09)
(466.136 1.82847 -6.39779e-10)
(466.112 2.77901 8.61932e-11)
(466.104 3.32107 -7.69773e-11)
(466.074 4.28171 -6.43498e-10)
(466.054 4.84417 -4.4503e-10)
(466.024 5.748 2.34586e-10)
(465.983 6.39625 6.38403e-10)
(465.962 7.16556 6.55514e-10)
(465.897 7.98043 4.55443e-10)
(465.884 8.52437 4.43465e-10)
(465.793 9.59821 1.69263e-10)
(465.791 9.81836 -2.83742e-10)
(465.671 11.2461 -4.25103e-10)
(465.68 11.0484 -3.0464e-10)
(465.534 12.912 -2.70931e-10)
(465.548 12.2266 7.14286e-12)
(465.382 14.5708 3.40951e-10)
(465.389 13.3815 1.57371e-10)
(465.225 16.1787 -1.27985e-10)
(465.193 14.5675 -1.74377e-10)
(465.073 17.6458 9.68146e-11)
(464.933 15.9201 2.66064e-10)
(464.338 0.466614 -6.42249e-09)
(464.329 1.26746 2.03871e-09)
(464.326 1.83895 -6.15474e-10)
(464.303 2.79652 2.78107e-11)
(464.297 3.33971 -7.76057e-11)
(464.268 4.30953 -5.88479e-10)
(464.251 4.87123 -4.73792e-10)
(464.224 5.78657 1.8679e-10)
(464.187 6.43225 6.48319e-10)
(464.17 7.21534 7.21068e-10)
(464.109 8.02624 5.06409e-10)
(464.102 8.58578 4.10461e-10)
(464.016 9.65512 1.90773e-10)
(464.02 9.89157 -2.11171e-10)
(463.906 11.316 -4.41031e-10)
(463.923 11.1331 -3.31844e-10)
(463.783 12.9972 -2.4289e-10)
(463.806 12.3214 2.06404e-11)
(463.647 14.6743 3.43197e-10)
(463.664 13.4838 1.45143e-10)
(463.506 16.305 -1.58209e-10)
(463.488 14.6716 -1.56145e-10)
(463.371 17.8124 1.0487e-10)
(463.254 16.009 1.9816e-10)
(462.475 0.468807 -6.47833e-09)
(462.465 1.27347 1.97734e-09)
(462.463 1.84688 -6.52149e-10)
(462.442 2.81041 1.30275e-11)
(462.437 3.35375 -1.40196e-10)
(462.411 4.33169 -7.00303e-10)
(462.396 4.89159 -4.82209e-10)
(462.372 5.81741 2.81796e-10)
(462.339 6.45938 7.00764e-10)
(462.326 7.25528 7.31008e-10)
(462.269 8.06091 5.36622e-10)
(462.267 8.63522 4.60347e-10)
(462.187 9.69859 1.98297e-10)
(462.197 9.95073 -2.46548e-10)
(462.089 11.3701 -4.50007e-10)
(462.113 11.2017 -3.1933e-10)
(461.98 13.0647 -2.7291e-10)
(462.012 12.3986 -4.44137e-11)
(461.859 14.7583 2.93621e-10)
(461.888 13.5673 1.26195e-10)
(461.736 16.4098 -1.52152e-10)
(461.731 14.7558 -1.24715e-10)
(461.617 17.9506 1.64856e-10)
(461.523 16.0754 2.75165e-10)
(460.558 0.470332 -6.53467e-09)
(460.549 1.27788 1.99445e-09)
(460.548 1.85227 -6.20909e-10)
(460.527 2.82069 5.85678e-12)
(460.525 3.36321 -1.20398e-10)
(460.5 4.34822 -6.51579e-10)
(460.488 4.90529 -4.76649e-10)
(460.468 5.84058 2.47767e-10)
(460.438 6.47771 6.18913e-10)
(460.429 7.28548 6.76824e-10)
(460.377 8.08456 5.17014e-10)
(460.38 8.67281 3.98776e-10)
(460.304 9.7287 1.6228e-10)
(460.321 9.9959 -2.54887e-10)
(460.219 11.4085 -4.30049e-10)
(460.251 11.2543 -2.72954e-10)
(460.124 13.114 -2.66239e-10)
(460.166 12.4579 -1.10527e-11)
(460.019 14.8223 3.62361e-10)
(460.059 13.6314 1.39359e-10)
(459.912 16.493 -1.83509e-10)
(459.921 14.8203 -1.82855e-10)
(459.811 18.0613 1.2824e-10)
(459.738 16.1201 2.63333e-10)
(458.589 0.471186 -6.49278e-09)
(458.581 1.28068 2.02777e-09)
(458.58 1.85512 -6.44548e-10)
(458.561 2.82734 2.10504e-11)
(458.56 3.3681 -1.3508e-10)
(458.537 4.35912 -6.32104e-10)