/*--------------------------------*- C++ -*----------------------------------*\
  =========                 |
  \\      /  F ield         | OpenFOAM: The Open Source CFD Toolbox
   \\    /   O peration     | Website:  https://openfoam.org
    \\  /    A nd           | Version:  10
     \\/     M anipulation  |
\*---------------------------------------------------------------------------*/
FoamFile
{
    format      ascii;
    class       surfaceScalarField;
    location    "0.45";
    object      phi;
}
// * * * * * * * * * * * * * * * * * * * * * * * * * * * * * * * * * * * * * //

dimensions      [1 0 -1 0 0 0 0];

internalField   nonuniform List<scalar> 
8154
(
-5.82044e-09
-2.20651e-08
-5.67235e-08
-9.14377e-08
-1.71104e-07
-2.25262e-07
-3.69613e-07
-4.54096e-07
-6.74564e-07
-8.14301e-07
-1.10455e-06
-1.33727e-06
-1.66794e-06
-2.02736e-06
-2.35893e-06
-2.86456e-06
-3.25389e-06
-3.98516e-06
-4.56236e-06
-5.50859e-06
-6.82329e-06
-7.25314e-06
-6.84731e-06
-0.000277438
-0.000832369
2.40327e-08
-0.00138746
9.62817e-08
-0.00194288
2.13468e-07
-0.00249867
3.78411e-07
-0.00305504
5.77727e-07
-0.00361201
8.24025e-07
-0.00416973
1.08874e-06
-0.00472845
1.39773e-06
-0.00528791
1.71072e-06
-0.00584877
2.05584e-06
-0.00641057
2.40253e-06
-0.00697377
2.74837e-06
-0.00753866
3.12063e-06
-0.00810409
3.43673e-06
-0.00867312
3.85185e-06
-0.00924022
4.1284e-06
-0.0098149
4.57537e-06
-0.0103832
4.92559e-06
-0.0109646
5.13995e-06
-0.0115338
5.28166e-06
-0.0121235
5.11834e-06
-0.0126949
4.03078e-06
-0.0132929
2.44824e-06
-0.000277462
-0.000832441
2.63441e-08
-0.00138758
1.04821e-07
-0.00194305
2.34846e-07
-0.00249886
4.1049e-07
-0.00305528
6.3561e-07
-0.00361228
8.90021e-07
-0.00417004
1.19486e-06
-0.00472876
1.501e-06
-0.00528825
1.8665e-06
-0.00584912
2.19029e-06
-0.00641091
2.593e-06
-0.00697414
2.89299e-06
-0.00753898
3.29932e-06
-0.00810451
3.53984e-06
-0.00867339
3.90668e-06
-0.00924067
4.10762e-06
-0.00981526
4.39232e-06
-0.0103834
5.00268e-06
-0.0109647
4.66619e-06
-0.0115336
5.23491e-06
-0.0121224
5.33496e-06
-0.0126933
5.04288e-06
-0.0132905
4.22518e-06
-0.000277489
-0.00083252
2.12773e-08
-0.00138771
8.49225e-08
-0.00194322
1.88144e-07
-0.00249909
3.30781e-07
-0.00305554
5.02197e-07
-0.00361259
7.077e-07
-0.00417035
9.22771e-07
-0.00472913
1.16624e-06
-0.00528857
1.39349e-06
-0.00584952
1.64139e-06
-0.00641121
1.84594e-06
-0.00697455
2.05e-06
-0.00753922
2.19783e-06
-0.00810487
2.28465e-06
-0.00867359
2.35642e-06
-0.00924095
2.20976e-06
-0.00981587
2.34608e-06
-0.0103831
1.89996e-06
-0.0109653
1.78165e-06
-0.0115337
1.39361e-06
-0.0121221
1.16059e-06
-0.0126925
7.23019e-07
-0.0132862
5.11766e-07
-0.00027751
-0.000832583
2.55049e-08
-0.00138781
1.01856e-07
-0.00194337
2.26055e-07
-0.00249926
3.97988e-07
-0.00305574
6.05825e-07
-0.0036128
8.55932e-07
-0.00417059
1.11951e-06
-0.00472935
1.42034e-06
-0.00528882
1.70182e-06
-0.00584973
2.01639e-06
-0.00641141
2.2717e-06
-0.0069747
2.54851e-06
-0.00753931
2.73415e-06
-0.00810494
2.89596e-06
-0.00867345
2.98822e-06
-0.00924109
2.90139e-06
-0.00981543
2.97746e-06
-0.010383
2.28362e-06
-0.0109649
2.51593e-06
-0.0115335
1.72677e-06
-0.0121217
1.21514e-06
-0.0126923
3.81911e-07
-0.0132857
-1.76825e-07
-0.000277536
-0.00083266
3.36101e-08
-0.00138794
1.34186e-07
-0.00194354
2.9913e-07
-0.00249947
5.26544e-07
-0.00305599
8.08032e-07
-0.00361307
1.14187e-06
-0.00417089
1.51191e-06
-0.00472963
1.91886e-06
-0.00528914
2.33837e-06
-0.00584998
2.77283e-06
-0.00641169
3.19374e-06
-0.00697488
3.59606e-06
-0.00753947
3.96461e-06
-0.00810503
4.25956e-06
-0.00867336
4.52502e-06
-0.00924116
4.61911e-06
-0.00981473
4.73406e-06
-0.0103832
4.40126e-06
-0.0109641
4.36345e-06
-0.011533
3.67442e-06
-0.0121208
3.22489e-06
-0.0126917
2.27225e-06
-0.0132859
1.34224e-06
-0.000277569
-0.00083276
3.7524e-08
-0.0013881
1.49819e-07
-0.00194377
3.34255e-07
-0.00249975
5.8847e-07
-0.00305632
9.0434e-07
-0.00361344
1.27846e-06
-0.0041713
1.69607e-06
-0.00473005
2.15364e-06
-0.00528957
2.63032e-06
-0.0058504
3.12049e-06
-0.00641209
3.60199e-06
-0.00697525
4.0582e-06
-0.00753976
4.48203e-06
-0.0081053
4.82221e-06
-0.00867345
5.12675e-06
-0.00924128
5.25387e-06
-0.0098144
5.37314e-06
-0.0103832
5.08328e-06
-0.0109634
4.96302e-06
-0.0115325
4.21849e-06
-0.0121199
3.69336e-06
-0.0126908
2.64125e-06
-0.0132846
1.60516e-06
-0.000277607
-0.000832873
4.13498e-08
-0.00138829
1.65104e-07
-0.00194402
3.68468e-07
-0.00250007
6.48852e-07
-0.0030567
9.97695e-07
-0.00361385
1.41124e-06
-0.00417176
1.87386e-06
-0.00473053
2.38159e-06
-0.00529006
2.91179e-06
-0.00585088
3.4586e-06
-0.00641255
3.99612e-06
-0.00697567
4.50899e-06
-0.0075401
4.9827e-06
-0.0081056
5.37128e-06
-0.00867358
5.70961e-06
-0.00924139
5.8664e-06
-0.00981411
6.00104e-06
-0.0103831
5.72023e-06
-0.0109627
5.59352e-06
-0.011532
4.81319e-06
-0.0121188
4.21677e-06
-0.0126897
2.99293e-06
-0.013283
1.78859e-06
-0.000277648
-0.000832996
4.50393e-08
-0.00138849
1.79821e-07
-0.0019443
4.01369e-07
-0.00250042
7.06711e-07
-0.00305711
1.08699e-06
-0.00361432
1.53763e-06
-0.00417226
2.04289e-06
-0.00473106
2.59724e-06
-0.00529061
3.17825e-06
-0.00585142
3.77734e-06
-0.00641306
4.36891e-06
-0.00697615
4.93387e-06
-0.00754049
5.45674e-06
-0.00810594
5.88898e-06
-0.00867373
6.26005e-06
-0.00924153
6.44467e-06
-0.00981382
6.58489e-06
-0.0103829
6.33021e-06
-0.0109619
6.17353e-06
-0.0115314
5.37205e-06
-0.0121176
4.85104e-06
-0.0126885
3.36205e-06
-0.0132812
2.01085e-06
-0.000277693
-0.000833131
4.86812e-08
-0.00138871
1.94337e-07
-0.0019446
4.33761e-07
-0.0025008
7.6357e-07
-0.00305756
1.17445e-06
-0.00361482
1.66109e-06
-0.00417282
2.20727e-06
-0.00473164
2.80634e-06
-0.00529121
3.43548e-06
-0.00585201
4.0845e-06
-0.00641363
4.72716e-06
-0.00697667
5.34237e-06
-0.00754092
5.91235e-06
-0.00810631
6.38727e-06
-0.00867391
6.78981e-06
-0.00924167
6.99959e-06
-0.00981357
7.14054e-06
-0.0103828
6.90564e-06
-0.0109611
6.72643e-06
-0.0115308
5.90844e-06
-0.0121162
4.86573e-06
-0.0126872
3.71081e-06
-0.0132791
2.20765e-06
-0.000277742
-0.000833277
5.22741e-08
-0.00138895
2.08652e-07
-0.00194493
4.65684e-07
-0.00250121
8.19548e-07
-0.00305805
1.2604e-06
-0.00361537
1.78214e-06
-0.00417342
2.36791e-06
-0.00473227
3.00993e-06
-0.00529185
3.6848e-06
-0.00585265
4.38096e-06
-0.00641424
5.07152e-06
-0.00697724
5.73402e-06
-0.0075414
6.34861e-06
-0.00810671
6.86457e-06
-0.00867412
7.29816e-06
-0.00924181
7.53137e-06
-0.00981333
7.67151e-06
-0.0103826
7.4534e-06
-0.0109603
7.25349e-06
-0.01153
6.39658e-06
-0.0121148
5.5895e-06
-0.0126857
4.03732e-06
-0.0132769
2.4056e-06
-0.000277794
-0.000833433
5.58323e-08
-0.00138921
2.22832e-07
-0.00194529
4.97315e-07
-0.00250165
8.75035e-07
-0.00305857
1.34558e-06
-0.00361596
1.90204e-06
-0.00417406
2.52673e-06
-0.00473295
3.2107e-06
-0.00529255
3.92967e-06
-0.00585335
4.67086e-06
-0.0064149
5.40644e-06
-0.00697785
6.11316e-06
-0.00754191
6.76921e-06
-0.00810715
7.32388e-06
-0.00867436
7.78774e-06
-0.00924195
8.04568e-06
-0.00981311
8.19193e-06
-0.0103824
7.97468e-06
-0.0109594
7.74543e-06
-0.0115292
6.86096e-06
-0.0121132
6.00798e-06
-0.0126841
4.35873e-06
-0.0132745
2.58968e-06
-0.00027785
-0.0008336
5.93483e-08
-0.00138948
2.36851e-07
-0.00194567
5.28615e-07
-0.00250212
9.3001e-07
-0.00305912
1.43007e-06
-0.00361658
2.02105e-06
-0.00417474
2.68437e-06
-0.00473367
3.40983e-06
-0.00529329
4.17197e-06
-0.00585408
4.95669e-06
-0.00641561
5.73497e-06
-0.00697851
6.48293e-06
-0.00754247
7.17682e-06
-0.00810761
7.76664e-06
-0.00867461
8.25786e-06
-0.0092421
8.53882e-06
-0.00981289
8.69165e-06
-0.0103822
8.4721e-06
-0.0109585
8.20831e-06
-0.0115284
7.28608e-06
-0.0121115
6.37327e-06
-0.0126823
4.65433e-06
-0.0132719
2.76173e-06
-0.00027791
-0.000833778
6.28213e-08
-0.00138977
2.50703e-07
-0.00194607
5.59573e-07
-0.00250262
9.84453e-07
-0.00305972
1.51385e-06
-0.00361725
2.13926e-06
-0.00417547
2.84113e-06
-0.00473443
3.60799e-06
-0.00529408
4.41299e-06
-0.00585486
5.24057e-06
-0.00641636
6.06014e-06
-0.0069792
6.84711e-06
-0.00754306
7.57564e-06
-0.0081081
8.19686e-06
-0.00867489
8.71176e-06
-0.00924225
9.01267e-06
-0.00981266
9.16973e-06
-0.010382
8.95033e-06
-0.0109576
8.64597e-06
-0.0115275
7.67878e-06
-0.0121098
6.70484e-06
-0.0126804
4.8983e-06
-0.0132692
2.90987e-06
-0.000277972
-0.000833966
6.62539e-08
-0.00139008
2.64393e-07
-0.00194649
5.90172e-07
-0.00250315
1.03829e-06
-0.00306034
1.59677e-06
-0.00361795
2.25639e-06
-0.00417623
2.99665e-06
-0.00473523
3.80485e-06
-0.0052949
4.65269e-06
-0.00585568
5.523e-06
-0.00641714
6.38336e-06
-0.00697993
7.20812e-06
-0.00754368
7.96903e-06
-0.00810862
8.61828e-06
-0.00867519
9.15275e-06
-0.00924241
9.46953e-06
-0.00981244
9.62905e-06
-0.0103817
9.4117e-06
-0.0109566
9.06488e-06
-0.0115265
8.05328e-06
-0.012108
7.00997e-06
-0.0126784
5.05727e-06
-0.0132663
3.03681e-06
-0.000278039
-0.000834164
6.96534e-08
-0.00139041
2.77943e-07
-0.00194694
6.20432e-07
-0.00250371
1.0915e-06
-0.003061
1.67865e-06
-0.00361869
2.37203e-06
-0.00417704
3.15025e-06
-0.00473608
3.99948e-06
-0.00529577
4.89001e-06
-0.00585654
5.80309e-06
-0.00641797
6.70433e-06
-0.00698069
7.56671e-06
-0.00754432
8.3592e-06
-0.00810915
9.03445e-06
-0.00867551
9.58499e-06
-0.00924257
9.91274e-06
-0.00981222
1.00707e-05
-0.0103813
9.85293e-06
-0.0109556
9.46464e-06
-0.0115255
8.41503e-06
-0.012106
7.30931e-06
-0.0126764
5.27969e-06
-0.0132632
3.16985e-06
-0.000278108
-0.000834372
7.30238e-08
-0.00139075
2.91367e-07
-0.00194741
6.50363e-07
-0.0025043
1.14402e-06
-0.00306169
1.75931e-06
-0.00361947
2.48574e-06
-0.00417789
3.30109e-06
-0.00473697
4.19056e-06
-0.00529669
5.12316e-06
-0.00585744
6.07873e-06
-0.00641883
7.02096e-06
-0.00698149
7.9213e-06
-0.007545
8.74579e-06
-0.0081097
9.44687e-06
-0.00867584
1.00122e-05
-0.00924272
1.03476e-05
-0.00981201
1.04974e-05
-0.0103809
1.02665e-05
-0.0109546
9.84366e-06
-0.0115243
8.75679e-06
-0.012104
7.59072e-06
-0.0126743
5.49824e-06
-0.0132601
3.29305e-06
-0.000278181
-0.000834591
7.63562e-08
-0.00139111
3.04625e-07
-0.0019479
6.79863e-07
-0.00250491
1.19564e-06
-0.00306242
1.83836e-06
-0.00362028
2.59685e-06
-0.00417878
3.44809e-06
-0.00473791
4.37646e-06
-0.00529764
5.34983e-06
-0.00585838
6.3469e-06
-0.00641973
7.32966e-06
-0.00698231
8.26813e-06
-0.0075457
9.12544e-06
-0.00811026
9.85339e-06
-0.00867617
1.04348e-05
-0.00924287
1.07779e-05
-0.00981178
1.09185e-05
-0.0103805
1.06707e-05
-0.0109535
1.02126e-05
-0.0115232
9.08922e-06
-0.0121019
7.86173e-06
-0.0126721
5.69878e-06
-0.0132568
3.40797e-06
-0.000278258
-0.000834819
7.96252e-08
-0.00139149
3.17617e-07
-0.00194842
7.08719e-07
-0.00250556
1.24602e-06
-0.00306318
1.91527e-06
-0.00362114
2.70461e-06
-0.00417971
3.59021e-06
-0.00473888
4.55568e-06
-0.00529864
5.56791e-06
-0.00585937
6.6047e-06
-0.00642067
7.62666e-06
-0.00698317
8.6026e-06
-0.00754642
9.4931e-06
-0.00811084
1.02491e-05
-0.00867651
1.08485e-05
-0.00924302
1.12016e-05
-0.00981153
1.1335e-05
-0.0103801
1.10728e-05
-0.0109524
1.05754e-05
-0.0115219
9.4181e-06
-0.0120998
8.12896e-06
-0.0126698
5.89334e-06
-0.0132534
3.51763e-06
-0.000278337
-0.000835057
8.27729e-08
-0.00139188
3.3012e-07
-0.00194896
7.3647e-07
-0.00250623
1.29441e-06
-0.00306397
1.98904e-06
-0.00362202
2.80775e-06
-0.00418067
3.72588e-06
-0.00473989
4.72629e-06
-0.00529968
5.77494e-06
-0.00586039
6.84894e-06
-0.00642164
7.90776e-06
-0.00698406
8.91938e-06
-0.00754718
9.84227e-06
-0.00811144
1.06267e-05
-0.00867686
1.12462e-05
-0.00924315
1.16121e-05
-0.00981127
1.17423e-05
-0.0103796
1.14684e-05
-0.0109512
1.09316e-05
-0.0115206
9.74703e-06
-0.0120975
8.39838e-06
-0.0126674
6.08733e-06
-0.0132499
3.62564e-06
-0.00027842
-0.000835305
8.57219e-08
-0.00139229
3.41838e-07
-0.00194951
7.62494e-07
-0.00250692
1.33982e-06
-0.00306478
2.05828e-06
-0.00362294
2.90455e-06
-0.00418167
3.85312e-06
-0.00474094
4.88606e-06
-0.00530075
5.96841e-06
-0.00586145
7.07661e-06
-0.00642266
8.16918e-06
-0.00698498
9.21355e-06
-0.00754796
1.01666e-05
-0.00811206
1.09782e-05
-0.00867723
1.16185e-05
-0.00924328
1.19998e-05
-0.009811
1.21319e-05
-0.010379
1.18512e-05
-0.01095
1.12793e-05
-0.0115193
1.00754e-05
-0.0120952
8.67134e-06
-0.0126649
6.28727e-06
-0.0132463
3.73699e-06
-0.000278506
-0.000835561
8.83826e-08
-0.00139271
3.52422e-07
-0.00195009
7.86045e-07
-0.00250764
1.38101e-06
-0.00306563
2.12126e-06
-0.00362389
2.99282e-06
-0.0041827
3.96937e-06
-0.00474202
5.03216e-06
-0.00530186
6.14527e-06
-0.00586254
7.28442e-06
-0.0064237
8.40717e-06
-0.00698593
9.48058e-06
-0.00754877
1.04602e-05
-0.0081127
1.12961e-05
-0.0086776
1.19556e-05
-0.00924341
1.23527e-05
-0.00981072
1.24908e-05
-0.0103785
1.22107e-05
-0.0109488
1.16181e-05
-0.0115179
1.03949e-05
-0.0120928
8.94099e-06
-0.0126623
6.49396e-06
-0.0132426
3.85474e-06
-0.000278594
-0.000835825
9.06681e-08
-0.00139314
3.6153e-07
-0.00195069
8.0637e-07
-0.00250838
1.41671e-06
-0.0030665
2.1761e-06
-0.00362487
3.07005e-06
-0.00418377
4.07156e-06
-0.00474314
5.1611e-06
-0.005303
6.30174e-06
-0.00586366
7.46839e-06
-0.00642477
8.6176e-06
-0.00698691
9.71596e-06
-0.00754961
1.07179e-05
-0.00811336
1.1574e-05
-0.008678
1.2249e-05
-0.00924355
1.26594e-05
-0.00981045
1.28034e-05
-0.0103779
1.25277e-05
-0.0109476
1.19257e-05
-0.0115164
1.06847e-05
-0.0120904
9.18765e-06
-0.0126597
6.69799e-06
-0.0132387
3.97602e-06
-0.000278685
-0.000836096
9.25071e-08
-0.00139358
3.68872e-07
-0.0019513
8.22813e-07
-0.00250914
1.44572e-06
-0.0030674
2.22094e-06
-0.00362587
3.13365e-06
-0.00418485
4.15633e-06
-0.00474428
5.26881e-06
-0.00530416
6.43322e-06
-0.00586481
7.62362e-06
-0.00642587
8.79538e-06
-0.00698791
9.91454e-06
-0.00755046
1.09345e-05
-0.00811403
1.18058e-05
-0.00867841
1.24919e-05
-0.0092437
1.29111e-05
-0.00981017
1.30581e-05
-0.0103773
1.27846e-05
-0.0109464
1.21721e-05
-0.0115149
1.09203e-05
-0.0120879
9.38705e-06
-0.012657
6.87318e-06
-0.0132347
4.08397e-06
-0.000278777
-0.000836372
9.38507e-08
-0.00139404
3.74246e-07
-0.00195192
8.34882e-07
-0.00250992
1.46711e-06
-0.00306831
2.25421e-06
-0.00362689
3.18122e-06
-0.00418597
4.22033e-06
-0.00474544
5.35096e-06
-0.00530535
6.53448e-06
-0.00586598
7.74418e-06
-0.00642699
8.93422e-06
-0.00698893
1.007e-05
-0.00755133
1.11034e-05
-0.00811472
1.19853e-05
-0.00867882
1.26775e-05
-0.00924385
1.31005e-05
-0.0098099
1.3246e-05
-0.0103767
1.29712e-05
-0.0109451
1.23463e-05
-0.0115134
1.10871e-05
-0.0120854
9.51232e-06
-0.0126542
6.97545e-06
-0.0132307
4.14489e-06
-0.000278871
-0.000836652
9.46864e-08
-0.0013945
3.7759e-07
-0.00195255
8.42404e-07
-0.0025107
1.48048e-06
-0.00306924
2.27512e-06
-0.00362793
3.21141e-06
-0.0041871
4.26143e-06
-0.00474663
5.40455e-06
-0.00530656
6.60151e-06
-0.00586717
7.82538e-06
-0.00642812
9.02882e-06
-0.00698997
1.01771e-05
-0.00755222
1.12199e-05
-0.00811541
1.21087e-05
-0.00867925
1.28023e-05
-0.00924399
1.3225e-05
-0.00980963
1.33634e-05
-0.010376
1.30837e-05
-0.0109439
1.24447e-05
-0.0115118
1.11807e-05
-0.0120828
9.5537e-06
-0.0126513
6.96765e-06
-0.0132265
4.13017e-06
-0.000278966
-0.000836935
9.53935e-08
-0.00139496
3.80414e-07
-0.00195319
8.48739e-07
-0.0025115
1.49173e-06
-0.00307017
2.29274e-06
-0.00362898
3.23698e-06
-0.00418824
4.29662e-06
-0.00474782
5.45119e-06
-0.00530779
6.66128e-06
-0.00586838
7.8999e-06
-0.00642927
9.11894e-06
-0.00699101
1.02832e-05
-0.0075531
1.1341e-05
-0.0081161
1.22431e-05
-0.00867967
1.29461e-05
-0.00924413
1.33758e-05
-0.00980935
1.35157e-05
-0.0103754
1.32383e-05
-0.0109426
1.25944e-05
-0.0115102
1.13311e-05
-0.0120802
9.67532e-06
-0.0126485
7.05774e-06
-0.0132224
4.24197e-06
-0.000279061
-0.00083722
9.57031e-08
-0.00139543
3.81642e-07
-0.00195383
8.51473e-07
-0.0025123
1.49655e-06
-0.00307112
2.30029e-06
-0.00363004
3.24804e-06
-0.00418939
4.3122e-06
-0.00474903
5.47258e-06
-0.00530902
6.69e-06
-0.0058696
7.93774e-06
-0.00643044
9.16763e-06
-0.00699207
1.03442e-05
-0.00755401
1.14151e-05
-0.0081168
1.23299e-05
-0.0086801
1.30435e-05
-0.00924427
1.34811e-05
-0.00980907
1.36245e-05
-0.0103748
1.33494e-05
-0.0109414
1.27017e-05
-0.0115085
1.14362e-05
-0.0120776
9.77463e-06
-0.0126456
7.13974e-06
-0.0132182
4.42553e-06
-0.000279157
-0.000837506
9.55038e-08
-0.0013959
3.80835e-07
-0.00195448
8.49629e-07
-0.00251311
1.49324e-06
-0.00307206
2.29516e-06
-0.00363111
3.24087e-06
-0.00419055
4.303e-06
-0.00475025
5.46173e-06
-0.00531027
6.67828e-06
-0.00587083
7.92656e-06
-0.00643161
9.15879e-06
-0.00699314
1.034e-05
-0.00755492
1.14177e-05
-0.00811752
1.23407e-05
-0.00868054
1.30626e-05
-0.00924442
1.35072e-05
-0.0098088
1.36537e-05
-0.0103741
1.33797e-05
-0.0109401
1.27273e-05
-0.0115069
1.14657e-05
-0.0120749
9.79723e-06
-0.0126427
7.18642e-06
-0.013214
3.97421e-06
-0.000279252
-0.000837791
9.48315e-08
-0.00139637
3.78145e-07
-0.00195512
8.43589e-07
-0.00251391
1.48256e-06
-0.00307301
2.27866e-06
-0.00363217
3.21753e-06
-0.00419171
4.27201e-06
-0.00475147
5.42263e-06
-0.00531152
6.63104e-06
-0.00587206
7.87194e-06
-0.00643279
9.09827e-06
-0.00699421
1.02761e-05
-0.00755584
1.13535e-05
-0.00811824
1.22797e-05
-0.00868098
1.30074e-05
-0.00924456
1.34596e-05
-0.00980853
1.36123e-05
-0.0103735
1.33427e-05
-0.0109389
1.26869e-05
-0.0115052
1.14297e-05
-0.0120723
9.75128e-06
-0.0126397
7.1613e-06
-0.0132098
3.9351e-06
-0.000279347
-0.000838074
9.37116e-08
-0.00139684
3.73683e-07
-0.00195576
8.33634e-07
-0.0025147
1.4651e-06
-0.00307395
2.25186e-06
-0.00363322
3.17979e-06
-0.00419286
4.22196e-06
-0.00475268
5.3592e-06
-0.00531276
6.55353e-06
-0.00587328
7.78041e-06
-0.00643397
8.99354e-06
-0.00699529
1.01603e-05
-0.00755677
1.12299e-05
-0.00811896
1.21529e-05
-0.00868144
1.28824e-05
-0.00924472
1.33418e-05
-0.00980826
1.3505e-05
-0.0103728
1.32474e-05
-0.0109376
1.25974e-05
-0.0115035
1.13444e-05
-0.0120697
9.64811e-06
-0.0126368
7.08634e-06
-0.0132056
4.19286e-06
-0.00027944
-0.000838354
9.21707e-08
-0.0013973
3.67557e-07
-0.00195639
8.2003e-07
-0.00251549
1.44136e-06
-0.00307488
2.21564e-06
-0.00363427
3.12911e-06
-0.004194
4.15512e-06
-0.00475387
5.27483e-06
-0.00531399
6.45058e-06
-0.0058745
7.65845e-06
-0.00643514
8.85273e-06
-0.00699636
1.00021e-05
-0.0075577
1.10568e-05
-0.00811969
1.19696e-05
-0.0086819
1.26948e-05
-0.00924488
1.31578e-05
-0.009808
1.33326e-05
-0.0103721
1.30938e-05
-0.0109363
1.24638e-05
-0.0115019
1.12328e-05
-0.0120671
9.5425e-06
-0.0126339
7.0155e-06
-0.0132014
4.16729e-06
-0.000279533
-0.000838629
9.02484e-08
-0.00139775
3.59926e-07
-0.00195701
8.03114e-07
-0.00251627
1.41193e-06
-0.00307579
2.17093e-06
-0.00363529
3.0668e-06
-0.00419512
4.07341e-06
-0.00475505
5.1723e-06
-0.00531519
6.32617e-06
-0.00587569
7.51163e-06
-0.00643629
8.68337e-06
-0.00699741
9.81105e-06
-0.00755861
1.08456e-05
-0.00812042
1.1742e-05
-0.00868236
1.2456e-05
-0.00924505
1.29165e-05
-0.00980776
1.30989e-05
-0.0103715
1.28798e-05
-0.0109351
1.22785e-05
-0.0115002
1.1087e-05
-0.0120646
9.43337e-06
-0.0126311
6.93613e-06
-0.0131972
4.11955e-06
-0.000279623
-0.000838899
8.8003e-08
-0.00139819
3.51015e-07
-0.00195762
7.83372e-07
-0.00251702
1.3776e-06
-0.00307669
2.11884e-06
-0.0036363
2.99436e-06
-0.00419622
3.97869e-06
-0.0047562
5.05395e-06
-0.00531638
6.18339e-06
-0.00587686
7.34416e-06
-0.00643741
8.49127e-06
-0.00699844
9.59514e-06
-0.00755951
1.06068e-05
-0.00812113
1.14832e-05
-0.00868282
1.21807e-05
-0.00924523
1.26322e-05
-0.00980754
1.28149e-05
-0.0103709
1.26102e-05
-0.0109339
1.20381e-05
-0.0114985
1.08931e-05
-0.0120621
9.28975e-06
-0.0126282
6.85591e-06
-0.0131931
4.06516e-06
-0.000279711
-0.000839162
8.55098e-08
-0.00139863
3.41115e-07
-0.00195822
7.61424e-07
-0.00251777
1.33941e-06
-0.00307756
2.06081e-06
-0.00363728
2.91359e-06
-0.00419729
3.87306e-06
-0.00475733
4.92209e-06
-0.00531754
6.02478e-06
-0.00587801
7.15899e-06
-0.00643852
8.28025e-06
-0.00699945
9.35964e-06
-0.00756038
1.03482e-05
-0.00812183
1.1204e-05
-0.00868327
1.1883e-05
-0.00924541
1.23215e-05
-0.00980734
1.24975e-05
-0.0103703
1.22984e-05
-0.0109328
1.17479e-05
-0.0114969
1.06473e-05
-0.0120597
9.10771e-06
-0.0126254
6.77419e-06
-0.013189
4.00568e-06
-0.000279796
-0.000839418
8.28521e-08
-0.00139905
3.30553e-07
-0.0019588
7.37975e-07
-0.00251849
1.2985e-06
-0.00307841
1.9985e-06
-0.00363824
2.82661e-06
-0.00419834
3.75898e-06
-0.00475843
4.77937e-06
-0.00531868
5.85297e-06
-0.00587913
6.9586e-06
-0.0064396
8.05262e-06
-0.00700044
9.10719e-06
-0.00756124
1.00735e-05
-0.00812252
1.09103e-05
-0.00868371
1.15726e-05
-0.00924559
1.19987e-05
-0.00980713
1.21653e-05
-0.0103698
1.19651e-05
-0.0109317
1.14244e-05
-0.0114954
1.03539e-05
-0.0120574
8.87346e-06
-0.0126227
6.64806e-06
-0.013185
3.92907e-06
-0.000279879
-0.000839665
8.01079e-08
-0.00139945
3.19635e-07
-0.00195936
7.13696e-07
-0.00251919
1.25605e-06
-0.00307924
1.93361e-06
-0.00363917
2.73565e-06
-0.00419936
3.63916e-06
-0.0047595
4.62881e-06
-0.00531978
5.67093e-06
-0.00588023
6.74558e-06
-0.00644065
7.81034e-06
-0.00700141
8.83891e-06
-0.00756208
9.78318e-06
-0.00812318
1.06028e-05
-0.00868413
1.1252e-05
-0.00924575
1.16699e-05
-0.00980693
1.1831e-05
-0.0103693
1.16303e-05
-0.0109306
1.10938e-05
-0.0114939
1.00393e-05
-0.0120551
8.59075e-06
-0.0126199
6.42119e-06
-0.0131811
3.81887e-06
-0.000279959
-0.000839905
7.73369e-08
-0.00139985
3.086e-07
-0.0019599
6.8912e-07
-0.00251987
1.21297e-06
-0.00308004
1.86755e-06
-0.00364008
2.64268e-06
-0.00420035
3.51611e-06
-0.00476054
4.47338e-06
-0.00532086
5.48187e-06
-0.00588129
6.52297e-06
-0.00644168
7.55574e-06
-0.00700235
8.55584e-06
-0.0075629
9.47661e-06
-0.00812384
1.02791e-05
-0.00868454
1.09176e-05
-0.00924591
1.13318e-05
-0.00980672
1.1495e-05
-0.0103687
1.13013e-05
-0.0109295
1.07759e-05
-0.0114925
9.73785e-06
-0.012053
8.31199e-06
-0.0126173
6.18931e-06
-0.0131773
3.67606e-06
-0.000280037
-0.000840136
7.45733e-08
-0.00140023
2.97585e-07
-0.00196042
6.64557e-07
-0.00252052
1.16983e-06
-0.00308082
1.80121e-06
-0.00364095
2.54902e-06
-0.00420131
3.39166e-06
-0.00476155
4.31541e-06
-0.0053219
5.2886e-06
-0.00588232
6.2938e-06
-0.00644268
7.29158e-06
-0.00700327
8.25983e-06
-0.0075637
9.15372e-06
-0.00812448
9.93615e-06
-0.00868496
1.05629e-05
-0.00924607
1.09749e-05
-0.00980653
1.11462e-05
-0.0103682
1.09684e-05
-0.0109285
1.04678e-05
-0.0114911
9.45681e-06
-0.0120508
8.05762e-06
-0.0126148
5.97238e-06
-0.0131736
3.49053e-06
-0.000280112
-0.00084036
7.18192e-08
-0.0014006
2.866e-07
-0.00196093
6.40039e-07
-0.00252115
1.1267e-06
-0.00308157
1.73477e-06
-0.00364179
2.45499e-06
-0.00420223
3.26637e-06
-0.00476253
4.15581e-06
-0.0053229
5.09247e-06
-0.00588332
6.05986e-06
-0.00644365
7.01987e-06
-0.00700416
7.95266e-06
-0.00756448
8.81526e-06
-0.00812511
9.57257e-06
-0.00868536
1.01826e-05
-0.00924624
1.05884e-05
-0.00980635
1.07683e-05
-0.0103677
1.06106e-05
-0.0109275
1.01487e-05
-0.0114897
9.18185e-06
-0.0120488
7.83547e-06
-0.0126123
5.79172e-06
-0.0131701
3.31706e-06
-0.000280183
-0.000840575
6.90556e-08
-0.00140095
2.75571e-07
-0.00196142
6.15397e-07
-0.00252176
1.08329e-06
-0.00308229
1.66779e-06
-0.0036426
2.36005e-06
-0.00420312
3.13966e-06
-0.00476346
3.99408e-06
-0.00532387
4.89318e-06
-0.00588429
5.8212e-06
-0.00644458
6.7412e-06
-0.00700502
7.63527e-06
-0.00756524
8.46223e-06
-0.00812573
9.18847e-06
-0.00868577
9.77472e-06
-0.00924643
1.01662e-05
-0.00980619
1.03481e-05
-0.0103672
1.02054e-05
-0.0109265
9.78503e-06
-0.0114883
8.87076e-06
-0.0120467
7.60857e-06
-0.0126099
5.64433e-06
-0.0131668
3.29257e-06
-0.000280253
-0.000840781
6.6235e-08
-0.00140129
2.64311e-07
-0.00196189
5.90215e-07
-0.00252234
1.03886e-06
-0.00308298
1.59915e-06
-0.00364338
2.26263e-06
-0.00420397
3.00949e-06
-0.00476436
3.82773e-06
-0.0053248
4.68795e-06
-0.00588521
5.57489e-06
-0.00644548
6.45284e-06
-0.00700585
7.3053e-06
-0.00756596
8.09286e-06
-0.00812632
8.78248e-06
-0.00868616
9.33778e-06
-0.00924661
9.7055e-06
-0.00980605
9.87872e-06
-0.0103668
9.73891e-06
-0.0109256
9.34931e-06
-0.011487
8.47791e-06
-0.0120447
7.30423e-06
-0.0126075
5.43052e-06
-0.0131635
3.22665e-06
-0.000280319
-0.00084098
6.32905e-08
-0.00140162
2.52543e-07
-0.00196233
5.63863e-07
-0.0025229
9.92319e-07
-0.00308364
1.52713e-06
-0.00364412
2.16029e-06
-0.00420479
2.8726e-06
-0.00476522
3.65267e-06
-0.00532569
4.47169e-06
-0.00588609
5.31528e-06
-0.00644633
6.14828e-06
-0.00700664
6.95651e-06
-0.00756665
7.70033e-06
-0.00812688
8.34965e-06
-0.00868652
8.86633e-06
-0.00924679
9.20426e-06
-0.00980592
9.35453e-06
-0.0103664
9.208e-06
-0.0109248
8.82551e-06
-0.0114859
7.98444e-06
-0.0120429
6.87641e-06
-0.0126053
5.09396e-06
-0.0131603
3.04267e-06
-0.000280382
-0.000841169
6.04759e-08
-0.00140193
2.41275e-07
-0.00196276
5.38614e-07
-0.00252344
9.47714e-07
-0.00308427
1.4581e-06
-0.00364483
2.06226e-06
-0.00420557
2.74153e-06
-0.00476604
3.48537e-06
-0.00532653
4.26532e-06
-0.00588692
5.06843e-06
-0.00644714
5.85948e-06
-0.00700738
6.62754e-06
-0.0075673
7.33105e-06
-0.0081274
7.94541e-06
-0.00868685
8.42692e-06
-0.00924694
8.74117e-06
-0.00980577
8.86783e-06
-0.010366
8.7181e-06
-0.0109239
8.33136e-06
-0.0114848
7.51842e-06
-0.0120411
6.45198e-06
-0.0126032
4.75133e-06
-0.0131572
2.81431e-06
-0.000280443
-0.00084135
5.79976e-08
-0.00140223
2.3136e-07
-0.00196317
5.16401e-07
-0.00252395
9.08512e-07
-0.00308488
1.39753e-06
-0.00364551
1.9764e-06
-0.00420631
2.62715e-06
-0.00476682
3.33987e-06
-0.00532734
4.08705e-06
-0.00588772
4.85635e-06
-0.00644791
5.61419e-06
-0.00700808
6.35021e-06
-0.00756791
7.02502e-06
-0.00812788
7.61395e-06
-0.00868716
8.07688e-06
-0.00924707
8.37818e-06
-0.00980562
8.50167e-06
-0.0103656
8.35493e-06
-0.0109231
7.98486e-06
-0.0114837
7.19585e-06
-0.0120394
6.19192e-06
-0.0126013
4.54978e-06
-0.0131544
2.73654e-06
-0.000280501
-0.000841524
5.53193e-08
-0.00140251
2.20647e-07
-0.00196357
4.92408e-07
-0.00252444
8.66186e-07
-0.00308546
1.33214e-06
-0.00364616
1.88372e-06
-0.00420702
2.50361e-06
-0.00476756
3.18264e-06
-0.00532811
3.89433e-06
-0.00588848
4.62706e-06
-0.00644865
5.34904e-06
-0.00700875
6.05008e-06
-0.0075685
6.69348e-06
-0.00812835
7.2544e-06
-0.00868746
7.69827e-06
-0.00924719
7.98635e-06
-0.00980547
8.10776e-06
-0.0103653
7.96326e-06
-0.0109223
7.61172e-06
-0.0114827
6.84213e-06
-0.0120377
5.8909e-06
-0.0125995
4.30507e-06
-0.0131517
2.65559e-06
-0.000280556
-0.000841689
5.24071e-08
-0.00140278
2.09004e-07
-0.00196394
4.66359e-07
-0.0025249
8.20297e-07
-0.00308601
1.26132e-06
-0.00364678
1.78343e-06
-0.0042077
2.36996e-06
-0.00476827
3.01253e-06
-0.00532884
3.68588e-06
-0.0058892
4.37918e-06
-0.00644935
5.06252e-06
-0.0070094
5.72561e-06
-0.00756906
6.33459e-06
-0.00812879
6.86459e-06
-0.00868774
7.28801e-06
-0.00924732
7.5621e-06
-0.00980532
7.6812e-06
-0.0103649
7.54e-06
-0.0109215
7.21636e-06
-0.0114818
6.47085e-06
-0.0120361
5.56747e-06
-0.0125979
4.01868e-06
-0.013149
2.45975e-06
-0.000280609
-0.000841846
4.92327e-08
-0.00140304
1.96324e-07
-0.00196429
4.38036e-07
-0.00252535
7.70484e-07
-0.00308653
1.18457e-06
-0.00364737
1.67486e-06
-0.00420834
2.22539e-06
-0.00476895
2.82865e-06
-0.00532954
3.46081e-06
-0.00588989
4.1118e-06
-0.00645001
4.75387e-06
-0.00701001
5.37603e-06
-0.00756959
5.94796e-06
-0.00812921
6.44392e-06
-0.00868801
6.84577e-06
-0.00924744
7.10333e-06
-0.00980518
7.21765e-06
-0.0103646
7.07698e-06
-0.0109208
6.79092e-06
-0.0114809
6.08027e-06
-0.0120346
5.25458e-06
-0.0125963
4.07352e-06
-0.0131465
2.29896e-06
-0.000280658
-0.000841993
4.57728e-08
-0.00140328
1.8252e-07
-0.00196463
4.07247e-07
-0.00252576
7.16429e-07
-0.00308702
1.1014e-06
-0.00364792
1.55737e-06
-0.00420895
2.06909e-06
-0.00476958
2.63003e-06
-0.00533019
3.21809e-06
-0.00589053
3.82383e-06
-0.00645063
4.42202e-06
-0.00701058
5.00022e-06
-0.00757009
5.53282e-06
-0.00812962
5.99172e-06
-0.00868825
6.37182e-06
-0.00924756
6.61019e-06
-0.00980504
6.71732e-06
-0.0103643
6.57031e-06
-0.0109201
6.31744e-06
-0.0114801
5.64459e-06
-0.0120331
4.96531e-06
-0.0125948
3.66083e-06
-0.0131442
2.16983e-06
-0.000280703
-0.000842129
4.20177e-08
-0.00140351
1.67548e-07
-0.00196494
3.73893e-07
-0.00252614
6.57921e-07
-0.00308748
1.01146e-06
-0.00364843
1.43043e-06
-0.00420951
1.90034e-06
-0.00477017
2.41578e-06
-0.0053308
2.95674e-06
-0.00589113
3.51415e-06
-0.00645121
4.06587e-06
-0.00701111
4.59676e-06
-0.00757054
5.0879e-06
-0.00812999
5.50646e-06
-0.00868848
5.86553e-06
-0.00924767
6.08243e-06
-0.00980489
6.18593e-06
-0.0103641
6.03e-06
-0.0109194
5.80968e-06
-0.0114794
5.15068e-06
-0.0120318
4.60206e-06
-0.0125933
3.34346e-06
-0.0131421
1.99222e-06
-0.000280745
-0.000842255
3.79785e-08
-0.00140371
1.51443e-07
-0.00196522
3.37998e-07
-0.0025265
5.94941e-07
-0.0030879
9.14645e-07
-0.0036489
1.29383e-06
-0.00421002
1.71879e-06
-0.00477071
2.18536e-06
-0.00533136
2.67608e-06
-0.00589169
3.18188e-06
-0.00645175
3.68452e-06
-0.00701161
4.16453e-06
-0.00757096
4.61232e-06
-0.00813034
4.98647e-06
-0.00868869
5.3252e-06
-0.00924779
5.5161e-06
-0.00980472
5.62261e-06
-0.0103639
5.45712e-06
-0.0109187
5.29358e-06
-0.0114788
5.05132e-06
-0.0120305
4.07345e-06
-0.012592
3.02794e-06
-0.0131401
1.79649e-06
-0.000280783
-0.000842368
3.36841e-08
-0.0014039
1.34291e-07
-0.00196548
2.99714e-07
-0.00252682
5.27686e-07
-0.00308827
8.1114e-07
-0.00364932
1.14776e-06
-0.00421049
1.52466e-06
-0.0047712
1.93893e-06
-0.00533186
2.37608e-06
-0.00589219
2.82651e-06
-0.00645223
3.27755e-06
-0.00701206
3.70283e-06
-0.00757134
4.10635e-06
-0.00813066
4.4313e-06
-0.00868888
4.75189e-06
-0.00924791
4.90924e-06
-0.00980455
5.0262e-06
-0.0103638
4.83555e-06
-0.0109181
4.80614e-06
-0.0114782
4.36433e-06
-0.0120294
3.66558e-06
-0.0125908
2.72345e-06
-0.0131383
1.60899e-06
-0.000280817
-0.000842468
2.91551e-08
-0.00140406
1.16184e-07
-0.0019657
2.59215e-07
-0.0025271
4.56459e-07
-0.00308861
7.01373e-07
-0.0036497
9.92862e-07
-0.0042109
1.31886e-06
-0.00477164
1.67754e-06
-0.00533231
2.05768e-06
-0.00589264
2.44837e-06
-0.00645266
2.84559e-06
-0.00701246
3.21132e-06
-0.00757167
3.57216e-06
-0.00813097
3.84164e-06
-0.00868903
4.15028e-06
-0.00924804
4.26336e-06
-0.00980438
4.40763e-06
-0.0103637
4.56152e-06
-0.0109176
4.11678e-06
-0.0114776
3.75417e-06
-0.0120285
3.20317e-06
-0.0125897
2.38994e-06
-0.0131367
1.41126e-06
-0.000280846
-0.000842555
2.43594e-08
-0.00140421
9.714e-08
-0.0019659
2.16669e-07
-0.00252735
3.81687e-07
-0.0030889
5.86135e-07
-0.00365003
8.30271e-07
-0.00421126