/*--------------------------------*- C++ -*----------------------------------*\
  =========                 |
  \\      /  F ield         | OpenFOAM: The Open Source CFD Toolbox
   \\    /   O peration     | Website:  https://openfoam.org
    \\  /    A nd           | Version:  10
     \\/     M anipulation  |
\*---------------------------------------------------------------------------*/
FoamFile
{
    format      ascii;
    class       volScalarField;
    location    "0.45";
    object      rho;
}
// * * * * * * * * * * * * * * * * * * * * * * * * * * * * * * * * * * * * * //

dimensions      [1 -3 0 0 0 0 0];

internalField   nonuniform List<scalar> 
4176
(
0.0308487
0.0308517
0.0308579
0.0308683
0.0308813
0.0308978
0.0309186
0.0309402
0.0309693
0.0309955
0.0310323
0.0310647
0.0311069
0.0311476
0.0311923
0.031244
0.031287
0.0313549
0.0313932
0.0314789
0.0315108
0.031616
0.0316365
0.0317503
0.0308567
0.0308596
0.0308648
0.0308748
0.0308857
0.0309016
0.0309192
0.0309399
0.0309649
0.0309899
0.031022
0.0310523
0.0310899
0.031127
0.0311679
0.0312143
0.0312541
0.0313145
0.0313499
0.0314266
0.0314539
0.0315541
0.0315751
0.0317035
0.030876
0.0308789
0.0308844
0.0308947
0.0309062
0.0309224
0.0309409
0.0309622
0.0309884
0.031014
0.0310477
0.0310787
0.0311183
0.0311563
0.0311993
0.0312469
0.031289
0.031352
0.0313876
0.0314681
0.0314956
0.0315945
0.0316136
0.0317342
0.0309047
0.0309076
0.0309129
0.0309229
0.0309341
0.0309498
0.0309679
0.0309884
0.0310142
0.0310387
0.031072
0.0311016
0.0311408
0.031177
0.0312198
0.0312655
0.0313074
0.0313704
0.0314013
0.0314842
0.0315093
0.0316068
0.0316248
0.0317366
0.0309442
0.0309471
0.0309523
0.0309624
0.0309735
0.0309894
0.0310072
0.031028
0.0310534
0.0310784
0.0311112
0.0311412
0.0311801
0.0312166
0.0312594
0.0313045
0.0313483
0.0314082
0.0314428
0.0315236
0.0315504
0.0316474
0.0316669
0.0317803
0.0309937
0.0309965
0.0310017
0.0310116
0.0310225
0.0310383
0.0310558
0.0310764
0.0311013
0.0311261
0.0311583
0.0311881
0.0312263
0.0312624
0.0313047
0.0313489
0.0313931
0.03145
0.0314879
0.0315648
0.0315924
0.0316883
0.0317086
0.0318236
0.0310536
0.0310564
0.0310615
0.0310714
0.0310822
0.0310978
0.0311151
0.0311356
0.0311603
0.0311849
0.0312168
0.0312463
0.0312842
0.0313198
0.0313621
0.0314054
0.0314499
0.0315052
0.031544
0.031619
0.0316479
0.0317421
0.0317627
0.0318757
0.0311237
0.0311265
0.0311316
0.0311414
0.031152
0.0311675
0.0311845
0.0312048
0.0312291
0.0312534
0.0312849
0.031314
0.0313516
0.0313866
0.0314286
0.031471
0.0315155
0.0315689
0.0316089
0.0316813
0.0317113
0.0318038
0.031825
0.0319367
0.0312042
0.031207
0.031212
0.0312217
0.0312322
0.0312476
0.0312643
0.0312844
0.0313084
0.0313324
0.0313635
0.0313922
0.0314294
0.0314638
0.0315055
0.0315471
0.0315915
0.0316433
0.0316841
0.031754
0.0317851
0.0318756
0.0318972
0.0320072
0.031295
0.0312978
0.0313027
0.0313124
0.0313226
0.0313379
0.0313544
0.0313742
0.0313979
0.0314216
0.0314523
0.0314805
0.0315172
0.031551
0.0315923
0.031633
0.0316773
0.0317274
0.031769
0.0318365
0.0318687
0.0319564
0.0319788
0.0320869
0.0313963
0.0313991
0.0314039
0.0314135
0.0314235
0.0314386
0.0314549
0.0314744
0.0314977
0.0315211
0.0315513
0.0315791
0.0316153
0.0316484
0.0316893
0.031729
0.0317731
0.0318218
0.0318638
0.0319289
0.0319616
0.0320475
0.03207
0.0321761
0.031508
0.0315108
0.0315155
0.031525
0.0315349
0.0315497
0.0315657
0.031585
0.0316079
0.0316309
0.0316607
0.0316879
0.0317237
0.0317561
0.0317965
0.0318352
0.031879
0.0319261
0.0319686
0.0320313
0.0320648
0.0321479
0.0321709
0.0322749
0.0316303
0.0316331
0.0316377
0.031647
0.0316567
0.0316714
0.031687
0.031706
0.0317286
0.0317511
0.0317804
0.0318071
0.0318423
0.031874
0.0319139
0.0319516
0.031995
0.0320407
0.0320834
0.0321437
0.0321778
0.0322583
0.0322814
0.0323832
0.0317632
0.031766
0.0317705
0.0317797
0.0317892
0.0318036
0.0318189
0.0318376
0.0318597
0.0318818
0.0319106
0.0319367
0.0319713
0.0320023
0.0320416
0.0320783
0.0321212
0.0321653
0.0322083
0.0322661
0.0323006
0.0323789
0.0324018
0.0325012
0.0319068
0.0319095
0.031914
0.031923
0.0319323
0.0319465
0.0319614
0.0319797
0.0320014
0.032023
0.0320513
0.0320768
0.0321108
0.0321409
0.0321796
0.0322152
0.0322576
0.0323002
0.0323432
0.0323986
0.0324337
0.032509
0.0325321
0.032629
0.0320612
0.0320639
0.0320682
0.0320771
0.0320861
0.0321001
0.0321147
0.0321326
0.0321537
0.0321748
0.0322025
0.0322273
0.0322607
0.03229
0.032328
0.0323626
0.0324044
0.0324455
0.0324882
0.0325412
0.0325766
0.0326492
0.0326727
0.0327667
0.0322265
0.0322292
0.0322333
0.0322421
0.0322509
0.0322645
0.0322787
0.0322962
0.0323168
0.0323373
0.0323644
0.0323885
0.0324212
0.0324496
0.0324869
0.0325203
0.0325615
0.0326011
0.0326435
0.0326941
0.0327299
0.0327994
0.0328232
0.0329144
0.0324028
0.0324054
0.0324094
0.0324181
0.0324265
0.0324399
0.0324536
0.0324707
0.0324907
0.0325107
0.0325371
0.0325604
0.0325923
0.0326198
0.0326563
0.0326886
0.032729
0.0327671
0.032809
0.0328572
0.0328932
0.0329599
0.032984
0.0330722
0.0325901
0.0325927
0.0325966
0.0326051
0.0326132
0.0326263
0.0326396
0.0326562
0.0326756
0.0326949
0.0327206
0.0327432
0.0327742
0.0328007
0.0328363
0.0328674
0.032907
0.0329435
0.032985
0.0330307
0.033067
0.0331305
0.033155
0.0332401
0.0327887
0.0327913
0.032795
0.0328033
0.0328111
0.0328238
0.0328366
0.0328527
0.0328715
0.0328902
0.0329151
0.0329368
0.032967
0.0329924
0.0330271
0.0330569
0.0330957
0.0331306
0.0331714
0.0332148
0.033251
0.0333117
0.0333363
0.0334182
0.0329986
0.0330011
0.0330047
0.0330127
0.0330202
0.0330325
0.0330449
0.0330604
0.0330786
0.0330965
0.0331206
0.0331415
0.0331707
0.0331951
0.0332288
0.0332572
0.033295
0.0333283
0.0333683
0.0334094
0.0334457
0.0335031
0.033528
0.0336066
0.0332199
0.0332223
0.0332258
0.0332336
0.0332407
0.0332526
0.0332644
0.0332794
0.0332969
0.0333141
0.0333373
0.0333573
0.0333856
0.0334088
0.0334415
0.0334685
0.0335053
0.0335368
0.033576
0.0336148
0.0336509
0.0337051
0.0337303
0.0338054
0.0334526
0.0334551
0.0334583
0.0334659
0.0334727
0.0334841
0.0334954
0.0335098
0.0335265
0.0335429
0.0335653
0.0335843
0.0336116
0.0336336
0.0336653
0.0336909
0.0337265
0.0337563
0.0337945
0.033831
0.0338669
0.0339177
0.033943
0.0340146
0.033697
0.0336994
0.0337025
0.0337098
0.0337162
0.0337272
0.0337379
0.0337516
0.0337676
0.0337832
0.0338047
0.0338226
0.0338489
0.0338697
0.0339002
0.0339244
0.0339589
0.0339868
0.034024
0.0340582
0.0340937
0.0341412
0.0341665
0.0342344
0.0339531
0.0339555
0.0339583
0.0339654
0.0339713
0.0339819
0.033992
0.0340051
0.0340202
0.034035
0.0340555
0.0340724
0.0340976
0.0341172
0.0341465
0.0341692
0.0342025
0.0342286
0.0342647
0.0342965
0.0343315
0.0343756
0.0344008
0.0344649
0.034221
0.0342233
0.0342259
0.0342327
0.0342383
0.0342484
0.0342578
0.0342702
0.0342845
0.0342984
0.0343179
0.0343338
0.0343578
0.0343761
0.0344043
0.0344253
0.0344575
0.0344817
0.0345166
0.034546
0.0345804
0.0346213
0.0346462
0.0347064
0.0345006
0.0345029
0.0345054
0.0345119
0.034517
0.0345267
0.0345354
0.0345472
0.0345607
0.0345736
0.0345921
0.0346068
0.0346297
0.0346467
0.0346735
0.034693
0.0347239
0.0347462
0.0347799
0.034807
0.0348405
0.0348779
0.0349029
0.0349592
0.0347923
0.0347945
0.0347967
0.034803
0.0348077
0.0348169
0.034825
0.0348361
0.0348487
0.0348607
0.0348782
0.0348917
0.0349134
0.034929
0.0349545
0.0349724
0.0350019
0.0350223
0.0350547
0.0350794
0.0351119
0.0351459
0.0351711
0.035223
0.0350959
0.0350981
0.0351001
0.0351062
0.0351104
0.0351191
0.0351265
0.0351369
0.0351487
0.0351598
0.0351762
0.0351885
0.035209
0.0352231
0.0352473
0.0352635
0.0352916
0.0353101
0.0353411
0.0353635
0.0353951
0.0354253
0.0354506
0.0354981
0.0354117
0.0354138
0.0354157
0.0354214
0.0354252
0.0354334
0.0354402
0.0354498
0.0354607
0.0354709
0.0354862
0.0354974
0.0355166
0.0355293
0.0355521
0.0355666
0.0355932
0.0356097
0.0356393
0.0356593
0.0356898
0.0357166
0.0357413
0.035785
0.0357397
0.0357418
0.0357434
0.0357489
0.0357522
0.0357599
0.035766
0.035775
0.0357849
0.0357942
0.0358084
0.0358184
0.0358364
0.0358477
0.0358691
0.0358818
0.035907
0.0359213
0.0359495
0.035967
0.0359964
0.0360196
0.0360441
0.0360836
0.03608
0.036082
0.0360834
0.0360886
0.0360915
0.0360987
0.0361041
0.0361123
0.0361214
0.0361297
0.0361429
0.0361517
0.0361685
0.0361783
0.0361983
0.0362092
0.0362329
0.0362452
0.0362718
0.0362868
0.0363148
0.036335
0.0363593
0.0363938
0.0364327
0.0364346
0.0364358
0.0364408
0.0364431
0.0364499
0.0364546
0.0364621
0.0364703
0.0364776
0.0364897
0.0364974
0.0365129
0.0365212
0.0365398
0.036549
0.0365712
0.0365813
0.0366064
0.0366188
0.0366455
0.0366623
0.0366862
0.0367163
0.0367979
0.0367997
0.0368007
0.0368054
0.0368073
0.0368136
0.0368176
0.0368244
0.0368316
0.036838
0.0368491
0.0368555
0.0368697
0.0368766
0.0368939
0.0369013
0.036922
0.03693
0.0369535
0.0369633
0.0369886
0.0370021
0.0370257
0.037051
0.0371756
0.0371774
0.0371782
0.0371826
0.037184
0.0371898
0.0371931
0.0371992
0.0372056
0.037211
0.037221
0.0372262
0.0372391
0.0372446
0.0372604
0.0372661
0.0372853
0.0372912
0.0373133
0.0373204
0.0373443
0.0373545
0.0373774
0.037398
0.0375659
0.0375677
0.0375682
0.0375724
0.0375734
0.0375788
0.0375814
0.0375868
0.0375923
0.0375967
0.0376056
0.0376096
0.0376213
0.0376252
0.0376397
0.0376436
0.0376614
0.0376651
0.0376858
0.0376903
0.0377127
0.0377197
0.0377417
0.0377576
0.037969
0.0379708
0.0379711
0.037975
0.0379756
0.0379805
0.0379824
0.0379871
0.0379917
0.0379953
0.038003
0.0380058
0.0380162
0.0380187
0.0380318
0.0380338
0.0380502
0.0380517
0.038071
0.038073
0.0380941
0.0380979
0.0381186
0.0381298
0.038385
0.0383867
0.0383868
0.0383905
0.0383906
0.0383951
0.0383963
0.0384004
0.0384041
0.0384067
0.0384134
0.038415
0.0384242
0.0384251
0.0384369
0.038437
0.0384519
0.0384512
0.038469
0.0384684
0.0384882
0.0384889
0.0385086
0.0385149
0.0388139
0.0388156
0.0388155
0.038819
0.0388186
0.0388227
0.0388233
0.0388267
0.0388295
0.0388312
0.0388368
0.0388372
0.0388452
0.0388446
0.038855
0.0388533
0.0388667
0.0388638
0.0388801
0.0388769
0.0388952
0.0388928
0.0389116
0.0389131
0.0392559
0.0392576
0.0392573
0.0392605
0.0392597
0.0392634
0.0392633
0.0392661
0.039268
0.0392688
0.0392734
0.0392726
0.0392794
0.0392773
0.0392864
0.0392828
0.0392947
0.0392895
0.0393043
0.0392984
0.0393153
0.0393097
0.0393274
0.0393248
0.0397112
0.0397128
0.0397123
0.0397153
0.0397141
0.0397173
0.0397166
0.0397187
0.0397198
0.0397197
0.0397232
0.0397213
0.0397268
0.0397233
0.039731
0.0397255
0.0397361
0.0397286
0.0397419
0.0397332
0.0397487
0.0397397
0.0397562
0.0397499
0.0401799
0.0401814
0.0401807
0.0401835
0.0401818
0.0401846
0.0401832
0.0401846
0.0401849
0.0401839
0.0401864
0.0401832
0.0401875
0.0401826
0.040189
0.0401817
0.0401909
0.0401811
0.040193
0.0401815
0.0401957
0.0401831
0.0401986
0.0401879
0.040662
0.0406635
0.0406626
0.0406652
0.040663
0.0406653
0.0406633
0.040664
0.0406634
0.0406615
0.0406629
0.0406586
0.0406617
0.0406553
0.0406604
0.0406512
0.0406591
0.0406471
0.0406577
0.0406433
0.0406563
0.0406402
0.0406546
0.0406393
0.0411577
0.0411591
0.0411581
0.0411604
0.0411578
0.0411597
0.0411569
0.041157
0.0411555
0.0411527
0.0411531
0.0411476
0.0411495
0.0411416
0.0411454
0.0411343
0.0411409
0.0411266
0.041136
0.0411186
0.0411307
0.0411108
0.0411246
0.0411045
0.0416671
0.0416685
0.0416672
0.0416693
0.0416662
0.0416677
0.0416642
0.0416637
0.0416613
0.0416575
0.0416568
0.0416501
0.0416508
0.0416415
0.0416439
0.041631
0.0416363
0.0416196
0.0416278
0.0416076
0.0416186
0.0415951
0.0416084
0.0415839
0.0421902
0.0421916
0.0421901
0.042192
0.0421884
0.0421894
0.0421853
0.0421841
0.0421807
0.0421761
0.0421743
0.0421664
0.0421659
0.042155
0.0421561
0.0421413
0.0421453
0.0421263
0.0421333
0.0421101
0.0421204
0.0420929
0.0421061
0.0420765
0.0427271
0.0427285
0.0427268
0.0427284
0.0427244
0.042725
0.0427201
0.0427182
0.042714
0.0427084
0.0427056
0.0426965
0.0426947
0.0426824
0.0426821
0.0426655
0.0426681
0.0426468
0.0426526
0.0426263
0.0426359
0.0426044
0.0426178
0.0425829
0.0432779
0.0432793
0.0432774
0.0432787
0.0432743
0.0432744
0.0432688
0.0432663
0.0432611
0.0432546
0.0432507
0.0432404
0.0432374
0.0432235
0.043222
0.0432034
0.0432048
0.043181
0.0431858
0.0431561
0.0431654
0.0431294
0.0431435
0.0431033
0.0438426
0.0438439
0.0438418
0.0438429
0.043838
0.0438376
0.0438314
0.0438281
0.0438221
0.0438146
0.0438097
0.0437981
0.043794
0.0437785
0.0437758
0.0437552
0.0437555
0.0437291
0.0437331
0.0436998
0.0437088
0.0436687
0.0436826
0.0436377
0.044421
0.0444223
0.04442
0.0444209
0.0444155
0.0444147
0.0444077
0.0444038
0.0443969
0.0443885
0.0443825
0.0443698
0.0443645
0.0443474
0.0443435
0.0443209
0.0443201
0.044291
0.0442944
0.0442574
0.0442669
0.0442214
0.0442359
0.044186
0.0450132
0.0450144
0.0450119
0.0450126
0.0450068
0.0450056
0.0449979
0.0449934
0.0449856
0.0449762
0.0449692
0.0449552
0.0449488
0.0449302
0.0449252
0.0449005
0.0448988
0.0448667
0.0448699
0.0448288
0.044839
0.0447885
0.0448031
0.0447486
0.0456191
0.0456203
0.0456176
0.045618
0.0456117
0.0456102
0.0456018
0.0455966
0.045588
0.0455777
0.0455698
0.0455545
0.0455471
0.0455268
0.0455208
0.045494
0.0454915
0.0454563
0.0454596
0.0454147
0.0454243
0.0453704
0.0453842
0.0453255
0.0462385
0.0462397
0.0462368
0.0462371
0.0462303
0.0462283
0.0462194
0.0462135
0.0462041
0.0461929
0.0461841
0.0461675
0.0461592
0.0461371
0.0461305
0.0461012
0.0460984
0.0460597
0.0460638
0.0460142
0.0460239
0.0459662
0.0459796
0.0459166
0.0468714
0.0468725
0.0468695
0.0468695
0.0468623
0.04686
0.0468504
0.046844
0.0468338
0.0468216
0.0468121
0.0467941
0.0467852
0.046761
0.0467542
0.0467221
0.0467194
0.0466775
0.0466807
0.0466284
0.0466374
0.0465765
0.0465889
0.046522
0.0475175
0.0475186
0.0475153
0.0475152
0.0475076
0.047505
0.0474948
0.0474878
0.047477
0.0474638
0.0474537
0.0474341
0.047425
0.0473983
0.047392
0.0473565
0.0473545
0.0473087
0.047312
0.0472571
0.0472645
0.0472009
0.0472127
0.0471417
0.0481766
0.0481777
0.0481743
0.048174
0.048166
0.0481631
0.0481523
0.0481447
0.0481334
0.0481191
0.0481089
0.0480872
0.0480787
0.048049
0.0480434
0.0480045
0.0480025
0.0479549
0.0479567
0.0478995
0.0479061
0.0478395
0.0478504
0.0477758
0.0488484
0.0488497
0.048846
0.0488458
0.0488373
0.0488342
0.0488228
0.0488146
0.0488032
0.0487873
0.0487776
0.0487534
0.0487455
0.0487138
0.0487072
0.0486674
0.0486638
0.048615
0.048615
0.0485562
0.0485613
0.0484922
0.0485024
0.0484241
0.0495329
0.0495343
0.0495302
0.0495302
0.0495212
0.0495181
0.0495061
0.0494972
0.049486
0.0494685
0.0494589
0.0494336
0.0494247
0.0493921
0.0493846
0.0493435
0.0493386
0.0492882
0.0492874
0.0492264
0.0492307
0.0491589
0.0491682
0.0490866
0.0502299
0.0502313
0.050227
0.0502271
0.0502174
0.0502146
0.0502019
0.0501929
0.0501808
0.0501631
0.0501526
0.0501267
0.0501169
0.0500835
0.050075
0.0500327
0.0500269
0.0499754
0.0499728
0.0499106
0.0499134
0.0498395
0.0498481
0.0497632
0.050939
0.0509404
0.0509361
0.050936
0.0509262
0.0509231
0.0509097
0.0509014
0.050888
0.0508702
0.050859
0.0508325
0.050822
0.0507879
0.0507783
0.0507353
0.0507281
0.0506754
0.0506721
0.0506081
0.05061
0.0505337
0.0505416
0.0504537
0.0516601
0.0516616
0.0516573
0.051657
0.0516472
0.0516438
0.05163
0.0516219
0.051607
0.0515902
0.0515774
0.0515509
0.0515397
0.0515048
0.0514946
0.0514505
0.0514426
0.0513889
0.0513841
0.0513189
0.0513197
0.0512416
0.0512487
0.0511579
0.0523931
0.0523945
0.0523903
0.0523899
0.05238
0.0523766
0.0523625
0.0523543
0.0523384
0.0523223
0.0523077
0.0522821
0.0522696
0.0522343
0.0522231
0.0521786
0.0521696
0.0521148
0.0521093
0.0520428
0.0520426
0.0519626
0.0519689
0.0518755
0.0531377
0.0531393
0.053135
0.0531346
0.0531245
0.0531211
0.0531067
0.0530985
0.053082
0.0530662
0.0530505
0.0530253
0.0530113
0.052976
0.0529642
0.0529189
0.0529092
0.0528534
0.0528468
0.0527793
0.0527781
0.0526965
0.0527022
0.0526063
0.0538941
0.0538957
0.0538914
0.0538911
0.0538808
0.0538774
0.0538628
0.0538545
0.0538375
0.0538219
0.0538052
0.0537804
0.0537649
0.0537303
0.0537169
0.0536714
0.0536607
0.0536042
0.0535968
0.0535281
0.0535261
0.053443
0.0534479
0.0533499
0.0546622
0.0546638
0.0546595
0.0546592
0.0546488
0.0546453
0.0546305
0.0546221
0.0546047
0.0545892
0.0545716
0.054547
0.0545306
0.0544958
0.0544815
0.0544356
0.0544242
0.0543667
0.0543586
0.0542889
0.054286
0.0542017
0.0542059
0.0541059
0.0554419
0.0554436
0.0554392
0.0554389
0.0554284
0.0554249
0.0554097
0.0554014
0.0553834
0.0553681
0.0553496
0.0553251
0.0553078
0.0552727
0.0552574
0.0552114
0.055199
0.0551408
0.055132
0.0550611
0.0550577
0.0549721
0.0549755
0.0548739
0.0562334
0.0562352
0.0562306
0.0562304
0.0562196
0.056216
0.0562005
0.056192
0.0561736
0.0561582
0.0561387
0.0561143
0.0560959
0.0560608
0.0560445
0.0559981
0.0559849
0.0559261
0.0559165
0.0558447
0.0558402
0.0557538
0.0557566
0.0556534
0.0570364
0.0570383
0.0570336
0.0570334
0.0570222
0.0570186
0.0570026
0.0569939
0.0569749
0.0569593
0.0569388
0.0569145
0.056895
0.0568595
0.0568424
0.0567955
0.0567815
0.0567219
0.0567118
0.0566389
0.0566339
0.0565465
0.0565485
0.0564441
0.0578509
0.0578529
0.0578479
0.0578476
0.0578361
0.0578322
0.0578157
0.0578066
0.0577869
0.057771
0.0577494
0.0577252
0.0577041
0.0576689
0.0576505
0.0576031
0.0575885
0.0575284
0.0575172
0.0574438
0.0574377
0.0573498
0.0573512
0.0572458
0.0586763
0.0586783
0.0586731
0.0586726
0.0586607
0.0586564
0.0586393
0.0586297
0.0586093
0.0585929
0.0585701
0.0585461
0.0585233
0.0584884
0.0584687
0.0584208
0.0584053
0.0583447
0.0583328
0.0582588
0.0582521
0.0581635
0.0581642
0.058058
0.0595114
0.0595134
0.0595081
0.0595073
0.0594951
0.0594902
0.0594727
0.0594624
0.0594413
0.0594243
0.0594006
0.0593765
0.0593519
0.0593177
0.059296
0.0592484
0.0592315
0.0591711
0.059158
0.0590841
0.0590763
0.0589875
0.0589876
0.0588808
0.0603548
0.0603567
0.0603514
0.0603503
0.0603378
0.0603326
0.0603147
0.0603039
0.0602822
0.0602647
0.0602402
0.060216
0.0601898
0.0601564
0.0601321
0.0600862
0.0600669
0.0600069
0.0599933
0.0599194
0.0599108
0.0598217
0.0598213
0.0597141
0.0612042
0.0612062
0.0612009
0.0611998
0.0611873
0.0611819
0.0611638
0.0611528
0.0611309
0.0611131
0.0610881
0.0610639
0.0610366
0.0610039
0.0609777
0.0609332
0.0609125
0.0608527
0.0608377
0.0607647
0.0607551
0.0606663
0.0606654
0.0605582
0.0620576
0.0620597
0.0620546
0.0620536
0.0620414
0.0620363
0.0620184
0.0620077
0.0619861
0.0619685
0.0619437
0.0619197
0.061892
0.0618603
0.0618326
0.0617897
0.0617664
0.0617091
0.0616919
0.0616203
0.06161
0.0615215
0.0615204
0.0614132
0.062913
0.0629152
0.0629105
0.06291
0.0628984
0.062894
0.062877
0.0628672
0.0628465
0.0628299
0.0628058
0.0627828
0.0627554
0.0627249
0.0626967
0.0626556
0.0626308
0.0625756
0.0625568
0.062486
0.0624756
0.0623876
0.0623864
0.0622796
0.0637695
0.063772
0.0637678
0.0637681
0.0637574
0.0637543
0.0637386
0.0637303
0.063711
0.0636961
0.0636736
0.0636524
0.0636263
0.0635976
0.06357
0.0635311
0.0635057
0.0634526
0.0634335
0.0633625
0.0633526
0.0632647
0.0632637
0.0631572
0.0646281
0.0646308
0.0646273
0.0646285
0.0646189
0.0646173
0.0646032
0.0645968
0.0645796
0.0645669
0.0645465
0.0645278
0.0645037
0.0644776
0.0644516
0.0644154
0.0643904
0.0643407
0.0643204
0.0642523
0.0642416
0.0641537
0.0641528
0.0640463
0.0654919
0.0654949
0.0654919
0.0654942
0.0654856
0.0654855
0.0654729
0.0654685
0.0654533
0.0654429
0.0654249
0.0654089
0.0653873
0.0653641
0.0653408
0.0653075
0.0652848
0.0652376
0.0652192
0.0651532
0.0651434
0.0650556
0.065055
0.0649474
0.0663666
0.0663702
0.0663672
0.0663705
0.0663623
0.0663636
0.0663517
0.0663492
0.0663351
0.0663269
0.0663106
0.0662972
0.0662776
0.0662572
0.0662372
0.0662057
0.0661874
0.0661413
0.0661282
0.0660626
0.0660572
0.0659704
0.0659709
0.0658628
0.06726
0.0672644
0.0672605
0.0672652
0.0672557
0.0672589
0.0672454
0.0672452
0.0672296
0.0672239
0.0672073
0.0671958
0.0671772
0.0671581
0.0671423
0.0671084
0.0670995
0.0670478
0.0670453
0.0669775
0.0669788
0.0668945
0.0668986
0.0667961
0.0681814
0.0681853
0.0681822
0.068185
0.0681765
0.068177
0.0681648
0.0681613
0.0681471
0.0681386
0.0681224
0.0681098
0.0680904
0.0680733
0.0680547
0.0680236
0.0680145
0.0679646
0.0679642
0.0678976
0.0679029
0.0678203
0.0678291
0.0677344
0.0691391
0.0691427
0.069139
0.0691408
0.0691308
0.0691297
0.0691152
0.0691096
0.0690926
0.0690815
0.0690625
0.0690471
0.0690251
0.069006
0.0689827
0.0689547
0.0689383
0.0688921
0.0688892
0.0688228
0.0688296
0.0687454
0.0687576
0.0686632
0.0701396
0.070143
0.0701383
0.0701388
0.0701268
0.0701233
0.0701058
0.0700968
0.0700758
0.0700604
0.0700367
0.0700165
0.0699893
0.0699655
0.0699362
0.0699052
0.0698816
0.0698356
0.0698257
0.0697566
0.0697638
0.0696745
0.0696889
0.0695906
0.0711861
0.0711898
0.0711836
0.0711832
0.0711686
0.0711628
0.0711416
0.0711291
0.0711032
0.0710831
0.0710532
0.0710271
0.0709927
0.070962
0.0709246
0.0708865
0.0708547
0.0708009
0.070785
0.0707071
0.0707117
0.0706138
0.0706289
0.0705222
0.0722789
0.0722831
0.0722751
0.0722743
0.0722571
0.0722496
0.0722244
0.0722096
0.0721775
0.0721548
0.0721164
0.0720866
0.0720423
0.0720051
0.071958
0.0719102
0.07187
0.0718009
0.0717786
0.0716866
0.0716839
0.0715725
0.071585
0.0714647
0.0734145
0.073418
0.0734109
0.0734076
0.0733904
0.0733797
0.0733537
0.0733341
0.0733012
0.0732713
0.0732317
0.073193
0.0731453
0.0730992
0.0730436
0.0729896
0.0729318
0.0728583
0.0728176
0.0727132
0.0726957
0.0725658
0.0725701
0.0724279
0.0745864
0.0745897
0.0745824
0.0745786
0.0745606
0.074549
0.0745215
0.0745004
0.0744653
0.0744332
0.0743905
0.0743484
0.0742966
0.0742455
0.0741842
0.0741234
0.0740542
0.0739798
0.0739122
0.0738093
0.0737656
0.0736181
0.0736056
0.0734304
0.0757865
0.0757897
0.0757825
0.0757786
0.0757604
0.0757485
0.0757207
0.075699
0.0756633
0.0756302
0.0755865
0.0755431
0.0754896
0.0754365
0.0753728
0.0753088
0.0752357
0.0751574
0.0750786
0.0749781
0.0749046
0.0747601
0.0747207
0.0745079
0.0770062
0.0770093
0.0770024
0.0769989
0.0769808
0.0769694
0.0769418
0.0769206
0.0768853
0.0768527
0.0768095
0.0767664
0.0767135
0.0766607
0.0765974
0.0765339
0.0764608
0.0763828
0.076304
0.0762043
0.0761252
0.0759888
0.0759318
0.0757073
0.0782366
0.0782402
0.0782334
0.0782305
0.078213
0.0782025
0.0781757
0.0781557
0.0781214
0.0780902
0.0780484
0.0780072
0.0779559
0.0779054
0.0778443
0.0777832
0.0777129
0.0776379
0.0775638
0.0774657
0.0773984
0.0772603
0.07722
0.0770228
0.0794701
0.0794739
0.0794676
0.0794654
0.0794486
0.0794393
0.0794136
0.0793952
0.0793625
0.0793334
0.0792936
0.0792549
0.0792062
0.0791586
0.0791006
0.0790434
0.0789767
0.0789064
0.078837
0.0787445
0.0786829
0.0785526
0.0785151
0.0783325
0.0806993
0.0807036
0.0806976
0.0806963
0.0806803
0.0806724
0.080648
0.0806315
0.0806006
0.0805739
0.0805364
0.0805007
0.0804548
0.0804109
0.0803565
0.0803034
0.080241
0.0801762
0.0801108
0.0800257
0.0799681
0.0798476
0.0798126
0.0796437
0.0819183
0.0819232
0.0819173
0.0819172
0.0819018
0.0818956
0.0818724
0.0818581
0.0818289
0.0818051
0.0817697
0.0817376
0.0816945
0.0816547
0.0816037
0.0815552
0.0814972
0.0814378
0.0813773
0.0812986
0.0812464
0.0811353
0.0811024
0.0809474
0.0831223
0.0831276
0.0831215
0.0831231
0.0831078
0.0831039
0.0830812
0.08307
0.0830417
0.0830217
0.0829875
0.0829604
0.0829186
0.0828845
0.0828357
0.0827931
0.0827386
0.0826855
0.082629
0.0825576
0.0825091
0.0824081
0.0823775
0.082236
0.0843068
0.0843121
0.0843064
0.0843092
0.0842943
0.0842925
0.0842704
0.0842623
0.0842347
0.0842189
0.0841855
0.0841637
0.0841227
0.0840952
0.0840472
0.0840124
0.0839596
0.0839127
0.0838621
0.0837956
0.0837521
0.083661
0.0836323
0.0835043
0.0854683
0.0854736
0.0854687
0.0854714
0.0854587
0.0854568
0.0854379
0.0854297
0.0854064
0.0853907
0.0853623
0.0853413
0.0853056
0.08528
0.0852373
0.0852058
0.0851577
0.0851175
0.0850687
0.0850103
0.0849707
0.0848893
0.0848627
0.0847477
0.0866039
0.0866091
0.0866049
0.0866081
0.0865966
0.0865956
0.0865787
0.0865717
0.0865512
0.0865368
0.0865124
0.0864925
0.086462
0.0864378
0.0864009
0.0863718
0.0863293
0.086293
0.0862482
0.086199
0.0861621
0.0860897
0.086065
0.0859625
0.087711
0.0877166
0.0877129
0.0877165
0.0877061
0.0877061
0.0876908
0.0876853
0.0876671
0.0876546
0.0876331
0.0876155
0.0875887
0.0875672
0.0875347
0.0875088
0.0874709
0.0874397
0.0873987
0.0873577
0.0873216
0.087259
0.0872367
0.0871461
0.0887884
0.0887939
0.0887906
0.0887949
0.0887853
0.0887864
0.0887725
0.0887686
0.0887523
0.0887418
0.088723
0.0887077
0.0886844
0.0886656
0.088637
0.0886147
0.0885811
0.088554
0.0885175
0.088483
0.0884488
0.0883956
0.0883757
0.0882965
0.0898343
0.0898397
0.0898368
0.0898415
0.0898328
0.0898349
0.0898224
0.0898199
0.0898056
0.0897969
0.0897806
0.0897677
0.0897473
0.0897313
0.0897065
0.0896873
0.0896579
0.0896352
0.0896028
0.0895735
0.0895424
0.0894978
0.0894801
0.0894117
0.0908473
0.0908529
0.0908501
0.0908557
0.0908473
0.0908508
0.090839
0.0908384
0.0908255
0.0908188
0.0908047
0.0907941
0.0907766
0.0907632
0.0907418
0.0907259
0.0907003
0.0906813
0.090653
0.0906292
0.0906007
0.0905653
0.0905478
0.0904905
0.0918272
0.0918325
0.0918304
0.0918357
0.091829
0.0918323
0.0918228
0.0918225
0.0918119
0.0918065
0.0917948
0.0917862
0.0917713
0.0917605
0.0917423
0.0917293
0.0917073
0.0916921
0.0916677
0.0916479
0.0916236
0.0915956
0.0915793
0.0915315
0.0927729
0.0927785
0.0927757
0.0927832
0.0927746
0.0927817
0.0927703
0.0927737
0.0927628
0.0927603
0.0927498
0.0927435
0.092731
0.0927226
0.0927073
0.0926973
0.0926786
0.0926668
0.0926458
0.0926308
0.0926096
0.0925877
0.0925738
0.0925343
0.0936846
0.0936894
0.0936888
0.0936931
0.0936901
0.0936921
0.0936874
0.0936872
0.0936812
0.0936779
0.0936705
0.0936655
0.0936555
0.0936493
0.0936367
0.0936294
0.0936138
0.0936052
0.093588
0.0935763
0.093559
0.0935426
0.0935295
0.0934989
0.0945617
0.0945675
0.0945641
0.0945741
0.0945641
0.0945756
0.094563
0.0945715
0.094561
0.0945629
0.094555
0.0945528
0.0945445
0.0945405
0.0945304
0.0945256
0.0945129
0.0945073
0.0944927
0.0944855
0.0944709
0.0944592
0.0944482
0.0944253
0.0954051
0.0954092
0.0954103
0.0954128
0.0954142
0.0954135
0.0954146
0.0954129
0.095412
0.0954095
0.0954066
0.0954042
0.0953986
0.0953963
0.0953886
0.095386
0.0953758
0.095373
0.0953618
0.0953571
0.0953458
0.0953384
0.0953297
0.0953137
0.0962139
0.0962198
0.0962162
0.0962275
0.0962172
0.0962316
0.0962187
0.0962309
0.0962208
0.0962268
0.0962207
0.0962223
0.0962173
0.0962172
0.0962115
0.0962112
0.0962035
0.0962033
0.0961941
0.0961934
0.0961841
0.0961807
0.0961743
0.0961646
0.0969901
0.0969936
0.0969958
0.0969975
0.0970012
0.0969999
0.0970044
0.0970022
0.0970054
0.0970036
0.0970044
0.0970043
0.0970024
0.0970034
0.0969998
0.0970014
0.0969958
0.0969979
0.0969917
0.0969932
0.0969868
0.0969873
0.096983
0.0969783
0.0977324
0.097738
0.0977352
0.0977456
0.097738
0.0977511
0.0977413
0.0977538
0.0977462
0.0977542
0.0977504
0.0977548
0.0977527
0.0977559
0.0977538
0.0977572
0.0977538
0.097758
0.0977537
0.0977583
0.0977539
0.0977577
0.0977558
0.0977556
0.0984436
0.0984467
0.098449
0.0984516
0.0984547
0.0984559
0.09846
0.0984601
0.0984645
0.0984648
0.0984678
0.09847
0.098471
0.0984747
0.0984745
0.0984795
0.0984777
0.0984841
0.0984818
0.0984886
0.0984862
0.0984935
0.0984928
0.0984971
0.099122
0.0991269
0.0991258
0.0991337
0.0991304
0.0991397
0.0991357
0.0991451
0.0991423
0.0991498
0.0991492
0.0991552
0.0991558
0.0991615
0.0991624
0.0991689
0.0991688
0.0991768
0.0991761
0.0991853
0.0991847
0.0991944
0.0991955
0.0992036
0.099771
0.0997739
0.099776
0.0997796
0.0997816
0.0997856
0.0997881
0.0997919
0.0997953
0.0997989
0.0998024
0.0998073
0.09981
0.0998163
0.0998186
0.0998263
0.0998276
0.0998373
0.0998382
0.0998493
0.0998499
0.0998624
0.0998644
0.0998762
0.100389
0.100393
0.100393
0.100399
0.100399
0.100406
0.100406
0.100413
0.100415
0.100421
0.100423
0.10043
0.100433
0.100441
0.100444
0.100453
0.100455
0.100467
0.100469
0.100481
0.100484
0.100498
0.100501
0.100516
0.100979
0.100982
0.100984
0.100988
0.10099
0.100995
0.100997
0.101003
0.101006
0.101012
0.101016
0.101023
0.101027
0.101035
0.10104
0.101049
0.101053
0.101065
0.101069
0.101083
0.101086
0.101103
0.101106
0.101124
0.101541
0.101544
0.101545
0.10155
0.101551
0.101557
0.101559
0.101565
0.101569
0.101575
0.10158
0.101587
0.101592
0.101601
0.101606
0.101617
0.101622
0.101635
0.101639
0.101655
0.101659
0.101678
0.101682
0.101702
0.102076
0.102078
0.102081
0.102083
0.102088
0.10209
0.102096
0.1021
0.102105
0.102112
0.102117
0.102125
0.10213
0.10214
0.102146
0.102157
0.102163
0.102177
0.102182
0.102199
0.102204
0.102224
0.102229
0.10225
0.102585
0.102588
0.102588
0.102594
0.102594
0.102602
0.102602
0.102611
0.102614
0.102622
0.102627
0.102636
0.102642
0.102652
0.102658
0.102671
0.102677
0.102692
0.102698
0.102716
0.102721
0.102743
0.102747
0.102772
0.103069
0.103071
0.103074
0.103075
0.103082
0.103082
0.103091
0.103093
0.103101
0.103106
0.103113
0.103121
0.103128
0.103139
0.103145
0.103158
0.103165
0.103181
0.103187
0.103207
0.103212
0.103235
0.10324
0.103267
0.103529
0.103532
0.103532
0.103538
0.103538
0.103547
0.103546
0.103557
0.103558
0.103569
0.103573
0.103583
0.10359
0.103601
0.103608
0.103622
0.103629
0.103646
0.103652
0.103672
0.103678
0.103702
0.103708
0.103736
0.103966
0.103968
0.103971
0.103973
0.103979
0.10398
0.103988
0.10399
0.103999
0.104004
0.104013
0.104021
0.104029
0.10404
0.104048
0.104062
0.104069
0.104086
0.104094
0.104114
0.104121
0.104146
0.104151
0.104181
0.104382
0.104384
0.104385
0.10439
0.104391
0.104398
0.1044
0.104409
0.104412
0.104422
0.104427
0.104438
0.104445
0.104457
0.104465
0.104479
0.104487
0.104505
0.104512
0.104533
0.10454
0.104566
0.104572
0.104602
0.104776
0.104778
0.104781
0.104782
0.104788
0.10479
0.104797
0.104801
0.104809
0.104815
0.104823
0.104832
0.10484
0.104852
0.10486
0.104875
0.104884
0.104901
0.10491
0.104931
0.104938
0.104965
0.104971
0.105002
0.10515
0.105153
0.105153
0.105158
0.105159
0.105167
0.105169
0.105177
0.105182
0.105191
0.105197
0.105207
0.105215
0.105227
0.105236
0.10525
0.105259
0.105277
0.105286
0.105308
0.105315
0.105342
0.105348
0.10538
0.105506
0.105507
0.10551
0.105511
0.105517
0.105519
0.105526
0.105531
0.105538
0.105545
0.105553
0.105563
0.105571
0.105583
0.105591
0.105607
0.105616
0.105634
0.105643
0.105664
0.105672
0.105699
0.105706
0.105739
0.105843
0.105845
0.105845
0.105851
0.105851
0.105859
0.105861
0.105869
0.105874
0.105883
0.105889
0.1059
0.105908
0.10592
0.105929
0.105944
0.105953