/*--------------------------------*- C++ -*----------------------------------*\
  =========                 |
  \\      /  F ield         | OpenFOAM: The Open Source CFD Toolbox
   \\    /   O peration     | Website:  https://openfoam.org
    \\  /    A nd           | Version:  10
     \\/     M anipulation  |
\*---------------------------------------------------------------------------*/
FoamFile
{
    format      ascii;
    class       volScalarField;
    location    "0.45";
    object      T;
}
// * * * * * * * * * * * * * * * * * * * * * * * * * * * * * * * * * * * * * //

dimensions      [0 0 0 1 0 0 0];

internalField   nonuniform List<scalar> 
4176
(
180.347
180.351
180.373
180.382
180.426
180.444
180.507
180.537
180.614
180.66
180.749
180.809
180.913
180.985
181.102
181.191
181.307
181.43
181.535
181.702
181.777
182.01
182.023
182.327
180.356
180.36
180.382
180.392
180.437
180.456
180.519
180.552
180.628
180.677
180.767
180.829
180.935
181.01
181.129
181.22
181.339
181.464
181.572
181.743
181.819
182.062
182.078
182.412
180.384
180.388
180.41
180.42
180.463
180.482
180.543
180.575
180.649
180.698
180.785
180.846
180.95
181.022
181.14
181.228
181.347
181.467
181.573
181.739
181.811
182.049
182.065
182.409
180.436
180.44
180.461
180.471
180.514
180.534
180.594
180.627
180.701
180.749
180.837
180.897
181.001
181.073
181.192
181.279
181.399
181.522
181.623
181.794
181.863
182.098
182.111
182.44
180.511
180.515
180.536
180.546
180.588
180.607
180.667
180.699
180.772
180.82
180.907
180.966
181.07
181.14
181.259
181.344
181.465
181.585
181.684
181.856
181.924
182.156
182.17
182.488
180.61
180.614
180.635
180.645
180.687
180.706
180.765
180.797
180.869
180.917
181.002
181.062
181.164
181.234
181.352
181.435
181.558
181.673
181.778
181.944
182.015
182.244
182.261
182.578
180.733
180.737
180.757
180.767
180.809
180.828
180.886
180.918
180.989
181.036
181.12
181.18
181.28
181.349
181.466
181.548
181.672
181.781
181.891
182.051
182.123
182.35
182.369
182.684
180.88
180.884
180.904
180.914
180.955
180.974
181.031
181.063
181.133
181.18
181.263
181.321
181.421
181.489
181.605
181.685
181.808
181.914
182.026
182.18
182.255
182.478
182.498
182.809
181.05
181.055
181.075
181.084
181.125
181.143
181.2
181.231
181.3
181.347
181.428
181.486
181.584
181.651
181.766
181.844
181.967
182.069
182.182
182.332
182.408
182.627
182.649
182.955
181.245
181.249
181.269
181.278
181.318
181.336
181.392
181.423
181.491
181.537
181.617
181.674
181.771
181.837
181.95
182.027
182.149
182.248
182.362
182.506
182.583
182.799
182.821
183.122
181.463
181.467
181.487
181.496
181.535
181.553
181.609
181.638
181.706
181.751
181.83
181.886
181.981
182.046
182.157
182.232
182.353
182.449
182.563
182.702
182.784
182.989
183.015
183.311
181.705
181.709
181.728
181.737
181.776
181.794
181.848
181.877
181.944
181.988
182.066
182.121
182.215
182.277
182.388
182.461
182.58
182.673
182.787
182.922
183.003
183.205
183.23
183.52
181.971
181.975
181.994
182.002
182.041
182.058
182.112
182.14
182.205
182.248
182.325
182.379
182.471
182.532
182.641
182.712
182.83
182.92
183.034
183.163
183.245
183.441
183.467
183.752
182.26
182.264
182.283
182.291
182.329
182.345
182.398
182.426
182.49
182.532
182.608
182.66
182.751
182.81
182.917
182.986
183.102
183.189
183.303
183.427
183.51
183.699
183.725
184.004
182.573
182.577
182.596
182.604
182.641
182.656
182.709
182.735
182.798
182.839
182.913
182.964
183.053
183.111
183.216
183.283
183.397
183.481
183.594
183.713
183.796
183.98
184.006
184.278
182.91
182.914
182.932
182.94
182.976
182.991
183.043
183.068
183.13
183.17
183.242
183.292
183.379
183.435
183.538
183.602
183.715
183.796
183.907
184.021
184.106
184.282
184.308
184.574
183.271
183.274
183.292
183.299
183.336
183.35
183.4
183.425
183.485
183.524
183.594
183.642
183.728
183.782
183.883
183.945
184.055
184.133
184.242
184.352
184.435
184.607
184.633
184.891
183.655
183.659
183.676
183.683
183.718
183.732
183.781
183.805
183.864
183.901
183.97
184.016
184.099
184.152
184.25
184.31
184.418
184.492
184.6
184.704
184.789
184.952
184.979
185.231
184.063
184.067
184.084
184.09
184.125
184.137
184.186
184.208
184.266
184.301
184.368
184.413
184.494
184.544
184.64
184.697
184.803
184.874
184.98
185.079
185.163
185.32
185.348
185.591
184.495
184.498
184.515
184.521
184.555
184.567
184.614
184.635
184.691
184.725
184.79
184.833
184.911
184.96
185.053
185.108
185.21
185.279
185.382
185.476
185.56
185.71
185.738
185.974
184.95
184.954
184.97
184.975
185.008
185.019
185.065
185.085
185.14
185.172
185.235
185.276
185.352
185.398
185.488
185.54
185.64
185.705
185.806
185.896
185.978
186.122
186.15
186.378
185.429
185.433
185.449
185.453
185.486
185.495
185.54
185.559
185.612
185.642
185.704
185.742
185.816
185.859
185.947
185.996
186.093
186.154
186.252
186.337
186.419
186.555
186.583
186.803
185.932
185.935
185.951
185.955
185.986
185.995
186.038
186.056
186.107
186.136
186.195
186.231
186.302
186.343
186.428
186.474
186.568
186.626
186.721
186.801
186.881
187.011
187.038
187.25
186.458
186.461
186.477
186.48
186.511
186.518
186.56
186.576
186.625
186.652
186.709
186.743
186.812
186.85
186.932
186.975
187.065
187.12
187.212
187.287
187.365
187.488
187.515
187.719
187.008
187.011
187.026
187.028
187.058
187.065
187.105
187.119
187.167
187.192
187.246
187.278
187.344
187.379
187.458
187.498
187.586
187.636
187.725
187.795
187.872
187.987
188.014
188.209
187.581
187.583
187.598
187.6
187.629
187.634
187.673
187.686
187.732
187.754
187.807
187.836
187.899
187.932
188.008
188.044
188.128
188.175
188.261
188.326
188.4
188.509
188.534
188.722
188.177
188.179
188.193
188.195
188.223
188.227
188.265
188.276
188.319
188.34
188.39
188.416
188.477
188.507
188.58
188.613
188.693
188.736
188.818
188.879
188.95
189.052
189.076
189.256
188.796
188.798
188.812
188.812
188.839
188.842
188.879
188.888
188.93
188.948
188.996
189.02
189.078
189.104
189.174
189.204
189.281
189.32
189.398
189.454
189.523
189.617
189.639
189.812
189.438
189.44
189.453
189.453
189.479
189.481
189.516
189.523
189.563
189.58
189.625
189.646
189.701
189.724
189.791
189.817
189.89
189.926
190.001
190.052
190.117
190.205
190.224
190.391
190.102
190.104
190.117
190.116
190.141
190.142
190.175
190.181
190.219
190.233
190.276
190.295
190.347
190.367
190.43
190.453
190.523
190.554
190.625
190.671
190.734
190.814
190.834
190.989
190.789
190.791
190.803
190.802
190.826
190.825
190.857
190.862
190.898
190.91
190.95
190.966
191.015
191.032
191.092
191.111
191.177
191.204
191.272
191.313
191.371
191.446
191.465
191.609
191.498
191.5
191.512
191.51
191.533
191.531
191.562
191.564
191.598
191.608
191.646
191.659
191.706
191.72
191.776
191.792
191.854
191.877
191.94
191.977
192.032
192.099
192.115
192.253
192.23
192.231
192.243
192.24
192.262
192.259
192.288
192.289
192.321
192.329
192.364
192.375
192.419
192.429
192.483
192.494
192.553
192.572
192.631
192.663
192.713
192.775
192.79
192.917
192.983
192.984
192.995
192.992
193.013
193.009
193.037
193.036
193.066
193.071
193.105
193.113
193.154
193.161
193.211
193.219
193.275
193.289
193.345
193.371
193.418
193.473
193.486
193.604
193.757
193.759
193.769
193.765
193.786
193.78
193.807
193.804
193.833
193.836
193.867
193.872
193.91
193.915
193.962
193.966
194.018
194.028
194.08
194.102
194.144
194.193
194.204
194.313
194.554
194.555
194.565
194.56
194.58
194.573
194.599
194.594
194.621
194.622
194.651
194.653
194.689
194.69
194.734
194.735
194.783
194.789
194.837
194.854
194.892
194.935
194.944
195.043
195.371
195.372
195.382
195.377
195.396
195.388
195.412
195.406
195.431
195.43
195.456
195.456
195.489
195.487
195.528
195.525
195.57
195.572
195.616
195.628
195.662
195.7
195.705
195.795
196.21
196.211
196.22
196.214
196.232
196.223
196.246
196.238
196.261
196.258
196.283
196.28
196.31
196.305
196.343
196.337
196.378
196.376
196.417
196.424
196.455
196.486
196.488
196.569
197.069
197.07
197.079
197.072
197.09
197.08
197.101
197.092
197.113
197.108
197.13
197.125
197.153
197.145
197.179
197.17
197.208
197.201
197.238
197.24
197.268
197.293
197.293
197.365
197.949
197.95
197.959
197.951
197.968
197.957
197.977
197.966
197.986
197.979
197.999
197.992
198.017
198.005
198.037
198.024
198.059
198.048
198.082
198.078
198.103
198.122
198.119
198.182
198.849
198.85
198.858
198.851
198.866
198.854
198.873
198.861
198.879
198.87
198.888
198.878
198.901
198.887
198.915
198.899
198.931
198.915
198.946
198.937
198.959
198.972
198.966
199.021
199.77
199.771
199.779
199.77
199.785
199.772
199.79
199.776
199.793
199.782
199.798
199.786
199.806
199.789
199.815
199.795
199.823
199.803
199.831
199.817
199.835
199.842
199.833
199.882
200.711
200.712
200.719
200.71
200.724
200.71
200.727
200.712
200.727
200.714
200.728
200.713
200.731
200.711
200.734
200.711
200.737
200.712
200.737
200.718
200.733
200.734
200.722
200.762
201.672
201.672
201.679
201.669
201.683
201.668
201.683
201.667
201.68
201.666
201.677
201.661
201.676
201.654
201.674
201.647
201.67
201.641
201.664
201.639
201.652
201.646
201.632
201.663
202.652
202.652
202.659
202.649
202.661
202.645
202.66
202.642
202.654
202.637
202.647
202.628
202.641
202.616
202.633
202.603
202.623
202.591
202.611
202.58
202.591
202.578
202.562
202.585
203.651
203.652
203.658
203.647
203.659
203.642
203.655
203.636
203.646
203.628
203.636
203.615
203.625
203.597
203.612
203.579
203.596
203.559
203.577
203.541
203.55
203.531
203.513
203.528
204.67
204.67
204.676
204.665
204.676
204.658
204.67
204.649
204.658
204.638
204.644
204.621
204.629
204.598
204.61
204.574
204.588
204.547
204.562
204.522
204.529
204.503
204.484
204.49
205.707
205.707
205.713
205.701
205.711
205.692
205.703
205.681
205.688
205.667
205.67
205.645
205.651
205.617
205.628
205.588
205.6
205.554
205.567
205.522
205.526
205.494
205.474
205.471
206.763
206.762
206.768
206.755
206.765
206.745
206.755
206.731
206.737
206.714
206.716
206.688
206.692
206.655
206.663
206.62
206.63
206.58
206.591
206.54
206.543
206.501
206.486
206.472
207.836
207.836
207.841
207.827
207.837
207.816
207.824
207.8
207.804
207.779
207.779
207.749
207.751
207.712
207.717
207.67
207.678
207.624
207.633
207.577
207.578
207.53
207.514
207.492
208.926
208.926
208.931
208.917
208.925
208.904
208.911
208.885
208.888
208.861
208.859
208.828
208.827
208.786
208.789
208.739
208.745
208.687
208.693
208.632
208.632
208.576
208.56
208.53
210.033
210.033
210.037
210.023
210.031
210.008
210.015
209.988
209.989
209.961
209.957
209.923
209.921
209.877
209.879
209.824
209.829
209.767
209.771
209.702
209.707
209.641
209.625
209.586
211.156
211.156
211.16
211.146
211.153
211.129
211.135
211.107
211.107
211.077
211.072
211.035
211.032
210.984
210.985
210.926
210.931
210.863
210.867
210.792
210.796
210.724
210.707
210.661
212.295
212.294
212.299
212.283
212.29
212.266
212.27
212.241
212.24
212.208
212.202
212.164
212.159
212.108
212.108
212.044
212.05
211.973
211.983
211.899
211.901
211.824
211.807
211.753
213.448
213.448
213.452
213.436
213.442
213.417
213.421
213.391
213.388
213.355
213.348
213.307
213.302
213.248
213.247
213.178
213.185
213.103
213.111
213.023
213.025
212.942
212.923
212.863
214.616
214.615
214.619
214.603
214.608
214.583
214.586
214.555
214.551
214.517
214.509
214.465
214.46
214.402
214.402
214.329
214.334
214.249
214.255
214.164
214.163
214.076
214.056
213.989
215.796
215.796
215.799
215.783
215.788
215.762
215.764
215.732
215.728
215.692
215.684
215.637
215.633
215.569
215.572
215.494
215.499
215.409
215.415
215.32
215.318
215.226
215.205
215.132
216.99
216.989
216.992
216.976
216.981
216.954
216.956
216.923
216.919
216.88
216.872
216.822
216.818
216.753
216.753
216.674
216.677
216.586
216.588
216.491
216.487
216.391
216.37
216.29
218.195
218.195
218.197
218.182
218.185
218.159
218.159
218.125
218.121
218.081
218.073
218.022
218.016
217.95
217.948
217.869
217.869
217.775
217.778
217.676
217.671
217.571
217.549
217.464
219.411
219.411
219.413
219.398
219.401
219.375
219.374
219.341
219.335
219.294
219.285
219.233
219.226
219.159
219.156
219.075
219.074
218.979
218.979
218.876
218.869
218.766
218.743
218.652
220.638
220.638
220.64
220.624
220.627
220.601
220.6
220.567
220.559
220.519
220.509
220.457
220.448
220.381
220.375
220.295
220.291
220.195
220.194
220.088
220.08
219.974
219.95
219.855
221.875
221.875
221.877
221.861
221.864
221.837
221.836
221.803
221.794
221.755
221.742
221.691
221.68
221.614
221.606
221.525
221.52
221.423
221.42
221.312
221.303
221.194
221.17
221.07
223.121
223.121
223.124
223.107
223.11
223.083
223.081
223.049
223.038
223.001
222.986
222.936
222.923
222.857
222.848
222.766
222.76
222.662
222.658
222.548
222.538
222.427
222.402
222.298
224.377
224.377
224.379
224.363
224.365
224.339
224.336
224.304
224.292
224.256
224.239
224.19
224.176
224.109
224.1
224.017
224.01
223.912
223.906
223.795
223.784
223.67
223.646
223.538
225.641
225.641
225.643
225.626
225.629
225.602
225.6
225.568
225.555
225.52
225.501
225.453
225.437
225.371
225.361
225.277
225.269
225.17
225.163
225.052
225.04
224.924
224.899
224.788
226.913
226.913
226.915
226.899
226.902
226.875
226.872
226.84
226.827
226.792
226.772
226.725
226.707
226.642
226.631
226.545
226.536
226.438
226.429
226.317
226.304
226.186
226.162
226.047
228.193
228.193
228.196
228.179
228.182
228.155
228.152
228.12
228.106
228.072
228.05
228.004
227.985
227.919
227.908
227.82
227.812
227.712
227.703
227.591
227.577
227.457
227.432
227.316
229.481
229.481
229.484
229.467
229.47
229.443
229.439
229.407
229.393
229.358
229.335
229.29
229.269
229.204
229.192
229.103
229.095
228.994
228.983
228.871
228.855
228.736
228.711
228.592
230.777
230.777
230.779
230.763
230.765
230.737
230.734
230.701
230.686
230.651
230.627
230.582
230.559
230.494
230.482
230.392
230.383
230.281
230.27
230.158
230.142
230.021
229.995
229.874
232.079
232.079
232.081
232.064
232.066
232.038
232.034
232.001
231.985
231.95
231.924
231.88
231.855
231.791
231.775
231.687
231.678
231.574
231.562
231.45
231.432
231.312
231.286
231.164
233.386
233.387
233.389
233.371
233.373
233.344
233.339
233.305
233.289
233.253
233.226
233.182
233.155
233.092
233.071
232.988
232.976
232.87
232.86
232.746
232.729
232.608
232.582
232.459
234.697
234.697
234.699
234.681
234.683
234.653
234.648
234.613
234.596
234.56
234.531
234.488
234.458
234.397
234.374
234.291
234.278
234.172
234.162
234.046
234.03
233.909
233.883
233.759
236.008
236.008
236.01
235.992
235.993
235.963
235.958
235.923
235.905
235.869
235.839
235.796
235.764
235.705
235.679
235.599
235.579
235.481
235.47
235.351
235.335
235.215
235.189
235.065
237.316
237.317
237.319
237.301
237.302
237.272
237.267
237.232
237.214
237.178
237.149
237.106
237.073
237.016
236.987
236.91
236.889
236.791
236.78
236.66
236.646
236.526
236.5
236.377
238.619
238.619
238.622
238.604
238.607
238.577
238.573
238.539
238.522
238.487
238.458
238.417
238.384
238.329
238.299
238.225
238.201
238.106
238.093
237.975
237.961
237.841
237.817
237.694
239.914
239.914
239.918
239.9
239.904
239.876
239.874
239.841
239.826
239.793
239.766
239.727
239.695
239.643
239.612
239.542
239.517
239.426
239.407
239.3
239.282
239.162
239.139
239.017
241.2
241.201
241.205
241.189
241.195
241.169
241.168
241.138
241.126
241.096
241.071
241.036
241.006
240.957
240.929
240.862
240.838
240.75
240.732
240.624
240.609
240.49
240.468
240.345
242.481
242.482
242.488
242.473
242.48
242.456
242.458
242.431
242.422
242.395
242.374
242.342
242.316
242.272
242.246
242.184
242.161
242.079
242.061
241.957
241.943
241.824
241.803
241.68
243.762
243.764
243.77
243.757
243.765
243.743
243.747
243.723
243.716
243.693
243.675
243.647
243.625
243.584
243.563
243.504
243.487
243.408
243.394
243.294
243.284
243.165
243.146
243.023
245.053
245.056
245.061
245.049
245.058
245.038
245.042
245.02
245.015
244.994
244.978
244.954
244.933
244.897
244.881
244.823
244.815
244.735
244.731
244.629
244.628
244.512
244.497
244.376
246.364
246.367
246.373
246.361
246.369
246.349
246.353
246.332
246.325
246.306
246.29
246.267
246.247
246.214
246.199
246.142
246.142
246.06
246.063
245.964
245.969
245.856
245.848
245.736
247.708
247.71
247.716
247.702
247.711
247.688
247.692
247.667
247.66
247.637
247.62
247.595
247.574
247.541
247.522
247.47
247.465
247.388
247.392
247.293
247.304
247.192
247.191
247.084
249.094
249.096
249.101
249.085
249.092
249.066
249.067
249.038
249.028
249.001
248.979
248.95
248.923
248.887
248.862
248.81
248.796
248.72
248.723
248.622
248.634
248.519
248.523
248.415
250.529
250.53
250.534
250.517
250.52
250.491
250.488
250.455
250.439
250.406
250.377
250.341
250.307
250.264
250.229
250.172
250.148
250.069
250.064
249.956
249.968
249.844
249.851
249.735
252.014
252.015
252.017
251.999
251.999
251.967
251.959
251.922
251.899
251.861
251.823
251.781
251.736
251.684
251.638
251.571
251.536
251.444
251.429
251.308
251.314
251.177
251.184
251.053
253.546
253.548
253.549
253.529
253.527
253.492
253.481
253.439
253.411
253.367
253.322
253.272
253.218
253.157
253.098
253.022
252.969
252.865
252.836
252.697
252.691
252.533
252.535
252.381
255.119
255.12
255.121
255.099
255.097
255.059
255.047
255
254.97
254.921
254.872
254.815
254.755
254.685
254.617
254.532
254.461
254.353
254.294
254.149
254.117
253.936
253.925
253.735
256.721
256.722
256.724
256.701
256.698
256.659
256.646
256.598
256.566
256.514
256.463
256.403
256.339
256.265
256.19
256.1
256.017
255.906
255.823
255.68
255.613
255.421
255.384
255.148
258.342
258.343
258.344
258.321
258.319
258.28
258.267
258.219
258.187
258.135
258.084
258.023
257.957
257.883
257.806
257.715
257.628
257.517
257.422
257.284
257.191
257.004
256.941
256.669
259.968
259.969
259.972
259.949
259.947
259.909
259.897
259.85
259.819
259.769
259.718
259.659
259.596
259.523
259.447
259.359
259.273
259.165
259.071
258.936
258.844
258.662
258.595
258.326
261.589
261.591
261.594
261.572
261.571
261.534
261.523
261.478
261.449
261.402
261.354
261.298
261.237
261.168
261.096
261.013
260.93
260.828
260.739
260.611
260.528
260.353
260.297
260.051
263.196
263.197
263.201
263.18
263.181
263.146
263.136
263.094
263.067
263.022
262.977
262.926
262.868
262.805
262.736
262.659
262.581
262.487
262.406
262.284
262.21
262.046
261.995
261.77
264.779
264.781
264.785
264.765
264.767
264.734
264.727
264.687
264.662
264.622
264.579
264.533
264.478
264.421
264.357
264.287
264.214
264.129
264.053
263.94
263.873
263.723
263.676
263.469
266.333
266.335
266.34
266.321
266.324
266.293
266.287
266.251
266.228
266.192
266.152
266.111
266.06
266.01
265.948
265.887
265.819
265.741
265.674
265.568
265.508
265.372
265.327
265.14
267.851
267.854
267.859
267.842
267.846
267.817
267.812
267.78
267.759
267.728
267.689
267.655
267.605
267.563
267.504
267.452
267.387
267.32
267.253
267.165
267.105
266.983
266.943
266.774
269.33
269.334
269.339
269.323
269.329
269.301
269.299
269.269
269.25
269.223
269.188
269.158
269.112
269.076
269.021
268.976
268.916
268.856
268.797
268.717
268.662
268.554
268.516
268.365
270.767
270.772
270.778
270.762
270.77
270.743
270.744
270.714
270.7
270.674
270.644
270.617
270.577
270.544
270.495
270.456
270.4
270.351
270.293
270.225
270.172
270.079
270.043
269.909
272.162
272.164
272.172
272.156
272.165
272.14
272.143
272.115
272.105
272.081
272.055
272.031
271.996
271.966
271.923
271.888
271.839
271.795
271.741
271.685
271.638
271.555
271.521
271.404
273.508
273.511
273.519
273.504
273.515
273.49
273.496
273.47
273.462
273.441
273.419
273.397
273.366
273.341
273.303
273.273
273.228
273.192
273.142
273.095
273.05
272.982
272.948
272.847
274.808
274.811
274.819
274.805
274.817
274.794
274.801
274.777
274.771
274.753
274.734
274.715
274.689
274.667
274.633
274.608
274.568
274.538
274.493
274.456
274.411
274.357
274.322
274.238
276.06
276.063
276.072
276.057
276.072
276.048
276.059
276.035
276.033
276.016
276
275.984
275.961
275.943
275.914
275.893
275.858
275.833
275.793
275.762
275.721
275.676
275.647
275.575
277.264
277.267
277.275
277.265
277.274
277.258
277.264
277.247
277.244
277.231
277.217
277.205
277.185
277.17
277.144
277.128
277.097
277.077
277.041
277.018
276.98
276.945
276.918
276.858
278.42
278.422
278.435
278.415
278.441
278.408
278.432
278.403
278.411
278.394
278.386
278.375
278.358
278.347
278.325
278.312
278.285
278.271
278.239
278.221
278.187
278.163
278.134
278.087
279.529
279.533
279.538
279.537
279.535
279.536
279.529
279.528
279.519
279.516
279.504
279.498
279.483
279.475
279.456
279.447
279.424
279.414
279.385
279.374
279.343
279.325
279.3
279.264
280.591
280.591
280.609
280.582
280.62
280.576
280.617
280.577
280.599
280.579
280.58
280.57
280.56
280.555
280.538
280.533
280.513
280.507
280.483
280.475
280.448
280.438
280.412
280.387
281.607
281.612
281.612
281.621
281.607
281.626
281.605
281.622
281.603
281.613
281.599
281.6
281.589
281.587
281.573
281.57
281.554
281.551
281.529
281.529
281.503
281.499
281.475
281.46
282.578
282.577
282.597
282.567
282.611
282.563
282.613
282.567
282.6
282.576
282.585
282.577
282.573
282.571
282.56
282.561
282.547
282.548
282.53
282.531
282.51
282.511
282.489
282.483
283.504
283.51
283.507
283.521
283.504
283.53
283.503
283.53
283.506
283.525
283.51
283.517
283.509
283.512
283.502
283.505
283.494
283.498
283.482
283.489
283.469
283.475
283.456
283.457
284.389
284.387
284.407
284.381
284.42
284.379
284.425
284.385
284.419
284.397
284.41
284.404
284.404
284.407
284.4
284.405
284.396
284.403
284.39
284.399
284.383
284.393
284.375
284.383
285.229
285.236
285.233
285.247
285.233
285.256
285.235
285.261
285.24
285.26
285.248
285.259
285.253
285.26
285.254
285.262
285.255
285.264
285.253
285.266
285.252
285.266
285.25
285.264
286.033
286.032
286.047
286.03
286.058
286.033
286.065
286.04
286.065
286.052
286.064
286.062
286.065
286.07
286.067
286.076
286.071
286.083
286.075
286.09
286.077
286.096
286.08
286.1
286.795
286.801
286.799
286.809
286.802
286.818
286.807
286.825
286.815
286.83
286.825
286.835
286.833
286.842
286.84
286.851
286.848
286.861
286.854
286.872
286.862
286.883
286.868
286.893
287.522
287.522
287.533
287.523
287.542
287.529
287.549
287.539
287.553
287.551
287.558
287.563
287.566
287.575
287.574
287.586
287.585
287.6
287.595
287.615
287.605
287.63
287.617
287.644
288.21
288.216
288.214
288.224
288.219
288.233
288.228
288.239
288.238
288.247
288.249
288.258
288.26
288.271
288.271
288.285
288.284
288.301
288.297
288.318
288.311
288.338
288.326
288.356
288.867
288.867
288.877
288.869
288.886
288.877
288.892
288.89
288.898
288.903
288.907
288.916
288.92
288.931
288.933
288.947
288.948
288.965
288.963
288.987
288.979
289.009
288.997
289.031
289.488
289.493
289.49
289.503
289.494
289.512
289.505
289.519
289.519
289.528
289.532
289.541
289.546
289.557
289.56
289.575
289.577
289.596
289.594
289.619
289.614
289.644
289.63
289.673
290.079
290.08
290.089
290.082
290.099
290.089
290.107
290.102
290.114
290.118
290.125
290.134
290.139
290.152
290.155
290.171
290.173
290.193
290.193
290.219
290.214
290.247
290.237
290.273
290.639
290.644
290.641
290.654
290.645
290.664
290.654
290.673
290.668
290.684
290.685
290.697
290.701
290.715
290.719
290.736
290.739
290.76
290.76
290.786
290.783
290.816
290.809
290.845
291.171
291.172
291.179
291.175
291.189
291.181
291.2
291.193
291.21
291.21
291.221
291.228
291.236
291.248
291.254
291.271
291.274
291.296
291.297
291.325
291.322
291.355
291.348
291.388
291.675
291.678
291.677
291.687
291.682
291.697
291.69
291.709
291.704
291.721
291.721
291.736
291.74
291.755
291.761
291.778
291.782
291.804
291.806
291.834
291.833
291.866
291.859
291.9
292.153
292.154
292.159
292.158
292.168
292.165
292.179
292.176
292.191
292.193
292.204
292.212
292.22
292.233
292.24
292.258
292.262
292.285
292.288
292.316
292.315
292.349
292.342
292.386
292.605
292.608
292.608
292.616
292.614
292.625
292.623
292.637
292.637
292.651
292.654
292.667
292.673
292.687
292.695
292.712
292.718
292.741
292.743
292.772
292.772
292.807
292.801
292.844
293.034
293.035
293.04
293.039
293.049
293.047
293.058
293.06
293.07
293.077
293.085
293.096
293.103
293.117
293.125
293.143
293.148
293.171
293.175
293.204
293.204
293.239
293.233
293.278
293.44
293.444
293.442
293.451
293.447
293.46
293.459
293.471
293.474
293.484
293.491
293.502
293.51
293.524
293.532
293.55
293.556
293.579
293.582
293.612
293.612
293.649
293.643
293.687
293.826
293.826
293.832
293.829
293.84
293.837
293.849
293.851
293.86
293.868
293.876
293.887
293.895
293.909
293.917
293.936
293.941
293.964
293.969
293.998
293.999
294.035
294.029
294.074
294.19
294.192
294.192
294.199
294.197
294.209
294.208
294.22
294.222
294.234
294.239
294.252
294.259
294.274
294.282
294.3
294.306
294.33
294.333
294.363
294.364
294.4
294.394
294.44
294.535
294.536
294.539
294.541
294.546
294.55
294.557
294.561
294.57
294.577
294.585
294.596
294.604
294.619
294.627
294.645
294.651
294.675
294.679
294.708
294.71
294.745
294.741
294.783
294.862
294.863
294.866
294.868
294.873
294.876
294.883
294.889
294.895
294.905
294.911
294.923
294.93
294.945
294.953
294.972
294.978
295.002
295.006
295.034
295.036
295.071
295.066
295.111
295.172
295.174
295.173
295.18
295.178
295.19
295.188
295.2
295.203
295.214
295.22
295.232
295.24
295.254
295.262
295.281
295.286
295.31
295.314
295.343
295.345
295.381
295.376
295.418
295.465
295.465
295.47
295.468
295.478
295.475
295.488
295.487
295.5
295.504
295.514
295.524
295.532
295.547
295.555
295.573
295.579
295.603
295.607
295.635
295.636
295.673
295.668
295.711
295.742
295.745
295.743
295.752
295.747
295.762
295.756
295.773
295.77
295.786
295.788
295.803
295.809
295.824
295.832
295.849
295.856
295.879
295.883
295.911
295.912
295.949
295.945
295.985
296.005
296.005
296.011
296.007
296.02
296.013
296.03
296.025
296.04
296.043
296.054
296.063
296.071
296.085
296.094
296.111
296.118
296.14
296.145
296.173
296.174
296.209
296.205
296.248
296.253
296.257
296.252
296.266
296.255
296.276
296.264
296.286
296.279
296.297
296.298
296.313
296.318
296.333
296.341
296.358
296.365
296.387
296.392
296.419
296.42
296.457
296.454
296.492
296.49
296.488
296.497
296.487
296.507
296.492
296.517
296.506
296.525
296.525
296.537
296.546
296.554
296.568
296.576
296.593
296.599
296.621
296.626
296.653
296.656
296.688
296.686
296.727
296.711
296.716
296.708
296.727
296.709
296.737
296.718
296.746
296.735
296.755
296.754
296.77
296.775
296.79
296.797
296.814
296.821
296.843
296.847
296.874
296.877
296.908
296.907
296.946
296.924
296.921
296.931
296.92
296.942
296.924
296.951
296.937
296.959
296.956
296.97
296.977
296.986
296.999
297.007
297.024
297.03
297.052
297.057
297.083
297.085
297.118
297.116
297.154
297.122
297.127
297.119
297.136
297.12
297.146
297.128
297.155
297.144
297.165
297.163
297.179
297.184
297.198
297.205
297.222
297.228
297.25
297.254
297.281
297.284
297.313
297.313
297.35
297.312
297.31
297.319
297.309
297.328
297.314
297.337
297.327
297.345
297.345
297.356
297.365
297.372
297.386
297.393
297.41
297.416
297.437
297.442
297.467
297.468
297.501
297.499
297.536
297.49
297.494
297.487
297.503
297.489
297.512
297.498
297.52
297.513
297.53
297.53
297.545
297.549
297.564
297.57
297.587
297.593
297.614
297.616
297.645
297.646
297.676
297.675
297.711
297.66
297.658
297.666
297.659
297.674
297.664
297.682
297.676
297.69
297.693
297.702
297.711
297.718
297.732
297.737
297.755
297.76
297.781
297.785
297.811
297.812
297.843
297.841
297.877
297.819
297.822
297.818
297.829
297.821
297.837
297.83
297.846
297.843
297.857
297.859
297.872
297.877
297.891
297.896
297.914
297.919
297.94
297.944
297.967
297.969
298
297.999
298.033
297.971
297.97
297.975
297.973
297.981
297.979
297.989
297.99
297.998
298.004
298.011
298.021
298.028
298.041
298.046
298.064
298.067
298.09
298.091
298.119
298.119
298.148
298.147
298.181
298.114
298.115
298.114
298.12
298.119
298.127
298.127
298.136
298.138
298.149
298.153
298.164
298.169
298.183
298.188
298.205
298.21
298.231
298.234
298.257
298.258
298.29
298.287
298.321
298.249
298.249
298.252
298.252
298.257
298.259
298.265
298.269
298.274
298.282
298.288
298.298
298.303
298.317
298.322
298.339
298.344
298.363
298.366
298.393
298.393
298.42
298.42
298.452
298.377
298.378
298.378
298.382
298.382
298.389
298.39
298.398
298.401
298.41
298.415
298.426
298.429
298.445
298.448
298.466
298.468
298.491
298.493
298.517
298.516
298.548
298.544
298.577
298.497
298.498
298.5
298.5
298.505
298.507
298.513
298.517
298.522
298.53
298.534
298.546
298.55
298.564
298.567
298.586
298.589
298.609
298.611
298.636
298.637
298.663
298.663
298.694
298.611
298.612
298.613
298.616
298.617
298.623
298.624
298.632
298.635
298.644
298.647
298.659
298.663
298.678
298.68
298.697
298.701
298.722
298.723
298.748
298.747
298.777
298.774
298.805
298.719
298.719
298.721
298.723
298.726
298.729
298.733
298.738
298.742
298.751
298.755
298.766
298.769
298.785
298.786
298.804
298.808
298.828
298.829
298.853
298.854
298.881
298.88
298.909
298.82
298.821
298.822
298.824
298.827
298.83
298.834
298.839
298.843
298.852
298.855
298.867
298.87
298.884
298.887
298.904
298.907
298.927
298.928
298.953
298.952
298.98
298.977
299.008
298.916
298.917
298.916
298.921
298.92
298.928
298.926
298.937
298.937
298.948
298.95
298.962
298.964
298.979
298.982
298.998
299.001
299.022
299.024
299.045
299.047
299.073
299.072
299.1
299.006
299.006
299.009
299.007
299.015
299.013
299.022
299.022
299.03
299.035
299.04
299.051
299.054
299.068
299.071
299.088
299.091
299.108
299.111
299.135
299.134
299.161
299.158
299.188
299.09
299.092
299.089
299.098
299.092
299.105
299.098
299.113
299.109
299.123
299.122
299.136
299.138
299.152
299.155
299.171
299.172
299.193
299.195
299.217
299.218
299.243
299.242
299.269
299.17
299.169
299.173
299.171
299.18
299.175
299.187
299.185
299.194
299.198
299.203
299.213
299.217
299.23
299.233
299.25
299.252
299.27
299.273
299.295
299.294
299.321
299.318
299.347
299.244
299.246
299.243
299.252
299.245
299.259
299.252
299.267
299.262
299.277
299.275
299.289
299.29
299.303
299.307
299.323
299.325
299.345
299.345
299.368
299.367
299.393
299.391
299.418
299.315
299.314
299.318
299.315
299.324
299.32
299.33
299.329
299.338
299.341
299.348
299.357
299.359
299.373
299.376
299.392
299.393
299.412
299.414
299.436
299.436
299.461
299.459
299.486