/*--------------------------------*- C++ -*----------------------------------*\
  =========                 |
  \\      /  F ield         | OpenFOAM: The Open Source CFD Toolbox
   \\    /   O peration     | Website:  https://openfoam.org
    \\  /    A nd           | Version:  10
     \\/     M anipulation  |
\*---------------------------------------------------------------------------*/
FoamFile
{
    format      ascii;
    class       volVectorField;
    location    "0.45";
    object      U;
}
// * * * * * * * * * * * * * * * * * * * * * * * * * * * * * * * * * * * * * //

dimensions      [0 1 -1 0 0 0 0];

internalField   nonuniform List<vector> 
4176
(
(497.488 -0.0140876 -6.94605e-09)
(497.474 0.0636677 2.02504e-09)
(497.45 0.00153336 -6.77916e-10)
(497.4 0.090364 -4.05212e-11)
(497.346 0.0511553 -1.9995e-10)
(497.271 0.0895507 -5.90757e-10)
(497.181 0.125964 -3.08085e-10)
(497.087 0.0604852 3.84973e-10)
(496.954 0.225282 7.61934e-10)
(496.848 0.00479313 7.13355e-10)
(496.672 0.344399 4.46772e-10)
(496.549 -0.0690816 3.18622e-10)
(496.339 0.469856 7.56359e-11)
(496.191 -0.13946 -2.82636e-10)
(495.956 0.567835 -4.14103e-10)
(495.773 -0.135472 -2.61348e-10)
(495.536 0.528538 -1.98379e-10)
(495.286 0.0237584 -1.21125e-11)
(495.073 0.334837 2.97613e-10)
(494.73 0.323092 1.62902e-10)
(494.576 -0.0169779 -1.3651e-10)
(494.097 0.771805 -1.38692e-10)
(494.067 -0.516147 1.61242e-10)
(493.444 1.44219 2.95146e-10)
(497.47 0.00498187 -6.94426e-09)
(497.455 0.114495 2.02514e-09)
(497.431 0.0765792 -6.78114e-10)
(497.379 0.203276 -4.13221e-11)
(497.325 0.186401 -2.00012e-10)
(497.247 0.264269 -5.90357e-10)
(497.156 0.321861 -3.08633e-10)
(497.059 0.295571 3.85076e-10)
(496.925 0.482233 7.6254e-10)
(496.814 0.297917 7.13453e-10)
(496.636 0.662911 4.46212e-10)
(496.508 0.278745 3.18504e-10)
(496.293 0.850442 7.4062e-11)
(496.142 0.258425 -2.8247e-10)
(495.901 1.01253 -4.13863e-10)
(495.713 0.3022 -2.60828e-10)
(495.47 1.04229 -1.99561e-10)
(495.215 0.510808 -1.22549e-11)
(494.996 0.914363 2.96581e-10)
(494.646 0.855245 1.62518e-10)
(494.491 0.628547 -1.36447e-10)
(493.992 1.33094 -1.40998e-10)
(493.956 0.125308 1.62009e-10)
(493.27 1.9924 2.94776e-10)
(497.413 0.0233274 -6.94659e-09)
(497.399 0.161154 2.02423e-09)
(497.375 0.147749 -6.79945e-10)
(497.324 0.307617 -4.03879e-11)
(497.273 0.313995 -2.00334e-10)
(497.194 0.426454 -5.9096e-10)
(497.108 0.505974 -3.05776e-10)
(497.01 0.514797 3.86961e-10)
(496.882 0.722948 7.64502e-10)
(496.772 0.572575 7.13613e-10)
(496.599 0.960687 4.4513e-10)
(496.473 0.606148 3.17551e-10)
(496.263 1.20623 7.5651e-11)
(496.116 0.634009 -2.8232e-10)
(495.877 1.42874 -4.14026e-10)
(495.697 0.713959 -2.5957e-10)
(495.454 1.5228 -2.02301e-10)
(495.209 0.966059 -1.38984e-11)
(494.993 1.45716 2.97212e-10)
(494.653 1.34388 1.62091e-10)
(494.506 1.24782 -1.37377e-10)
(494.016 1.88218 -1.38279e-10)
(493.981 0.838889 1.62351e-10)
(493.271 2.60851 2.95774e-10)
(497.309 0.0420574 -6.94532e-09)
(497.294 0.208661 2.0278e-09)
(497.271 0.220236 -6.80888e-10)
(497.22 0.413933 -3.741e-11)
(497.169 0.443953 -2.01095e-10)
(497.09 0.591804 -5.95187e-10)
(497.004 0.693524 -3.05527e-10)
(496.907 0.738424 3.84569e-10)
(496.777 0.968157 7.57782e-10)
(496.668 0.852883 7.16997e-10)
(496.494 1.26402 4.45921e-10)
(496.37 0.940505 3.15684e-10)
(496.158 1.56891 7.71354e-11)
(496.013 1.01821 -2.838e-10)
(495.771 1.85363 -4.21092e-10)
(495.593 1.13545 -2.60771e-10)
(495.346 2.01725 -1.99896e-10)
(495.097 1.4266 -1.42939e-11)
(494.891 2.00931 2.99463e-10)
(494.54 1.84072 1.61475e-10)
(494.399 1.85844 -1.40167e-10)
(493.915 2.42009 -1.39036e-10)
(493.886 1.52586 1.60643e-10)
(493.206 3.20527 2.86335e-10)
(497.157 0.060384 -6.94753e-09)
(497.143 0.255183 2.03408e-09)
(497.12 0.291144 -6.77087e-10)
(497.069 0.518114 -3.74934e-11)
(497.019 0.571075 -1.97827e-10)
(496.941 0.753966 -5.89687e-10)
(496.856 0.876987 -3.07315e-10)
(496.759 0.957968 3.86895e-10)
(496.632 1.20803 7.63357e-10)
(496.524 1.12836 7.14905e-10)
(496.351 1.5608 4.46002e-10)
(496.229 1.2693 3.18493e-10)
(496.018 1.92418 7.36468e-11)
(495.876 1.39597 -2.84752e-10)
(495.634 2.27135 -4.19122e-10)
(495.461 1.55015 -2.63269e-10)
(495.211 2.5126 -2.01009e-10)
(494.966 1.86977 -1.3541e-11)
(494.764 2.55434 2.93976e-10)
(494.411 2.33855 1.67252e-10)
(494.271 2.453 -1.32429e-10)
(493.793 2.94598 -1.36045e-10)
(493.763 2.16839 1.64288e-10)
(493.103 3.76314 2.97195e-10)
(496.957 0.0787026 -6.96066e-09)
(496.942 0.30141 2.03195e-09)
(496.92 0.361898 -6.75668e-10)
(496.869 0.621709 -4.22355e-11)
(496.819 0.697892 -2.09031e-10)
(496.742 0.915272 -5.94675e-10)
(496.658 1.06002 -3.04685e-10)
(496.561 1.17646 3.83182e-10)
(496.435 1.44732 7.64099e-10)
(496.327 1.40277 7.20303e-10)
(496.157 1.85671 4.46204e-10)
(496.035 1.59726 3.12692e-10)
(495.825 2.27782 7.08557e-11)
(495.684 1.77362 -2.82347e-10)
(495.443 2.68577 -4.22134e-10)
(495.274 1.96911 -2.60679e-10)
(495.018 3.00324 -1.90494e-10)
(494.787 2.31266 -1.06992e-11)
(494.571 3.10388 3.03782e-10)
(494.229 2.83528 1.69388e-10)
(494.084 3.0493 -1.36662e-10)
(493.611 3.47405 -1.46764e-10)
(493.575 2.8152 1.61101e-10)
(492.914 4.32008 2.9753e-10)
(496.708 0.0968439 -6.95976e-09)
(496.693 0.346972 2.02942e-09)
(496.671 0.431861 -6.91882e-10)
(496.62 0.723864 -4.22569e-11)
(496.572 0.823252 -1.94405e-10)
(496.495 1.07436 -5.93784e-10)
(496.412 1.24094 -3.1587e-10)
(496.316 1.39202 3.88063e-10)
(496.192 1.68387 7.70915e-10)
(496.084 1.67367 7.15574e-10)
(495.916 2.14917 4.43299e-10)
(495.795 1.92143 3.23575e-10)
(495.587 2.62708 8.64948e-11)
(495.448 2.14763 -2.80496e-10)
(495.208 3.09411 -4.17711e-10)
(495.043 2.38642 -2.57374e-10)
(494.785 3.48288 -1.99957e-10)
(494.564 2.75734 -1.63547e-11)
(494.338 3.65133 2.98256e-10)
(494.01 3.32013 1.6691e-10)
(493.859 3.64447 -1.38087e-10)
(493.392 4.00165 -1.46821e-10)
(493.352 3.47175 1.6351e-10)
(492.693 4.88235 3.02698e-10)
(496.41 0.114848 -6.97653e-09)
(496.396 0.392069 2.04005e-09)
(496.374 0.501202 -6.71831e-10)
(496.324 0.825 -3.88943e-11)
(496.276 0.947443 -2.07371e-10)
(496.199 1.23185 -5.90883e-10)
(496.118 1.42012 -2.99131e-10)
(496.022 1.60543 3.87214e-10)
(495.9 1.91809 7.53002e-10)
(495.793 1.94196 7.13235e-10)
(495.626 2.4387 4.54167e-10)
(495.506 2.24271 3.17746e-10)
(495.301 2.97273 6.07333e-11)
(495.164 2.51866 -2.89233e-10)
(494.924 3.49793 -4.10697e-10)
(494.763 2.80121 -2.65448e-10)
(494.504 3.95511 -1.96324e-10)
(494.292 3.19962 1.98292e-13)
(494.059 4.19412 3.02088e-10)
(493.742 3.80057 1.52198e-10)
(493.586 4.23776 -1.38299e-10)
(493.127 4.52439 -1.30662e-10)
(493.083 4.12302 1.61094e-10)
(492.431 5.4374 2.79642e-10)
(496.065 0.132671 -6.98987e-09)
(496.051 0.436611 2.02712e-09)
(496.029 0.569761 -6.93932e-10)
(495.979 0.924909 -5.12108e-11)
(495.932 1.07018 -2.07661e-10)
(495.855 1.38741 -5.99272e-10)
(495.775 1.59712 -3.14212e-10)
(495.68 1.81619 3.84526e-10)
(495.559 2.14938 7.60016e-10)
(495.454 2.20696 7.10315e-10)
(495.289 2.72455 4.42316e-10)
(495.17 2.56022 3.16044e-10)
(494.967 3.31391 6.89192e-11)
(494.832 2.88569 -2.88085e-10)
(494.594 3.89632 -4.1746e-10)
(494.436 3.21218 -2.62373e-10)
(494.177 4.41886 -2.00609e-10)
(493.973 3.63893 -1.08634e-11)
(493.735 4.73008 2.98632e-10)
(493.43 4.27436 1.59043e-10)
(493.268 4.8285 -1.40306e-10)
(492.818 5.04241 -1.41692e-10)
(492.77 4.76992 1.62979e-10)
(492.127 5.9858 2.96165e-10)
(495.671 0.150312 -6.97555e-09)
(495.656 0.480607 2.05643e-09)
(495.635 0.637533 -6.75525e-10)
(495.585 1.02361 -2.81869e-11)
(495.539 1.19145 -1.89372e-10)
(495.463 1.54106 -5.82341e-10)
(495.384 1.77194 -2.96992e-10)
(495.29 2.02432 4.02424e-10)
(495.17 2.37771 7.78882e-10)
(495.066 2.46864 7.2723e-10)
(494.903 3.00663 4.60623e-10)
(494.787 2.87383 3.31734e-10)
(494.585 3.6505 8.72132e-11)
(494.452 3.24848 -2.75589e-10)
(494.216 4.28918 -4.03868e-10)
(494.062 3.619 -2.51631e-10)
(493.803 4.87447 -1.86739e-10)
(493.607 4.07452 1.27145e-13)
(493.364 5.25851 3.12508e-10)
(493.071 4.74217 1.70584e-10)
(492.903 5.41435 -1.28221e-10)
(492.464 5.55354 -1.29481e-10)
(492.412 5.41083 1.72589e-10)
(491.779 6.52584 3.05513e-10)
(495.228 0.167741 -6.99849e-09)
(495.214 0.524003 2.04597e-09)
(495.193 0.704422 -6.85653e-10)
(495.143 1.12099 -3.57983e-11)
(495.098 1.31111 -1.9655e-10)
(495.023 1.69265 -5.90364e-10)
(494.945 1.94438 -3.01795e-10)
(494.852 2.22963 4.01295e-10)
(494.734 2.60284 7.77744e-10)
(494.631 2.72671 7.25785e-10)
(494.47 3.28459 4.60899e-10)
(494.355 3.18312 3.34061e-10)
(494.155 3.98204 8.95591e-11)
(494.025 3.60646 -2.74086e-10)
(493.791 4.67602 -3.99301e-10)
(493.641 4.02098 -2.45604e-10)
(493.382 5.32184 -1.79214e-10)
(493.193 4.50583 6.37278e-12)
(492.947 5.77862 3.22957e-10)
(492.666 5.20363 1.81288e-10)
(492.492 5.99341 -1.39965e-10)
(492.065 6.0565 -1.63321e-10)
(492.009 6.04544 1.43567e-10)
(491.387 7.05709 2.74563e-10)
(494.737 0.184938 -7.0094e-09)
(494.723 0.566754 2.04974e-09)
(494.702 0.77035 -6.89465e-10)
(494.653 1.21696 -4.1355e-11)
(494.608 1.42904 -2.0203e-10)
(494.534 1.84206 -5.96514e-10)
(494.457 2.1143 -3.09572e-10)
(494.365 2.43197 3.92096e-10)
(494.249 2.82459 7.6856e-10)
(494.147 2.981 7.1665e-10)
(493.988 3.55825 4.50343e-10)
(493.875 3.48783 3.2464e-10)
(493.678 4.30824 7.82604e-11)
(493.551 3.9592 -2.84065e-10)
(493.318 5.05646 -4.14035e-10)
(493.172 4.4175 -2.5928e-10)
(492.914 5.761 -1.96288e-10)
(492.733 4.93244 -6.93692e-12)
(492.484 6.28968 3.04502e-10)
(492.214 5.65791 1.62769e-10)
(492.035 6.56479 -1.35097e-10)
(491.62 6.55056 -1.33946e-10)
(491.561 6.67247 1.69757e-10)
(490.95 7.57897 3.01282e-10)
(494.197 0.201874 -7.02137e-09)
(494.183 0.608803 2.05048e-09)
(494.163 0.835217 -6.9632e-10)
(494.114 1.31139 -4.73896e-11)
(494.07 1.54507 -2.10801e-10)
(493.997 1.9891 -6.09082e-10)
(493.921 2.28149 -3.23759e-10)
(493.83 2.63112 3.76316e-10)
(493.715 3.04274 7.52537e-10)
(493.616 3.23128 6.98319e-10)
(493.459 3.82734 4.24084e-10)
(493.348 3.78767 2.98328e-10)
(493.152 4.62879 4.49969e-11)
(493.029 4.30628 -2.89903e-10)
(492.798 5.43004 -3.90316e-10)
(492.657 4.80787 -2.41901e-10)
(492.4 6.19182 -1.78111e-10)
(492.225 5.35402 5.51474e-12)
(491.973 6.79114 3.17065e-10)
(491.715 6.10452 1.73034e-10)
(491.532 7.1273 -1.27016e-10)
(491.13 7.03459 -1.28695e-10)
(491.067 7.29089 1.75342e-10)
(490.468 8.09095 3.04698e-10)
(493.608 0.218525 -7.02573e-09)
(493.594 0.650095 2.07607e-09)
(493.574 0.89893 -6.9822e-10)
(493.526 1.40415 -6.67941e-11)
(493.483 1.65905 -2.14321e-10)
(493.41 2.13359 -6.00541e-10)
(493.336 2.44572 -3.02395e-10)
(493.247 2.82687 4.14621e-10)
(493.134 3.25704 7.72925e-10)
(493.036 3.47728 6.99317e-10)
(492.881 4.0916 4.37191e-10)
(492.772 4.08237 3.21586e-10)
(492.579 4.94339 8.6874e-11)
(492.459 4.64735 -2.7106e-10)
(492.23 5.79642 -4.23666e-10)
(492.093 5.19158 -2.82787e-10)
(491.838 6.61389 -2.1441e-10)
(491.67 5.76996 -1.30324e-11)
(491.417 7.28248 3.11361e-10)
(491.17 6.54286 1.78661e-10)
(490.983 7.68045 -1.39473e-10)
(490.594 7.50771 -1.5746e-10)
(490.528 7.89922 1.58787e-10)
(489.942 8.5925 3.02234e-10)
(492.97 0.234867 -7.05348e-09)
(492.956 0.690582 2.03882e-09)
(492.937 0.961402 -6.90465e-10)
(492.889 1.49512 -1.02868e-11)
(492.847 1.77079 -1.89038e-10)
(492.776 2.27533 -5.98145e-10)
(492.703 2.60676 -3.22182e-10)
(492.615 3.01893 3.6981e-10)
(492.504 3.46718 7.71301e-10)
(492.407 3.71871 7.4199e-10)
(492.255 4.35073 4.58111e-10)
(492.149 4.3716 3.15639e-10)
(491.958 5.25176 5.20441e-11)
(491.841 4.98206 -2.9304e-10)
(491.615 6.15525 -3.99789e-10)
(491.482 5.56816 -2.53607e-10)
(491.229 7.02676 -2.04084e-10)
(491.068 6.17955 -2.43092e-11)
(490.814 7.76311 2.70757e-10)
(490.579 6.97264 1.49485e-10)
(490.387 8.22383 -1.26623e-10)
(490.011 7.96907 -1.33116e-10)
(489.944 8.49624 1.59264e-10)
(489.37 9.08309 2.77252e-10)
(492.283 0.250881 -7.05205e-09)
(492.269 0.730218 2.09147e-09)
(492.25 1.02255 -6.98681e-10)
(492.203 1.5842 -7.01395e-11)
(492.162 1.88015 -2.16941e-10)
(492.092 2.4141 -5.99235e-10)
(492.02 2.76435 -2.9397e-10)
(491.934 3.207 4.24332e-10)
(491.825 3.67284 7.76686e-10)
(491.73 3.95519 7.01895e-10)
(491.58 4.60434 4.44054e-10)
(491.477 4.65499 3.29266e-10)
(491.289 5.55354 9.60534e-11)
(491.175 5.31005 -2.9701e-10)
(490.952 6.50622 -4.56521e-10)
(490.824 5.93718 -2.78974e-10)
(490.573 7.43008 -2.04335e-10)
(490.419 6.58196 6.88644e-13)
(490.164 8.23226 3.26828e-10)
(489.94 7.39361 1.55922e-10)
(489.745 8.75677 -1.65722e-10)
(489.384 8.41835 -1.46244e-10)
(489.312 9.08135 1.72982e-10)
(488.753 9.562 3.15176e-10)
(491.546 0.266543 -7.08125e-09)
(491.533 0.768957 2.05752e-09)
(491.514 1.0823 -7.18252e-10)
(491.468 1.67126 -7.41051e-11)
(491.428 1.98696 -2.06758e-10)
(491.358 2.54973 -5.7338e-10)
(491.289 2.91823 -2.90141e-10)
(491.204 3.3908 4.07141e-10)
(491.097 3.87366 7.74904e-10)
(491.005 4.18634 7.1404e-10)
(490.858 4.85204 4.33023e-10)
(490.757 4.9321 2.97555e-10)
(490.572 5.84832 7.62241e-11)
(490.461 5.63089 -2.66879e-10)
(490.242 6.84898 -4.06229e-10)
(490.118 6.29825 -2.55583e-10)
(489.87 7.82357 -2.00636e-10)
(489.722 6.97634 -1.5596e-11)
(489.468 8.68912 2.84787e-10)
(489.255 7.80542 1.32694e-10)
(489.057 9.27775 -1.77476e-10)
(488.71 8.85624 -1.42931e-10)
(488.634 9.655 1.91275e-10)
(488.091 10.0279 3.12314e-10)
(490.76 0.28183 -7.0888e-09)
(490.746 0.806747 2.08604e-09)
(490.728 1.14057 -6.85999e-10)
(490.683 1.75619 -1.9653e-11)
(490.644 2.09108 -1.83986e-10)
(490.576 2.68201 -5.78627e-10)
(490.508 3.06817 -2.82292e-10)
(490.425 3.57003 4.32655e-10)
(490.32 4.0693 8.1702e-10)
(490.23 4.41176 7.26978e-10)
(490.086 5.09337 4.17243e-10)
(489.988 5.20244 2.94045e-10)
(489.806 6.13561 4.29785e-11)
(489.7 5.94409 -3.19182e-10)
(489.483 7.1831 -4.48734e-10)
(489.364 6.65093 -2.80828e-10)
(489.119 8.207 -2.17616e-10)
(488.978 7.36196 -1.89015e-11)
(488.724 9.13302 2.98095e-10)
(488.524 8.20779 1.61022e-10)
(488.322 9.78635 -1.34089e-10)
(487.99 9.28228 -1.28535e-10)
(487.91 10.2164 1.80526e-10)
(487.382 10.4804 3.16775e-10)
(489.924 0.296713 -7.11161e-09)
(489.91 0.843524 2.07722e-09)
(489.893 1.19724 -7.08215e-10)
(489.848 1.83886 -4.6072e-11)
(489.81 2.19231 -2.17307e-10)
(489.743 2.81073 -6.22765e-10)
(489.677 3.21391 -3.28141e-10)
(489.596 3.74441 3.84024e-10)
(489.494 4.25941 7.60188e-10)
(489.407 4.63107 7.03813e-10)
(489.265 5.3279 4.30536e-10)
(489.171 5.46553 2.98375e-10)
(488.992 6.4149 3.83581e-11)
(488.89 6.24909 -3.27991e-10)
(488.677 7.50804 -4.6724e-10)
(488.563 6.99468 -3.03776e-10)
(488.32 8.57991 -2.0492e-10)
(488.186 7.7383 2.21484e-11)
(487.934 9.56351 3.38244e-10)
(487.745 8.6003 1.87251e-10)
(487.541 10.2821 -1.13451e-10)
(487.224 9.69616 -1.17232e-10)
(487.14 10.7648 1.89153e-10)
(486.628 10.9189 3.21449e-10)
(489.037 0.311158 -7.14456e-09)
(489.024 0.879211 2.09312e-09)
(489.007 1.2522 -6.80819e-10)
(488.963 1.91908 -4.13337e-11)
(488.926 2.29046 -1.92105e-10)
(488.861 2.93566 -5.74518e-10)
(488.797 3.35519 -3.06419e-10)
(488.718 3.91364 3.81349e-10)
(488.618 4.44368 7.79964e-10)
(488.534 4.84389 7.44017e-10)
(488.395 5.55521 4.44575e-10)
(488.305 5.72088 3.28192e-10)
(488.13 6.68566 8.79799e-11)
(488.031 6.5453 -3.08642e-10)
(487.822 7.82324 -4.2264e-10)
(487.714 7.32886 -2.44204e-10)
(487.474 8.94176 -2.09862e-10)
(487.347 8.10479 -4.01017e-11)
(487.097 9.98021 2.88937e-10)
(486.919 8.98255 1.60206e-10)
(486.712 10.7644 -1.67004e-10)
(486.411 10.0976 -1.45242e-10)
(486.322 11.2997 1.77183e-10)
(485.828 11.343 2.85303e-10)
(488.1 0.325125 -7.14235e-09)
(488.087 0.913718 2.10976e-09)
(488.071 1.30531 -6.83074e-10)
(488.028 1.99669 -7.02592e-12)
(487.992 2.38531 -1.74492e-10)
(487.929 3.05655 -6.13657e-10)
(487.866 3.49172 -3.52338e-10)
(487.79 4.07742 3.73878e-10)
(487.693 4.62176 7.63687e-10)
(487.611 5.04989 7.14079e-10)
(487.476 5.77491 4.45184e-10)
(487.389 5.96808 3.24159e-10)
(487.218 6.94743 7.8352e-11)
(487.124 6.83215 -2.83975e-10)
(486.919 8.1281 -4.047e-10)
(486.816 7.65281 -2.40258e-10)
(486.58 9.29197 -1.71795e-10)
(486.46 8.46075 -1.53718e-11)
(486.212 10.3827 2.61148e-10)
(486.046 9.35416 1.27775e-10)
(485.837 11.2326 -1.67543e-10)
(485.551 10.4861 -1.579e-10)
(485.458 11.8206 1.51182e-10)
(484.981 11.7524 2.94621e-10)
(487.113 0.338573 -7.18042e-09)
(487.1 0.946953 2.06771e-09)
(487.084 1.3564 -7.0859e-10)
(487.042 2.07148 -6.84869e-12)
(487.008 2.4766 -1.98565e-10)
(486.946 3.17311 -6.15187e-10)
(486.886 3.62321 -3.28784e-10)
(486.812 4.23544 4.1907e-10)
(486.718 4.79334 8.28907e-10)
(486.639 5.24871 7.53467e-10)
(486.507 5.98664 4.60495e-10)
(486.424 6.20671 3.10827e-10)
(486.257 7.19974 3.37695e-11)
(486.167 7.10916 -3.07539e-10)
(485.966 8.42207 -4.10698e-10)
(485.87 7.96586 -2.62371e-10)
(485.638 9.6299 -2.16953e-10)
(485.525 8.80536 -3.66986e-11)
(485.281 10.7707 3.0673e-10)
(485.125 9.71477 1.83271e-10)
(484.914 11.6859 -1.34059e-10)
(484.644 10.8614 -1.49467e-10)
(484.548 12.327 1.37832e-10)
(484.089 12.1466 2.99868e-10)
(486.075 0.351466 -7.20376e-09)
(486.062 0.978831 2.07446e-09)
(486.047 1.40536 -7.11082e-10)
(486.006 2.14326 -1.3955e-12)
(485.973 2.56411 -1.89235e-10)
(485.913 3.28508 -6.11387e-10)
(485.855 3.74934 -3.28998e-10)
(485.784 4.38736 3.7084e-10)
(485.692 4.95805 7.81384e-10)
(485.617 5.43999 7.60164e-10)
(485.489 6.19002 4.71378e-10)
(485.409 6.4364 3.20882e-10)
(485.246 7.44221 4.3713e-11)
(485.162 7.37586 -2.99415e-10)
(484.965 8.70467 -4.01368e-10)
(484.874 8.26743 -2.58036e-10)
(484.648 9.9549 -2.12098e-10)
(484.542 9.13776 -2.75718e-11)
(484.301 11.1439 3.17879e-10)
(484.156 10.064 1.92438e-10)
(483.944 12.1232 -1.2437e-10)
(483.691 11.2229 -1.4073e-10)
(483.59 12.8183 1.53065e-10)
(483.15 12.5252 2.73202e-10)
(484.985 0.363771 -7.23265e-09)
(484.973 1.00928 2.12162e-09)
(484.958 1.45205 -6.88287e-10)
(484.919 2.21187 -4.50791e-11)
(484.888 2.64762 -2.45714e-10)
(484.829 3.3922 -6.29082e-10)
(484.774 3.8698 -3.03527e-10)
(484.705 4.53285 3.88436e-10)
(484.617 5.11553 7.89001e-10)
(484.545 5.62337 7.51877e-10)
(484.421 6.38466 4.46016e-10)
(484.345 6.65676 3.3631e-10)
(484.186 7.67442 1.01822e-10)
(484.107 7.63185 -3.0547e-10)
(483.915 8.97547 -4.71865e-10)
(483.83 8.55701 -2.82125e-10)
(483.608 10.2665 -1.96298e-10)
(483.51 9.45727 -2.27195e-11)
(483.273 11.5016 3.13379e-10)
(483.138 10.4011 1.78923e-10)
(482.927 12.5437 -1.51139e-10)
(482.689 11.5697 -1.26951e-10)
(482.585 13.2935 2.04581e-10)
(482.164 12.8878 3.07259e-10)
(483.845 0.375466 -7.22365e-09)
(483.833 1.03824 2.15248e-09)
(483.819 1.49639 -6.75318e-10)
(483.78 2.27717 -3.37018e-11)
(483.751 2.72694 -2.41257e-10)
(483.695 3.49424 -6.3107e-10)
(483.642 3.98432 -3.09016e-10)
(483.575 4.67159 4.33647e-10)
(483.491 5.26542 8.29366e-10)
(483.422 5.79845 7.32861e-10)
(483.302 6.57015 4.19597e-10)
(483.231 6.86739 3.05849e-10)
(483.077 7.89599 6.3324e-11)
(483.002 7.87673 -2.96674e-10)
(482.815 9.23407 -4.1238e-10)
(482.737 8.83419 -2.33097e-10)
(482.519 10.5642 -2.07485e-10)
(482.43 9.76336 -4.18175e-11)
(482.196 11.8435 2.86599e-10)
(482.072 10.7256 1.50616e-10)
(481.861 12.9466 -1.35346e-10)
(481.64 11.901 -1.1743e-10)
(481.534 13.7513 2.1072e-10)
(481.132 13.2338 3.08083e-10)
(482.654 0.386536 -7.24119e-09)
(482.641 1.06569 2.12924e-09)
(482.629 1.53832 -7.37233e-10)
(482.591 2.33908 -2.1821e-11)
(482.563 2.80195 -2.15105e-10)
(482.509 3.59101 -6.38664e-10)
(482.459 4.09267 -2.92785e-10)
(482.395 4.80329 4.13617e-10)
(482.314 5.40737 7.71203e-10)
(482.249 5.96486 7.51218e-10)
(482.133 6.7461 4.59563e-10)
(482.066 7.06786 3.06368e-10)
(481.917 8.10648 8.56142e-11)
(481.848 8.11009 -3.0835e-10)
(481.666 9.48006 -4.65037e-10)
(481.594 9.09854 -2.63934e-10)
(481.382 10.8476 -2.18989e-10)
(481.3 10.0555 -3.16731e-11)
(481.071 12.169 3.16354e-10)
(480.958 11.0367 1.45887e-10)
(480.748 13.3314 -1.75637e-10)
(480.543 12.2159 -1.37373e-10)
(480.434 14.1905 1.51489e-10)
(480.052 13.5625 2.73679e-10)
(481.411 0.396968 -7.32348e-09)
(481.399 1.09159 2.11161e-09)
(481.387 1.57779 -7.40103e-10)
(481.351 2.39751 -5.15839e-11)
(481.325 2.87255 -2.15651e-10)
(481.272 3.68239 -6.17413e-10)
(481.225 4.19467 -3.04232e-10)
(481.164 4.92773 4.33161e-10)
(481.086 5.54111 8.19666e-10)
(481.025 6.12225 7.64578e-10)
(480.913 6.91208 4.95169e-10)
(480.852 7.25776 3.12454e-10)
(480.707 8.30544 5.62652e-11)
(480.644 8.3315 -3.15214e-10)
(480.467 9.71303 -4.43153e-10)
(480.401 9.34968 -2.69489e-10)
(480.194 11.1164 -2.01725e-10)
(480.121 10.3334 4.65198e-12)
(479.896 12.4778 3.29295e-10)
(479.794 11.3337 1.76474e-10)
(479.585 13.6974 -1.76365e-10)
(479.397 12.5143 -1.62969e-10)
(479.286 14.6105 1.52474e-10)
(478.924 13.8737 2.90177e-10)
(480.117 0.406754 -7.30695e-09)
(480.105 1.11592 2.17202e-09)
(480.094 1.61475 -6.85913e-10)
(480.059 2.45242 -3.92067e-11)
(480.035 2.93866 -2.50692e-10)
(479.984 3.76827 -6.49392e-10)
(479.939 4.29018 -3.21743e-10)
(479.882 5.04472 4.29394e-10)
(479.808 5.66639 8.22509e-10)
(479.75 6.27036 7.78333e-10)
(479.643 7.06778 4.60818e-10)
(479.586 7.4367 2.90201e-10)
(479.446 8.49245 4.39662e-11)
(479.389 8.54049 -3.22153e-10)
(479.217 9.93254 -4.38693e-10)
(479.159 9.58716 -2.53616e-10)
(478.957 11.3702 -1.72008e-10)
(478.892 10.5964 4.21298e-11)
(478.673 12.7697 3.18698e-10)
(478.58 11.6157 1.24492e-10)
(478.375 14.0434 -1.64947e-10)
(478.203 12.7965 -1.42188e-10)
(478.089 15.0121 1.88406e-10)
(477.747 14.1677 3.38993e-10)
(478.772 0.415878 -7.31933e-09)
(478.76 1.13864 2.14747e-09)
(478.75 1.64918 -7.64503e-10)
(478.716 2.50375 -4.5506e-11)
(478.693 3.00021 -1.80913e-10)
(478.645 3.84858 -6.14328e-10)
(478.603 4.37911 -3.3396e-10)
(478.548 5.15416 4.31715e-10)
(478.478 5.78308 7.89552e-10)
(478.424 6.40897 7.03203e-10)
(478.322 7.21292 4.61775e-10)
(478.269 7.60433 3.60707e-10)
(478.135 8.6671 6.83047e-11)
(478.083 8.73663 -3.35009e-10)
(477.918 10.1381 -4.34047e-10)
(477.866 9.81049 -2.31592e-10)
(477.67 11.6085 -1.96993e-10)
(477.613 10.8443 -2.30095e-11)
(477.399 13.0444 3.32708e-10)
(477.317 11.8819 1.51455e-10)
(477.115 14.3683 -1.84295e-10)
(476.96 13.0627 -1.47751e-10)
(476.843 15.394 2.01247e-10)
(476.523 14.4425 3.12828e-10)
(477.375 0.424325 -7.40574e-09)
(477.363 1.15973 2.12859e-09)
(477.354 1.681 -7.55346e-10)
(477.321 2.55142 -5.84173e-11)
(477.301 3.05712 -2.29684e-10)
(477.255 3.92322 -6.41539e-10)
(477.215 4.46136 -3.22268e-10)
(477.164 5.25595 4.2162e-10)
(477.097 5.89105 8.04978e-10)
(477.047 6.53796 7.41802e-10)
(476.949 7.34731 4.69012e-10)
(476.902 7.76044 3.43546e-10)
(476.773 8.82907 8.07879e-11)
(476.727 8.91952 -3.01436e-10)
(476.567 10.3293 -4.29112e-10)
(476.523 10.0192 -2.54726e-10)
(476.333 11.831 -1.90709e-10)
(476.284 11.0766 1.09724e-11)
(476.076 13.3014 3.40649e-10)
(476.005 12.1321 1.84803e-10)
(475.805 14.6717 -1.15226e-10)
(475.668 13.3116 -1.69983e-10)
(475.548 15.7556 1.40034e-10)
(475.25 14.6984 2.85906e-10)
(475.926 0.432078 -7.35756e-09)
(475.915 1.17915 2.20043e-09)
(475.907 1.71017 -7.16062e-10)
(475.875 2.59535 -1.87097e-11)
(475.856 3.10931 -1.99733e-10)
(475.813 3.9921 -6.17808e-10)
(475.776 4.53684 -3.03944e-10)
(475.727 5.35 4.36728e-10)
(475.664 5.99023 8.14508e-10)
(475.619 6.65725 7.44046e-10)
(475.525 7.47086 4.63711e-10)
(475.483 7.90491 3.25892e-10)
(475.359 8.97815 5.5026e-11)
(475.319 9.0889 -3.2691e-10)
(475.166 10.5056 -4.69315e-10)
(475.128 10.2128 -3.02025e-10)
(474.945 12.037 -2.43229e-10)
(474.905 11.2926 2.28493e-11)
(474.702 13.5405 3.42541e-10)
(474.642 12.3657 1.74082e-10)
(474.446 14.9531 -1.28422e-10)
(474.325 13.5428 -1.31085e-10)
(474.204 16.0964 1.78959e-10)
(473.927 14.9355 3.15314e-10)
(474.426 0.439124 -7.40261e-09)
(474.415 1.19686 2.18101e-09)
(474.408 1.73663 -7.56442e-10)
(474.378 2.63549 -1.90135e-11)
(474.36 3.15669 -2.12918e-10)
(474.319 4.05515 -6.46476e-10)
(474.285 4.60547 -2.9161e-10)
(474.24 5.43623 4.32803e-10)
(474.18 6.08052 7.98422e-10)
(474.139 6.76678 7.71955e-10)
(474.05 7.5835 4.7127e-10)
(474.012 8.03768 3.20325e-10)
(473.894 9.11425 9.38299e-11)
(473.861 9.24464 -3.09968e-10)
(473.713 10.667 -4.64538e-10)
(473.683 10.3909 -2.54597e-10)
(473.505 12.2261 -2.10654e-10)
(473.474 11.4919 -2.36013e-11)
(473.278 13.7609 3.44174e-10)
(473.228 12.5821 1.62856e-10)
(473.038 15.2127 -1.68843e-10)
(472.932 13.7568 -1.19701e-10)
(472.809 16.4149 1.80262e-10)
(472.555 15.1525 2.93451e-10)
(472.874 0.445452 -7.4824e-09)
(472.864 1.21284 2.1897e-09)
(472.857 1.76037 -7.21578e-10)
(472.828 2.67179 -5.98671e-11)
(472.813 3.19922 -2.07356e-10)
(472.774 4.11228 -6.01481e-10)
(472.742 4.66716 -3.30684e-10)
(472.7 5.51455 4.41863e-10)
(472.645 6.16186 8.47334e-10)
(472.607 6.86648 7.3545e-10)
(472.523 7.68517 4.78877e-10)
(472.491 8.15873 3.72027e-10)
(472.377 9.23734 6.0572e-11)
(472.35 9.38672 -3.05234e-10)
(472.208 10.8131 -4.12498e-10)
(472.186 10.5535 -2.85557e-10)
(472.015 12.3979 -2.04455e-10)
(471.993 11.6738 2.45892e-11)
(471.803 13.9622 3.11833e-10)
(471.764 12.7803 1.6905e-10)
(471.578 15.4507 -1.15434e-10)
(471.488 13.954 -1.49063e-10)
(471.363 16.7101 1.87913e-10)
(471.132 15.3487 3.416e-10)
(471.271 0.451065 -7.47424e-09)
(471.261 1.2271 2.23605e-09)
(471.255 1.78137 -6.92418e-10)
(471.227 2.70424 -2.48505e-11)
(471.214 3.23687 -2.4687e-10)
(471.177 4.16345 -6.44798e-10)
(471.148 4.72186 -2.98307e-10)
(471.109 5.58489 4.71261e-10)
(471.057 6.23414 8.77342e-10)
(471.024 6.95627 7.71052e-10)
(470.944 7.77581 4.39715e-10)
(470.917 8.26801 3.27695e-10)
(470.809 9.34739 8.7392e-11)
(470.788 9.51517 -2.81237e-10)
(470.652 10.9442 -3.9356e-10)
(470.637 10.7004 -2.67505e-10)
(470.472 12.5524 -2.53374e-10)
(470.459 11.8381 -1.77468e-11)
(470.276 14.1439 3.27226e-10)
(470.248 12.9597 1.8159e-10)
(470.068 15.6668 -9.52988e-11)
(469.992 14.1345 -1.37786e-10)
(469.867 16.9817 1.34188e-10)
(469.659 15.5237 2.94929e-10)
(469.616 0.455968 -7.56381e-09)
(469.606 1.23966 2.17058e-09)
(469.6 1.79966 -7.80135e-10)
(469.574 2.73286 -7.41558e-11)
(469.563 3.26966 -2.4782e-10)
(469.528 4.20869 -6.68034e-10)
(469.502 4.76956 -3.45336e-10)
(469.466 5.64721 4.05488e-10)
(469.418 6.29733 7.93398e-10)
(469.389 7.03607 7.26443e-10)
(469.314 7.8553 4.40791e-10)
(469.292 8.36543 3.08712e-10)
(469.189 9.44432 3.93618e-11)
(469.174 9.62998 -3.47478e-10)
(469.044 11.0601 -4.85017e-10)
(469.037 10.8318 -3.06125e-10)
(468.878 12.6895 -2.47045e-10)
(468.874 11.9849 -3.60411e-11)
(468.697 14.3058 2.86883e-10)
(468.68 13.1197 1.27228e-10)
(468.506 15.8603 -1.86959e-10)
(468.445 14.2976 -1.74428e-10)
(468.32 17.229 1.42013e-10)
(468.135 15.6773 2.8401e-10)
(467.909 0.460173 -7.52912e-09)
(467.899 1.25053 2.21874e-09)
(467.894 1.81529 -7.70438e-10)
(467.869 2.75771 -9.76864e-12)
(467.859 3.29765 -2.0856e-10)
(467.827 4.24804 -6.49448e-10)
(467.804 4.8103 -2.78275e-10)
(467.771 5.70155 4.56602e-10)
(467.727 6.3514 8.24038e-10)
(467.702 7.10583 8.03965e-10)
(467.631 7.92358 4.97184e-10)
(467.614 8.4509 3.36331e-10)
(467.517 9.52801 1.15613e-10)
(467.508 9.73106 -2.96587e-10)
(467.384 11.1608 -4.51638e-10)
(467.384 10.9478 -2.93836e-10)
(467.232 12.8094 -2.54785e-10)
(467.237 12.1142 2.08253e-12)
(467.066 14.4481 3.10118e-10)
(467.06 13.2601 1.27666e-10)
(466.892 16.0308 -1.37859e-10)
(466.846 14.4424 -1.50391e-10)
(466.722 17.451 1.42932e-10)
(466.56 15.8094 3.28371e-10)
(466.149 0.463694 -7.55356e-09)
(466.14 1.25975 2.23636e-09)
(466.136 1.8283 -7.67268e-10)
(466.112 2.77884 -2.33691e-12)
(466.104 3.32092 -2.02546e-10)
(466.074 4.28158 -6.45022e-10)
(466.054 4.84416 -2.71766e-10)
(466.024 5.74796 4.66376e-10)
(465.983 6.3964 8.34237e-10)
(465.962 7.16558 7.44612e-10)
(465.896 7.9806 4.35746e-10)
(465.885 8.52434 3.50797e-10)
(465.793 9.59835 5.9356e-11)
(465.79 9.81827 -3.51318e-10)
(465.672 11.2462 -4.39309e-10)
(465.68 11.0482 -2.81494e-10)
(465.533 12.9121 -2.41488e-10)
(465.548 12.2264 1.53411e-11)
(465.383 14.5709 3.26578e-10)
(465.388 13.3813 1.40632e-10)
(465.225 16.1789 -1.24418e-10)
(465.193 14.5672 -1.38692e-10)
(465.072 17.6461 1.65005e-10)
(464.933 15.9199 3.48512e-10)
(464.338 0.466541 -7.60432e-09)
(464.329 1.26735 2.29311e-09)
(464.326 1.83874 -7.43374e-10)
(464.303 2.79632 -6.10301e-11)
(464.297 3.33954 -2.0362e-10)
(464.268 4.30939 -5.89781e-10)
(464.251 4.87123 -2.99685e-10)
(464.224 5.78655 4.19451e-10)
(464.188 6.43243 8.44667e-10)
(464.17 7.21538 8.10205e-10)
(464.109 8.0264 4.86356e-10)
(464.102 8.58574 3.17322e-10)
(464.016 9.65524 8.04942e-11)
(464.02 9.89148 -2.78817e-10)
(463.907 11.316 -4.55133e-10)
(463.923 11.1328 -3.08573e-10)
(463.783 12.9973 -2.13362e-10)
(463.806 12.3212 2.88013e-11)
(463.647 14.6745 3.28754e-10)
(463.664 13.4837 1.28394e-10)
(463.507 16.3052 -1.54533e-10)
(463.488 14.6713 -1.20289e-10)
(463.371 17.8127 1.73342e-10)
(463.254 16.0087 2.80871e-10)
(462.475 0.46872 -7.66458e-09)
(462.465 1.27334 2.2327e-09)
(462.463 1.84664 -7.80515e-10)
(462.442 2.81017 -7.61208e-11)
(462.437 3.35356 -2.66581e-10)
(462.411 4.33154 -7.01365e-10)
(462.396 4.8916 -3.07246e-10)
(462.372 5.81741 5.1534e-10)
(462.339 6.45957 8.97641e-10)
(462.326 7.25533 8.20196e-10)
(462.269 8.06107 5.16214e-10)
(462.267 8.63517 3.6676e-10)
(462.186 9.69869 8.76364e-11)
(462.197 9.95063 -3.14268e-10)
(462.09 11.3702 -4.64009e-10)
(462.113 11.2015 -2.95932e-10)
(461.98 13.0647 -2.43296e-10)
(462.012 12.3984 -3.62861e-11)
(461.86 14.7584 2.79073e-10)
(461.888 13.5671 1.09437e-10)
(461.736 16.41 -1.48395e-10)
(461.731 14.7555 -8.86885e-11)
(461.617 17.951 2.33614e-10)
(461.523 16.0751 3.58142e-10)
(460.558 0.470235 -7.72572e-09)
(460.549 1.27772 2.25078e-09)
(460.548 1.85201 -7.49882e-10)
(460.528 2.82042 -8.35718e-11)
(460.525 3.36302 -2.47189e-10)
(460.5 4.34807 -6.52387e-10)
(460.488 4.90531 -3.00818e-10)
(460.468 5.84059 4.82207e-10)
(460.438 6.47792 8.16334e-10)
(460.429 7.28555 7.6607e-10)
(460.376 8.08471 4.9625e-10)
(460.38 8.67273 3.04739e-10)
(460.304 9.72877 5.12354e-11)
(460.32 9.99579 -3.22686e-10)
(460.22 11.4085 -4.43951e-10)
(460.251 11.2541 -2.49423e-10)
(460.123 13.1141 -2.36538e-10)
(460.166 12.4577 -2.96114e-12)
(460.02 14.8224 3.47728e-10)
(460.059 13.6313 1.22591e-10)
(459.913 16.4932 -1.79655e-10)
(459.922 14.82 -1.46659e-10)
(459.811 18.0618 1.9729e-10)
(459.738 16.1197 3.4658e-10)
(458.589 0.471083 -7.68921e-09)
(458.581 1.2805 2.28507e-09)
(458.58 1.85484 -7.74034e-10)
(458.561 2.82707 -6.88455e-11)
(458.56 3.3679 -2.6219e-10)