/*--------------------------------*- C++ -*----------------------------------*\
  =========                 |
  \\      /  F ield         | OpenFOAM: The Open Source CFD Toolbox
   \\    /   O peration     | Website:  https://openfoam.org
    \\  /    A nd           | Version:  10
     \\/     M anipulation  |
\*---------------------------------------------------------------------------*/
FoamFile
{
    format      ascii;
    class       volScalarField;
    location    "0.42";
    object      Ma;
}
// * * * * * * * * * * * * * * * * * * * * * * * * * * * * * * * * * * * * * //

dimensions      [0 0 0 0 0 0 0];

internalField   nonuniform List<scalar> 
4176
(
1.84514
1.84506
1.84486
1.84463
1.8442
1.84383
1.84318
1.84267
1.84179
1.84116
1.84006
1.8393
1.83799
1.83708
1.83562
1.83448
1.83303
1.83148
1.83016
1.82805
1.8271
1.82416
1.82398
1.82018
1.84502
1.84494
1.84474
1.8445
1.84407
1.84368
1.84303
1.8425
1.84161
1.84095
1.83983
1.83904
1.83771
1.83677
1.83528
1.83411
1.83262
1.83104
1.82969
1.82753
1.82658
1.82352
1.8233
1.81912
1.84467
1.84459
1.8444
1.84415
1.84375
1.84335
1.84273
1.8422
1.84135
1.84069
1.83961
1.83883
1.83753
1.83661
1.83514
1.83401
1.83253
1.831
1.82969
1.82758
1.82668
1.82368
1.82346
1.81915
1.84402
1.84394
1.84375
1.8435
1.8431
1.84271
1.84208
1.84155
1.8407
1.84005
1.83896
1.83819
1.83688
1.83597
1.83449
1.83337
1.83187
1.83032
1.82907
1.82689
1.82603
1.82307
1.82288
1.81877
1.84307
1.84299
1.8428
1.84256
1.84216
1.84178
1.84116
1.84064
1.8398
1.83915
1.83808
1.83732
1.83602
1.83513
1.83365
1.83256
1.83105
1.82952
1.8283
1.82611
1.82526
1.82234
1.82214
1.81817
1.84182
1.84175
1.84156
1.84132
1.84092
1.84054
1.83993
1.83941
1.83858
1.83793
1.83688
1.83612
1.83483
1.83395
1.83248
1.83142
1.82987
1.82842
1.82712
1.82501
1.82413
1.82124
1.82101
1.81703
1.84027
1.8402
1.84001
1.83977
1.83939
1.839
1.83841
1.83789
1.83707
1.83643
1.83539
1.83464
1.83337
1.8325
1.83105
1.83
1.82845
1.82707
1.82571
1.82368
1.82277
1.81993
1.81967
1.81571
1.83842
1.83835
1.83817
1.83793
1.83755
1.83717
1.83658
1.83607
1.83526
1.83463
1.8336
1.83286
1.83161
1.83075
1.82931
1.82828
1.82674
1.8254
1.82402
1.82205
1.82112
1.81833
1.81804
1.81415
1.83628
1.8362
1.83602
1.83579
1.83541
1.83504
1.83446
1.83395
1.83316
1.83253
1.83152
1.83079
1.82956
1.82871
1.82729
1.82628
1.82475
1.82346
1.82205
1.82016
1.8192
1.81646
1.81616
1.81233
1.83383
1.83376
1.83358
1.83335
1.83298
1.83261
1.83204
1.83154
1.83076
1.83015
1.82915
1.82843
1.82721
1.82638
1.82498
1.824
1.82248
1.82123
1.81981
1.81798
1.817
1.81433
1.81401
1.81024
1.83109
1.83102
1.83085
1.83062
1.83025
1.82989
1.82933
1.82884
1.82807
1.82747
1.82649
1.82578
1.82458
1.82377
1.82238
1.82143
1.81992
1.81871
1.81729
1.81553
1.81453
1.81192
1.8116
1.8079
1.82806
1.82799
1.82782
1.82759
1.82723
1.82688
1.82632
1.82584
1.82509
1.8245
1.82353
1.82284
1.82166
1.82087
1.8195
1.81857
1.81708
1.81592
1.81449
1.8128
1.81178
1.80926
1.80891
1.80529
1.82473
1.82466
1.82449
1.82427
1.82392
1.82357
1.82303
1.82256
1.82181
1.82124
1.82029
1.81961
1.81846
1.81768
1.81634
1.81543
1.81396
1.81284
1.81141
1.80979
1.80876
1.80631
1.80596
1.80241
1.82111
1.82104
1.82087
1.82066
1.82031
1.81997
1.81944
1.81898
1.81825
1.81769
1.81676
1.8161
1.81496
1.81421
1.81289
1.81201
1.81057
1.80948
1.80806
1.8065
1.80547
1.80309
1.80274
1.79927
1.8172
1.81713
1.81696
1.81676
1.81642
1.81608
1.81556
1.81511
1.8144
1.81385
1.81294
1.8123
1.81119
1.81046
1.80916
1.80831
1.80689
1.80584
1.80444
1.80294
1.8019
1.79961
1.79926
1.79587
1.81299
1.81292
1.81276
1.81256
1.81223
1.81191
1.8114
1.81096
1.81026
1.80973
1.80884
1.80822
1.80713
1.80642
1.80516
1.80434
1.80294
1.80193
1.80054
1.79911
1.79807
1.79585
1.79551
1.7922
1.8085
1.80843
1.80827
1.80808
1.80775
1.80744
1.80694
1.80652
1.80584
1.80532
1.80446
1.80386
1.80279
1.80211
1.80087
1.80008
1.79871
1.79774
1.79638
1.79501
1.79397
1.79184
1.79148
1.78827
1.80371
1.80365
1.8035
1.80331
1.80299
1.80269
1.8022
1.80179
1.80113
1.80064
1.79979
1.79921
1.79818
1.79752
1.79631
1.79555
1.79421
1.79328
1.79194
1.79064
1.7896
1.78756
1.78719
1.78408
1.79864
1.79858
1.79843
1.79825
1.79794
1.79765
1.79718
1.79679
1.79614
1.79566
1.79484
1.79429
1.79328
1.79265
1.79147
1.79074
1.78944
1.78855
1.78724
1.786
1.78497
1.783
1.78264
1.77962
1.79329
1.79322
1.79308
1.7929
1.79261
1.79232
1.79187
1.79149
1.79087
1.79041
1.78961
1.78908
1.78811
1.78751
1.78636
1.78567
1.7844
1.78355
1.78226
1.78109
1.78007
1.77819
1.77783
1.7749
1.78765
1.78759
1.78745
1.78728
1.78699
1.78672
1.78628
1.78592
1.78532
1.78488
1.78411
1.7836
1.78266
1.78209
1.78098
1.78032
1.77909
1.77828
1.77703
1.77592
1.77491
1.77311
1.77276
1.76992
1.78172
1.78166
1.78153
1.78137
1.78109
1.78083
1.78041
1.78007
1.77949
1.77907
1.77833
1.77785
1.77694
1.7764
1.77532
1.7747
1.77351
1.77274
1.77153
1.77048
1.76948
1.76778
1.76742
1.76469
1.77552
1.77546
1.77534
1.77518
1.77491
1.77467
1.77426
1.77394
1.77338
1.77299
1.77227
1.77182
1.77094
1.77043
1.7694
1.76881
1.76766
1.76694
1.76577
1.76477
1.7638
1.76218
1.76183
1.7592
1.76904
1.76898
1.76886
1.76871
1.76846
1.76823
1.76784
1.76754
1.767
1.76663
1.76594
1.76552
1.76467
1.7642
1.7632
1.76266
1.76155
1.76088
1.75974
1.7588
1.75786
1.75633
1.75599
1.75345
1.76229
1.76223
1.76211
1.76197
1.76173
1.76152
1.76114
1.76086
1.76035
1.76001
1.75935
1.75896
1.75814
1.7577
1.75674
1.75624
1.75517
1.75454
1.75345
1.75257
1.75166
1.75021
1.74988
1.74746
1.75526
1.75521
1.7551
1.75496
1.75473
1.75453
1.75418
1.75392
1.75343
1.75311
1.75248
1.75212
1.75134
1.75094
1.75002
1.74955
1.74853
1.74795
1.7469
1.74608
1.7452
1.74384
1.74352
1.74121
1.74796
1.74791
1.74781
1.74769
1.74747
1.74728
1.74694
1.7467
1.74624
1.74595
1.74535
1.74502
1.74428
1.74391
1.74303
1.74261
1.74163
1.7411
1.74009
1.73933
1.73848
1.73721
1.73691
1.7347
1.74041
1.74036
1.74026
1.74014
1.73994
1.73977
1.73945
1.73923
1.73879
1.73852
1.73796
1.73766
1.73695
1.73662
1.73578
1.7354
1.73447
1.73398
1.73302
1.73233
1.73151
1.73033
1.73004
1.72794
1.73259
1.73254
1.73245
1.73234
1.73215
1.73199
1.73169
1.73149
1.73108
1.73084
1.7303
1.73004
1.72936
1.72908
1.72828
1.72794
1.72705
1.72662
1.7257
1.72506
1.72429
1.72319
1.72292
1.72093
1.72451
1.72446
1.72438
1.72428
1.7241
1.72395
1.72367
1.72349
1.72311
1.72289
1.72239
1.72216
1.72152
1.72127
1.72051
1.72022
1.71938
1.71899
1.71813
1.71755
1.71681
1.71581
1.71556
1.71366
1.71618
1.71614
1.71605
1.71596
1.7158
1.71567
1.71541
1.71525
1.71488
1.7147
1.71422
1.71402
1.71342
1.71321
1.7125
1.71225
1.71145
1.71112
1.7103
1.70978
1.70909
1.70817
1.70793
1.70615
1.7076
1.70756
1.70748
1.7074
1.70724
1.70713
1.70689
1.70675
1.70641
1.70625
1.7058
1.70564
1.70507
1.7049
1.70423
1.70403
1.70327
1.70299
1.70222
1.70176
1.70112
1.70028
1.70006
1.6984
1.69877
1.69873
1.69866
1.69859
1.69845
1.69835
1.69812
1.698
1.69769
1.69756
1.69714
1.69701
1.69648
1.69634
1.69571
1.69555
1.69484
1.69462
1.6939
1.69349
1.6929
1.69213
1.69194
1.69039
1.68971
1.68967
1.6896
1.68954
1.68941
1.68932
1.68911
1.68901
1.68872
1.68862
1.68823
1.68813
1.68764
1.68754
1.68695
1.68683
1.68617
1.68599
1.68532
1.68498
1.68443
1.68375
1.68357
1.68214
1.6804
1.68036
1.68031
1.68025
1.68013
1.68006
1.67987
1.67979
1.67952
1.67944
1.67908
1.67901
1.67855
1.67849
1.67794
1.67787
1.67725
1.67713
1.6765
1.67622
1.67572
1.67511
1.67496
1.67365
1.67086
1.67083
1.67077
1.67072
1.67062
1.67056
1.67038
1.67032
1.67008
1.67003
1.6697
1.66966
1.66923
1.66921
1.66869
1.66867
1.66809
1.66802
1.66744
1.66722
1.66676
1.66623
1.66612
1.66491
1.6611
1.66106
1.66101
1.66097
1.66087
1.66083
1.66067
1.66063
1.66041
1.66038
1.66008
1.66007
1.65968
1.65969
1.65921
1.65923
1.6587
1.65867
1.65814
1.65798
1.65757
1.65711
1.65703
1.65594
1.6511
1.65107
1.65103
1.65099
1.6509
1.65087
1.65073
1.65071
1.65051
1.6505
1.65023
1.65025
1.64989
1.64994
1.6495
1.64956
1.64907
1.6491
1.6486
1.6485
1.64813
1.64775
1.64771
1.64672
1.64089
1.64086
1.64082
1.64079
1.64071
1.64069
1.64057
1.64056
1.64038
1.6404
1.64015
1.6402
1.63988
1.63996
1.63956
1.63967
1.63921
1.63929
1.63884
1.6388
1.63847
1.63815
1.63815
1.63728
1.63045
1.63042
1.63039
1.63036
1.6303
1.63029
1.63018
1.63019
1.63003
1.63007
1.62985
1.62993
1.62964
1.62976
1.62939
1.62954
1.62912
1.62925
1.62884
1.62886
1.62858
1.62833
1.62836
1.62759
1.6198
1.61977
1.61974
1.61973
1.61967
1.61967
1.61958
1.61961
1.61947
1.61953
1.61933
1.61944
1.61918
1.61934
1.619
1.61919
1.61881
1.619
1.61862
1.6187
1.61846
1.61828
1.61835
1.61767
1.60894
1.60891
1.60889
1.60887
1.60883
1.60884
1.60876
1.60881
1.60869
1.60877
1.6086
1.60874
1.6085
1.60869
1.60839
1.60862
1.60828
1.60851
1.60818
1.60832
1.60812
1.60801
1.60811
1.60752
1.59787
1.59784
1.59782
1.59781
1.59778
1.5978
1.59774
1.5978
1.5977
1.59781
1.59766
1.59782
1.59761
1.59784
1.59757
1.59784
1.59753
1.59782
1.59752
1.59772
1.59755
1.59753
1.59765
1.59716
1.58659
1.58656
1.58655
1.58655
1.58652
1.58656
1.58651
1.58658
1.58651
1.58663
1.58651
1.5867
1.58652
1.58678
1.58654
1.58685
1.58657
1.58691
1.58664
1.58691
1.58677
1.58682
1.58697
1.58658
1.57511
1.57508
1.57507
1.57508
1.57506
1.57511
1.57508
1.57517
1.57511
1.57525
1.57516
1.57537
1.57522
1.57551
1.5753
1.57565
1.57541
1.57579
1.57555
1.57588
1.57577
1.5759
1.57607
1.57578
1.56343
1.56341
1.5634
1.56341
1.56341
1.56346
1.56344
1.56355
1.56351
1.56368
1.5636
1.56384
1.56372
1.56404
1.56386
1.56425
1.56404
1.56447
1.56426
1.56465
1.56456
1.56477
1.56496
1.56477
1.55156
1.55154
1.55153
1.55155
1.55156
1.55162
1.55162
1.55174
1.55172
1.5519
1.55185
1.55212
1.55202
1.55237
1.55223
1.55266
1.55247
1.55295
1.55277
1.55322
1.55315
1.55344
1.55363
1.55355
1.5395
1.53948
1.53948
1.5395
1.53952
1.53959
1.5396
1.53974
1.53974
1.53994
1.53991
1.5402
1.54013
1.54052
1.5404
1.54087
1.54071
1.54124
1.54109
1.5416
1.54154
1.54192
1.54211
1.54213
1.52725
1.52724
1.52724
1.52727
1.52729
1.52738
1.5274
1.52755
1.52757
1.52779
1.52779
1.5281
1.52806
1.52847
1.52838
1.52889
1.52875
1.52933
1.5292
1.52979
1.52974
1.5302
1.53039
1.53052
1.51483
1.51481
1.51482
1.51486
1.51489
1.51498
1.51502
1.51518
1.51522
1.51546
1.51548
1.51582
1.5158
1.51624
1.51617
1.51672
1.51661
1.51725
1.51713
1.51778
1.51774
1.5183
1.51847
1.51871
1.50224
1.50222
1.50223
1.50227
1.50231
1.50241
1.50247
1.50264
1.5027
1.50296
1.50299
1.50336
1.50336
1.50383
1.50379
1.50438
1.50429
1.50498
1.50487
1.50559
1.50555
1.50621
1.50638
1.5067
1.48948
1.48946
1.48948
1.48952
1.48957
1.48968
1.48974
1.48993
1.49
1.49028
1.49034
1.49072
1.49075
1.49125
1.49123
1.49186
1.49179
1.49253
1.49243
1.49323
1.49318
1.49392
1.4941
1.49451
1.47655
1.47654
1.47656
1.47661
1.47666
1.47678
1.47686
1.47706
1.47715
1.47744
1.47752
1.47793
1.47797
1.47851
1.4785
1.47917
1.47911
1.47991
1.47981
1.48069
1.48063
1.48146
1.48164
1.48214
1.46348
1.46347
1.46349
1.46354
1.4636
1.46373
1.46382
1.46403
1.46413
1.46445
1.46454
1.46497
1.46502
1.4656
1.4656
1.46632
1.46626
1.46713
1.46702
1.46798
1.46792
1.46881
1.46901
1.46959
1.45026
1.45025
1.45027
1.45033
1.4504
1.45053
1.45063
1.45086
1.45097
1.4513
1.4514
1.45186
1.45192
1.45254
1.45254
1.45332
1.45324
1.45419
1.45407
1.45508
1.45505
1.45599
1.4562
1.45686
1.4369
1.43689
1.43692
1.43698
1.43705
1.43719
1.4373
1.43754
1.43766
1.43801
1.43812
1.43861
1.43867
1.43933
1.43932
1.44016
1.44008
1.44107
1.44097
1.44203
1.44201
1.44301
1.44323
1.44396
1.42341
1.4234
1.42343
1.42349
1.42358
1.42372
1.42384
1.42408
1.42421
1.42458
1.42469
1.42522
1.42527
1.42598
1.42596
1.42684
1.42678
1.42779
1.42772
1.42881
1.42882
1.42986
1.43009
1.43089
1.4098
1.40979
1.40982
1.40988
1.40998
1.41012
1.41025
1.41051
1.41063
1.41103
1.41113
1.41169
1.41174
1.41248
1.41248
1.41337
1.41333
1.41437
1.41432
1.41544
1.41547
1.41656
1.4168
1.41766
1.39607
1.39606
1.3961
1.39616
1.39626
1.3964
1.39654
1.3968
1.39693
1.39735
1.39745
1.39803
1.39809
1.39884
1.39886
1.39977
1.39975
1.40081
1.40078
1.40193
1.40197
1.4031
1.40335
1.40428
1.38223
1.38222
1.38226
1.38232
1.38243
1.38257
1.38272
1.38298
1.38313
1.38354
1.38366
1.38424
1.38432
1.38508
1.38511
1.38604
1.38604
1.38711
1.38711
1.38828
1.38834
1.38951
1.38976
1.39075
1.36829
1.36827
1.36832
1.36838
1.36849
1.36863
1.36879
1.36904
1.36921
1.36962
1.36975
1.37034
1.37043
1.37119
1.37124
1.37218
1.3722
1.37329
1.3733
1.37449
1.37457
1.37577
1.37603
1.37707
1.35425
1.35423
1.35427
1.35434
1.35444
1.35459
1.35476
1.355
1.3552
1.35558
1.35575
1.35632
1.35643
1.3572
1.35726
1.35821
1.35824
1.35934
1.35937
1.36058
1.36067
1.3619
1.36217
1.36326
1.34011
1.34009
1.34013
1.3402
1.34031
1.34045
1.34062
1.34086
1.34107
1.34145
1.34164
1.34219
1.34233
1.34309
1.34317
1.34412
1.34417
1.34528
1.34532
1.34655
1.34665
1.34791
1.34819
1.34932
1.32587
1.32586
1.3259
1.32597
1.32607
1.32622
1.32639
1.32663
1.32685
1.32722
1.32743
1.32797
1.32813
1.32888
1.32898
1.32993
1.32999
1.33111
1.33117
1.33241
1.33253
1.33381
1.33409
1.33526
1.31155
1.31153
1.31157
1.31164
1.31175
1.3119
1.31207
1.31231
1.31254
1.31289
1.31312
1.31365
1.31383
1.31458
1.3147
1.31564
1.31572
1.31685
1.31692
1.31817
1.31829
1.3196
1.31988
1.32109
1.29714
1.29712
1.29716
1.29723
1.29734
1.29748
1.29766
1.2979
1.29813
1.29848
1.29872
1.29925
1.29944
1.30019
1.30032
1.30127
1.30135
1.30249
1.30257
1.30383
1.30397
1.30529
1.30557
1.30682
1.28263
1.28261
1.28266
1.28272
1.28283
1.28298
1.28316
1.2834
1.28364
1.28398
1.28424
1.28476
1.28497
1.28571
1.28586
1.28681
1.2869
1.28805
1.28813
1.28941
1.28955
1.29089
1.29118
1.29245
1.26804
1.26802
1.26806
1.26813
1.26824
1.26839
1.26858
1.26882
1.26906
1.26941
1.26968
1.27019
1.27042
1.27116
1.27131
1.27227
1.27238
1.27353
1.27362
1.27491
1.27506
1.27641
1.2767
1.27799
1.25335
1.25333
1.25338
1.25345
1.25357
1.25372
1.25391
1.25415
1.25441
1.25475
1.25504
1.25555
1.2558
1.25653
1.2567
1.25767
1.25778
1.25894
1.25904
1.26034
1.26049
1.26185
1.26214
1.26346
1.23859
1.23857
1.23862
1.23868
1.23881
1.23897
1.23916
1.23941
1.23968
1.24003
1.24034
1.24084
1.24111
1.24183
1.24202
1.243
1.24311
1.24428
1.24439
1.24569
1.24585
1.24722
1.24751
1.24885
1.22375
1.22373
1.22378
1.22386
1.22399
1.22415
1.22436
1.22461
1.22489
1.22524
1.22557
1.22606
1.22637
1.22707
1.2273
1.22825
1.22839
1.22956
1.22968
1.23098
1.23114
1.23252
1.23281
1.23416
1.20887
1.20885
1.2089
1.20898
1.20911
1.20928
1.20949
1.20976
1.21004
1.2104
1.21074
1.21123
1.21157
1.21226
1.21252
1.21345
1.21361
1.21478
1.2149
1.2162
1.21637
1.21776
1.21804
1.2194
1.19396
1.19394
1.19399
1.19407
1.19421
1.19438
1.1946
1.19487
1.19516
1.19552
1.19587
1.19636
1.19672
1.19739
1.19768
1.19859
1.19878
1.19993
1.20007
1.20136
1.20154
1.20292
1.2032
1.20456
1.17906
1.17904
1.17909
1.17917
1.1793
1.17948
1.17969
1.17996
1.18025
1.18062
1.18097
1.18145
1.18182
1.18247
1.18279
1.18367
1.1839
1.18501
1.18517
1.18645
1.18663
1.188
1.18828
1.18965
1.16421
1.16419
1.16423
1.16431
1.16443
1.1646
1.1648
1.16506
1.16534
1.16569
1.16604
1.1665
1.16688
1.1675
1.16785
1.16868
1.16895
1.17002
1.17019
1.17147
1.17164
1.17301
1.17328
1.17464
1.14942
1.14939
1.14943
1.1495
1.14961
1.14976
1.14994
1.15018
1.15044
1.15077
1.1511
1.15154
1.1519
1.1525
1.15284
1.15364
1.15392
1.15495
1.15515
1.1564
1.15657
1.15793
1.15819
1.15955
1.13469
1.13466
1.13469
1.13474
1.13483
1.13496
1.13512
1.13533
1.13556
1.13586
1.13616
1.13656
1.13689
1.13745
1.13778
1.13853
1.13881
1.1398
1.14001
1.14122
1.14139
1.14275
1.14299
1.14436
1.11999
1.11996
1.11997
1.12001
1.12008
1.12019
1.12032
1.1205
1.1207
1.12095
1.12121
1.12157
1.12187
1.12238
1.12267
1.12337
1.12363
1.12457
1.12477
1.12595
1.12611
1.12746
1.12769
1.12906
1.10525
1.10521
1.10522
1.10524
1.1053
1.10538
1.10549
1.10564
1.1058
1.10602
1.10625
1.10656
1.10682
1.10728
1.10752
1.10818
1.10839
1.10929
1.10943
1.11059
1.1107
1.11205
1.11225
1.11364
1.09036
1.09031
1.09032
1.09032
1.09038
1.09044
1.09055
1.09067
1.09083
1.09101
1.09122
1.09149
1.09172
1.09214
1.09232
1.09298
1.09308
1.094
1.09402
1.09518
1.0952
1.09653
1.09669
1.09805
1.07518
1.07512
1.07514
1.07514
1.07521
1.07527
1.07538
1.07549
1.07565
1.07583
1.07603
1.07629
1.07652
1.0769
1.07707
1.07772
1.07773
1.07868
1.07859
1.07976
1.07969
1.08098
1.08107
1.08233
1.05957
1.05952
1.05953
1.05956
1.05962
1.05971
1.05983
1.05998
1.06015
1.06036
1.06058
1.06086
1.06111
1.06149
1.0617
1.06231
1.06236
1.06327
1.06318
1.06433
1.0642
1.06549
1.0655
1.0667
1.0434
1.04336
1.04338
1.04343
1.04352
1.04364
1.04379
1.04399
1.04421
1.04447
1.04474
1.04508
1.04538
1.0458
1.0461
1.04669
1.04685
1.04772
1.04769
1.04886
1.0487
1.05004
1.04999
1.05121
1.0266
1.02656
1.0266
1.02666
1.02678
1.02694
1.02715
1.0274
1.02768
1.02801
1.02837
1.02878
1.02918
1.02968
1.03009
1.03075
1.03103
1.03195
1.032
1.03326
1.03311
1.03455
1.03446
1.03577
1.00912
1.00907
1.00913
1.00921
1.00937
1.00957
1.00983
1.01013
1.0105
1.01089
1.01135
1.01184
1.01237
1.01298
1.01352
1.0143
1.01472
1.0158
1.01595
1.01737
1.01729
1.01889
1.01881
1.02029
0.990971
0.990926
0.990999
0.991098
0.991281
0.991514
0.991818
0.99217
0.992602
0.993064
0.993617
0.994199
0.994844
0.995565
0.996257
0.997155
0.99777
0.999002
0.999347
1.00097
1.00104
1.00289
1.00287
1.00463
0.97223
0.972191
0.972262
0.972384
0.972576
0.972842
0.973167
0.97357
0.974032
0.974567
0.975163
0.975839
0.976555
0.977383
0.978198
0.979195
0.980044
0.98133
0.982009
0.983731
0.984106
0.986242
0.986389
0.988582
0.952998
0.952962
0.953032
0.953163
0.953362
0.953642
0.953982
0.954405
0.954892
0.955458
0.95609
0.956809
0.957578
0.958464
0.95936
0.960432
0.961425
0.962743
0.963739
0.965444
0.966241
0.968525
0.968976
0.971733
0.933396
0.933362
0.933428
0.93356
0.933759
0.934041
0.934384
0.93481
0.935303
0.935875
0.936519
0.937247
0.938035
0.938936
0.939864
0.940959
0.942008
0.943349
0.944475
0.946152
0.94725
0.949491
0.95027
0.953473
0.913553
0.913516
0.913578
0.913705
0.913898
0.914172
0.914508
0.914923
0.915409
0.915967
0.916603
0.917314
0.918095
0.918976
0.919898
0.920969
0.922017
0.923331
0.924454
0.926105
0.927213
0.929407
0.930234
0.933433
0.893589
0.893548
0.893605
0.893722
0.893906
0.894165
0.894487
0.894882
0.89535
0.895881
0.896496
0.897172
0.897929
0.898767
0.899659
0.900677
0.901692
0.902941
0.904012
0.905603
0.9066
0.908747
0.909444
0.91238
0.87361
0.873564
0.873614
0.87372
0.873892
0.874132
0.874436
0.874805
0.875249
0.875744
0.87633
0.876961
0.877684
0.878465
0.879316
0.880266
0.881233
0.882396
0.883408
0.8849
0.885819
0.887841
0.888478
0.891197
0.853707
0.853653
0.853699
0.853791
0.85395
0.854168
0.854452
0.85479
0.855209
0.855661
0.856217
0.856794
0.85748
0.858196
0.859002
0.859875
0.860788
0.861856
0.862812
0.864191
0.865041
0.866914
0.867511
0.870022
0.833953
0.833892
0.833936
0.834008
0.834159
0.834348
0.834618
0.834916
0.835316
0.835715
0.836248
0.836757
0.837417
0.838051
0.838823
0.839606
0.840468
0.841436
0.842332
0.843603
0.844388
0.846105
0.846668
0.848972
0.814408
0.814342
0.814385
0.814435
0.814581
0.814737
0.814997
0.815248
0.815636
0.815972
0.816493
0.816921
0.817567
0.818103
0.818858
0.81953
0.820361
0.821222
0.822055
0.823217
0.823949
0.825504
0.826039
0.828134
0.795124
0.795055
0.79509
0.79513
0.795258
0.795396
0.79563
0.795853
0.796208
0.796504
0.796989
0.79736
0.797971
0.798429
0.79915
0.799725
0.800519
0.801269
0.802058
0.803098
0.803783
0.805175
0.805686
0.807576
0.77614
0.776069
0.776093
0.776129
0.776231
0.776363
0.776557
0.77677
0.777073
0.777354
0.777776
0.778123
0.778663
0.779084
0.779734
0.780249
0.78098
0.781634
0.782389
0.783286
0.783936
0.78517
0.785659
0.787348
0.757489
0.757416
0.757429
0.75746
0.75754
0.75766
0.757824
0.758018
0.75828
0.758537
0.758905
0.759224
0.759698
0.760083
0.76066
0.761124
0.761787
0.762357
0.763068
0.763819
0.764452
0.765529
0.765997
0.767489
0.739193
0.73912
0.739124
0.739147
0.739211
0.739315
0.739454
0.739625
0.739853
0.74008
0.740404
0.740687
0.741107
0.741447
0.741963
0.742368
0.74297
0.743459
0.74412
0.744744
0.745361
0.74628
0.746729
0.748028
0.721274
0.7212
0.721197
0.721213
0.721261
0.72135
0.721466
0.721613
0.721811
0.722006
0.722291
0.722535
0.722907
0.7232
0.723661
0.724007
0.724551
0.724962
0.725571
0.726084
0.726684
0.727441
0.727874
0.728986
0.703748
0.703674
0.703664
0.703671
0.703706
0.703779
0.703874
0.703999
0.704168
0.704332
0.704581
0.704786
0.705114
0.705361
0.70577
0.706058
0.706547
0.706886
0.707439
0.707855
0.708427
0.70903
0.709455
0.710385
0.686626
0.686551
0.686535
0.686536
0.686558
0.686616
0.686692
0.686794
0.686936
0.68707
0.687286
0.687453
0.687741
0.687941
0.688303
0.688535
0.688972
0.689241
0.689743
0.690067
0.690602
0.691063
0.691481
0.692239
0.669917
0.669843
0.669822
0.669815
0.669825
0.66987
0.669926
0.670007
0.670124
0.67023
0.670414
0.670545
0.670794
0.67095
0.671267
0.671445
0.671834
0.672036
0.672489
0.672731
0.67322
0.673555
0.673962
0.67456
0.653628
0.653554
0.653529
0.653514
0.653516
0.653543
0.653586
0.653644
0.65374
0.653817
0.653971
0.654068
0.65428
0.654394
0.65467
0.654796
0.655138
0.655277
0.655681
0.655844
0.65629
0.656514
0.65691
0.657354
0.637763
0.63769
0.63766
0.63764
0.63763
0.637647
0.637671
0.637713
0.637783
0.637837
0.637962
0.638026
0.638204
0.638278
0.638514
0.638591
0.63889
0.638969
0.639328
0.639416
0.639818
0.639944
0.640329
0.640622
0.622324
0.62225
0.62222
0.622187
0.622179
0.62217
0.622194
0.622205
0.622264
0.622287
0.622389
0.622421
0.622567
0.622603
0.622802
0.622833
0.623091
0.623114
0.623429
0.623448
0.62381
0.623848
0.624211
0.624366
0.607311
0.60724
0.607201
0.607174
0.607141
0.607141
0.60713
0.607141
0.607168
0.607177
0.607249
0.607254
0.607369
0.60737
0.607533
0.607521
0.60774
0.607709
0.607986
0.607939
0.608263
0.608219
0.608556
0.608582
0.592724
0.592652
0.59262
0.592568
0.592556
0.592512
0.592522
0.592487
0.592519
0.592491
0.592548
0.592522
0.59261
0.592576
0.592707
0.592654
0.592836
0.592756
0.592993
0.592884
0.593173
0.593051
0.593359
0.593272
0.57856
0.578493
0.578448
0.578412
0.578363
0.578344
0.578307
0.578289
0.578278
0.578248
0.578272
0.578226
0.578286
0.578221
0.57832
0.578229
0.578376
0.578249
0.578451
0.578284
0.578537
0.578339
0.57862
0.578431
0.564817
0.564747
0.564713
0.56465
0.564627
0.564561
0.564553
0.564484
0.564488
0.564417
0.564434
0.564358
0.564395
0.5643
0.564371
0.564243
0.564359
0.564188
0.564356
0.564133
0.564355
0.564087
0.564343
0.564057
0.55149
0.551425
0.551379
0.551331
0.551276
0.551233
0.551181
0.551131
0.551094
0.551026
0.551011
0.55092
0.550931
0.55081
0.550853
0.550693
0.550779
0.550566
0.550705
0.550431
0.550624
0.550289
0.550526
0.550149
0.538575
0.538508
0.53847
0.538402
0.538364
0.538288
0.538255
0.538166
0.538139
0.538037
0.538017
0.537898
0.537891
0.537744
0.537763
0.537571
0.53763
0.537381
0.53749
0.537169
0.537337
0.536942
0.537161
0.536701
0.526063
0.526001
0.525956
0.525894
0.52584
0.52577
0.525714
0.52563
0.525576
0.525472
0.525427
0.525295
0.525266
0.525096
0.525092
0.524873
0.524907
0.524622
0.524707
0.524343
0.524487
0.524036
0.52424
0.523704
0.513951
0.513889
0.513847
0.513777
0.513725
0.513642
0.513586
0.513484
0.513427
0.513303
0.513248
0.513096
0.513051
0.512859
0.512835
0.512589
0.512601
0.512284
0.512345
0.511941
0.512066
0.511563
0.511754
0.511148
0.502229
0.50217
0.502125
0.502056
0.501999
0.501911
0.501847
0.501738
0.501669
0.501534
0.501465
0.501297
0.501236
0.501024
0.500981
0.500712
0.500703
0.500356
0.500398
0.499958
0.500063
0.499513
0.499692
0.499023
0.490892
0.490834
0.49079
0.490717
0.490658
0.490565
0.490493
0.490379
0.490297
0.490154
0.490071
0.48989
0.489813
0.489584
0.489524
0.489233
0.489204
0.488832
0.488853
0.48838
0.488468
0.487875
0.488042
0.487318
0.479929
0.479875
0.479828
0.479757
0.479691
0.479597
0.479518
0.479396
0.479308
0.479152
0.47906
0.478864
0.478775
0.478529
0.478453
0.478142
0.478096
0.477699
0.477702
0.477199
0.477272
0.47664
0.476796
0.47602
0.469335
0.469281
0.469237
0.469161
0.469097
0.468995
0.468914
0.468783
0.468687
0.468524
0.46842
0.468214
0.46811
0.46785
0.467759
0.46743
0.467368
0.46695
0.466936
0.466405
0.466462
0.465796
0.465942
0.465119
0.459099
0.459048
0.459001
0.458929
0.458857
0.458757
0.458667
0.458534
0.458429
0.458257
0.458144
0.457927
0.457812
0.457538
0.457434
0.457089
0.457011
0.456573
0.456543
0.455989
0.456031
0.455331
0.455469
0.454603
0.449214
0.449165
0.449119
0.449044
0.448972
0.448867
0.448775
0.448634
0.448525
0.448344
0.448224
0.447996
0.447871
0.447585
0.447467
0.447108
0.447015
0.44656
0.446516
0.445938
0.445967
0.445239
0.445366
0.444462
0.43967
0.439624
0.439578
0.439502
0.43943
0.43932
0.439225
0.43908
0.438964
0.438778
0.438648
0.438412
0.438277
0.43798
0.437851
0.437478
0.437373
0.436902
0.436842
0.436246
0.43626
0.435507
0.435625
0.434684
0.430461
0.430417
0.430369
0.430296
0.430218
0.43011
0.430008
0.429861
0.42974
0.429546
0.429411
0.429166
0.429022
0.428715
0.428576
0.428191
0.428073
0.427588
0.427515
0.426901
0.426902
0.426127
0.426233
0.425261
0.421575
0.421533
0.421487
0.421411
0.421336
0.421222
0.421121
0.420966
0.420842
0.420643
0.420501
0.420249
0.420098
0.419782
0.419633
0.419237
0.419108
0.41861
0.418524
0.417897
0.417884
0.417089
0.417186
0.416183
0.413007
0.412966
0.41292
0.412844
0.412767
0.412653
0.412547
0.412392
0.412262
0.412059
0.411911
0.411652
0.411494
0.41117
0.411013
0.410607
0.410469
0.409959
0.409864
0.409222
0.409198
0.408387
0.408472
0.407447
0.404745
0.404706
0.40466
0.404586
0.404505
0.404392
0.404283
0.404124
0.403992
0.403783
0.403632
0.403366
0.403203
0.402871
0.402708
0.402292
0.402148
0.401627
0.401524
0.400868
0.400837
0.40001
0.40009
0.399044
0.396782
0.396745
0.3967
0.396623
0.396546
0.396427
0.39632
0.396156
0.396022
0.395809
0.395654
0.395383
0.395216
0.394876
0.394708
0.394284
0.394134
0.393601
0.393495
0.392825
0.392791
0.391949
0.392024
0.390966
0.389109
0.389074
0.389029
0.388954
0.388874
0.388756
0.388645
0.388482
0.388343
0.388128
0.387968
0.387694
0.387522
0.387176
0.387004
0.386572
0.386418
0.385876
0.385764
0.385084
0.385047
0.384192
0.384264
0.383195
0.381719
0.381685
0.38164
0.381566
0.381485
0.381367
0.381254
0.381088
0.380949
0.380729
0.380568
0.380288
0.380113
0.379763
0.379586
0.379148
0.378989
0.37844
0.378324
0.377635
0.377593
0.376729
0.376796
0.375719
0.374602
0.374569
0.374526
0.374449
0.374372
0.374248
0.37414
0.373968
0.373829
0.373606
0.373442
0.37316
0.372981
0.372626
0.372445
0.372002
0.371839
0.371285
0.371163
0.370468
0.37042
0.36955
0.369611
0.368525
0.36775
0.36772
0.367675
0.367603
0.367518
0.367403
0.367285
0.367119
0.366973
0.366751
0.366583
0.366299
0.366117
0.365759
0.365574
0.365127
0.364959
0.3644
0.364273
0.363574
0.36352
0.362644
0.362699
0.361607
0.361157
0.361127
0.361085
0.361007
0.360932
0.360805
0.360698
0.36052
0.360382
0.360152
0.359986
0.359696
0.359513
0.359151
0.358964
0.358513
0.358341
0.357779
0.357646
0.356943
0.356884
0.356003
0.356054
0.354954
0.354813
0.354786
0.354741
0.35467
0.354586
0.354469
0.354349
0.354182
0.354033
0.353808
0.353637
0.353347
0.35316
0.352797
0.352606
0.352153
0.351976
0.351411
0.351274
0.350569
0.350504
0.349618
0.349664
0.348561
0.348712
0.348684
0.348644
0.348567
0.348491
0.348364
0.348255
0.348076
0.347936
0.347703
0.347534
0.34724
0.347053
0.346687
0.346494
0.346038
0.345859
0.345292
0.34515
0.344441
0.344372
0.343484
0.343526
0.342417
0.342846
0.342821
0.342777
0.342707
0.342623
0.342505
0.342386
0.342216
0.342068
0.341838
0.341666
0.341372
0.341183
0.340814
0.34062
0.340162
0.33998
0.33941
0.339266
0.338556
0.338481
0.33759
0.337628
0.336519
0.337209
0.337183
0.337144
0.337067
0.336993
0.336864
0.336756
0.336575
0.336434
0.336198
0.336029
0.335731
0.335543
0.335171
0.334978
0.334516
0.334334
0.333761
0.333615
0.332902
0.332825
0.331934
0.331967
0.330856
0.331793
0.33177
0.331727
0.331657
0.331574
0.331455
0.331338
0.331164
0.331018
0.330784
0.330614
0.330314
0.330127
0.329751
0.329559
0.329094
0.328913
0.328336
0.328191
0.327474
0.327398
0.326503
0.326534
0.325424
0.326592
0.326568
0.326529
0.326454
0.326379
0.326252
0.326142
0.325961
0.325821
0.325582
0.325415
0.325111
0.324927
0.324547
0.324358
0.323888
0.32371
0.323129
0.322987
0.322266
0.322191
0.321294
0.321323
0.320215
0.321599
0.321577
0.321536
0.321464
0.321386
0.321262
0.321151
0.320971
0.32083
0.320591
0.320425
0.320118
0.319937
0.319553
0.319368
0.318892
0.31872
0.318132
0.317996
0.317268
0.3172
0.316297
0.316328
0.315222
0.316808
0.316786
0.316747
0.316675
0.316598
0.316473
0.316362
0.316182
0.316043
0.315801
0.315638
0.315328
0.315151
0.314762
0.314583
0.3141
0.313935
0.313339
0.313211
0.312475
0.312414
0.311508
0.31154
0.310439
0.312214
0.312192
0.312154
0.31208
0.312007
0.311878
0.311773
0.311587
0.311453
0.311206
0.311049
0.310734
0.310562
0.310167
0.309995
0.309505
0.309348
0.308744
0.308625
0.307881
0.307829
0.306919
0.306952
0.305857
0.307809
0.307789
0.30775
0.307679
0.307602
0.307478
0.307368
0.307188
0.307051
0.306805
0.306649
0.306331
0.306164
0.305764
0.305598
0.305102
0.304953
0.304341
0.30423
0.303482
0.303432
0.302524
0.302556
0.301467
0.30359
0.303569
0.303533
0.303457
0.303388
0.303255
0.303156
0.302966
0.302838
0.302585
0.302436
0.302113
0.301951
0.301548
0.301386
0.300885
0.300742
0.300125
0.300023
0.299267
0.299224
0.298314
0.298346
0.29726
0.29955
0.29953
0.299491
0.299421
0.299345
0.299221
0.299114
0.298931
0.298799
0.298549
0.2984
0.298076
0.297918
0.29751
0.297355
0.296849
0.296714
0.296089
0.295995
0.295235
0.295195
0.294287
0.294316
0.293237
0.295684
0.295663
0.295629
0.295552
0.295486
0.295351
0.295256
0.295062
0.294941
0.294682
0.294542
0.294211
0.294062
0.293645
0.293501
0.292984
0.292862
0.292229
0.292143
0.291379
0.291343
0.290435
0.290464
0.28939
0.291987
0.291967
0.291931
0.291858
0.291788
0.291659
0.29156
0.291368
0.291248
0.290987
0.290853
0.290514
0.290376
0.289948
0.289818
0.289289
0.28918
0.288538
0.288459
0.287695
0.287658
0.286756
0.286783
0.285717
0.288455
0.288434
0.288401
0.288324
0.288261
0.288123
0.288035
0.287833
0.287724
0.287453
0.287331
0.286981
0.286856
0.286417
0.286299
0.285762
0.28566
0.285016
0.28494
0.284176
0.284142
0.283241
0.283267
0.282208
0.285082
0.285063
0.285029
0.284953
0.284889
0.284752
0.284665
0.284462
0.284358
0.28408
0.283968
0.283609
0.283495
0.283048
0.282938
0.282396
0.282301
0.281653
0.281581
0.280819
0.280784
0.27989
0.279912
0.278862
0.281866
0.281845