/*--------------------------------*- C++ -*----------------------------------*\
  =========                 |
  \\      /  F ield         | OpenFOAM: The Open Source CFD Toolbox
   \\    /   O peration     | Website:  https://openfoam.org
    \\  /    A nd           | Version:  10
     \\/     M anipulation  |
\*---------------------------------------------------------------------------*/
FoamFile
{
    format      ascii;
    class       surfaceScalarField;
    location    "0.42";
    object      phi;
}
// * * * * * * * * * * * * * * * * * * * * * * * * * * * * * * * * * * * * * //

dimensions      [1 0 -1 0 0 0 0];

internalField   nonuniform List<scalar> 
8154
(
-5.79258e-09
-2.20003e-08
-5.67261e-08
-9.17515e-08
-1.71428e-07
-2.25499e-07
-3.69198e-07
-4.52587e-07
-6.73177e-07
-8.12957e-07
-1.1043e-06
-1.3373e-06
-1.66756e-06
-2.02646e-06
-2.36121e-06
-2.86782e-06
-3.26082e-06
-3.98622e-06
-4.56471e-06
-5.50909e-06
-6.83102e-06
-7.24674e-06
-6.84758e-06
-0.000277438
-0.000832368
2.40612e-08
-0.00138746
9.6352e-08
-0.00194288
2.13491e-07
-0.00249867
3.7826e-07
-0.00305503
5.77477e-07
-0.00361202
8.24054e-07
-0.00416973
1.08941e-06
-0.00472845
1.39922e-06
-0.0052879
1.7125e-06
-0.00584878
2.0571e-06
-0.00641056
2.4028e-06
-0.00697376
2.74813e-06
-0.00753867
3.12088e-06
-0.00810414
3.43701e-06
-0.00867307
3.85022e-06
-0.00924025
4.12443e-06
-0.00981487
4.56987e-06
-0.0103833
4.92424e-06
-0.0109645
5.14e-06
-0.0115338
5.2778e-06
-0.0121235
5.11249e-06
-0.0126948
4.0351e-06
-0.013293
2.45391e-06
-0.000277462
-0.000832441
2.63803e-08
-0.00138758
1.04915e-07
-0.00194305
2.34938e-07
-0.00249887
4.10436e-07
-0.00305528
6.35516e-07
-0.00361229
8.90219e-07
-0.00417004
1.19571e-06
-0.00472876
1.50264e-06
-0.00528825
1.86836e-06
-0.00584912
2.19166e-06
-0.00641091
2.59331e-06
-0.00697414
2.89282e-06
-0.00753898
3.29967e-06
-0.00810456
3.54038e-06
-0.00867334
3.9043e-06
-0.0092407
4.10329e-06
-0.00981522
4.38612e-06
-0.0103835
5.00186e-06
-0.0109647
4.66777e-06
-0.0115336
5.23035e-06
-0.0121224
5.32789e-06
-0.0126932
5.04369e-06
-0.0132905
4.23443e-06
-0.000277489
-0.000832519
2.13233e-08
-0.00138771
8.50522e-08
-0.00194322
1.88325e-07
-0.00249909
3.30858e-07
-0.00305553
5.0229e-07
-0.00361259
7.08073e-07
-0.00417034
9.23783e-07
-0.00472913
1.16795e-06
-0.00528857
1.39546e-06
-0.00584952
1.64277e-06
-0.00641121
1.84631e-06
-0.00697454
2.04984e-06
-0.00753922
2.19818e-06
-0.00810492
2.2852e-06
-0.00867355
2.35426e-06
-0.00924099
2.20522e-06
-0.00981583
2.34034e-06
-0.0103832
1.89877e-06
-0.0109652
1.78452e-06
-0.0115337
1.39198e-06
-0.0121221
1.14816e-06
-0.0126924
7.23304e-07
-0.0132863
5.22953e-07
-0.00027751
-0.000832583
2.55638e-08
-0.00138781
1.02035e-07
-0.00194337
2.26341e-07
-0.00249926
3.98215e-07
-0.00305574
6.06117e-07
-0.00361281
8.56475e-07
-0.00417059
1.12064e-06
-0.00472935
1.42209e-06
-0.00528882
1.70378e-06
-0.00584973
2.01775e-06
-0.00641141
2.2721e-06
-0.00697469
2.54844e-06
-0.00753931
2.73456e-06
-0.00810499
2.8967e-06
-0.0086734
2.98628e-06
-0.00924112
2.89696e-06
-0.00981539
2.97168e-06
-0.0103831
2.28209e-06
-0.0109649
2.51952e-06
-0.0115335
1.72491e-06
-0.0121216
1.19824e-06
-0.0126922
3.81998e-07
-0.0132858
-1.6505e-07
-0.000277535
-0.000832659
3.36831e-08
-0.00138794
1.34419e-07
-0.00194354
2.99532e-07
-0.00249947
5.26938e-07
-0.00305599
8.08536e-07
-0.00361307
1.14259e-06
-0.00417089
1.51314e-06
-0.00472964
1.92064e-06
-0.00528914
2.34025e-06
-0.00584998
2.77415e-06
-0.00641169
3.19415e-06
-0.00697488
3.59608e-06
-0.00753947
3.96512e-06
-0.00810508
4.26049e-06
-0.00867331
4.52337e-06
-0.0092412
4.61484e-06
-0.00981469
4.72864e-06
-0.0103833
4.39938e-06
-0.0109641
4.36705e-06
-0.011533
3.67276e-06
-0.0121208
3.2041e-06
-0.0126916
2.27155e-06
-0.0132859
1.35363e-06
-0.000277569
-0.00083276
3.76107e-08
-0.0013881
1.50106e-07
-0.00194376
3.34775e-07
-0.00249975
5.89031e-07
-0.00305632
9.05055e-07
-0.00361344
1.27935e-06
-0.0041713
1.69739e-06
-0.00473006
2.15541e-06
-0.00528957
2.63214e-06
-0.0058504
3.12176e-06
-0.00641209
3.60243e-06
-0.00697525
4.05832e-06
-0.00753976
4.48265e-06
-0.00810534
4.82332e-06
-0.00867341
5.12543e-06
-0.00924131
5.24978e-06
-0.00981436
5.36814e-06
-0.0103833
5.08118e-06
-0.0109634
4.96665e-06
-0.0115325
4.21521e-06
-0.0121199
3.67111e-06
-0.0126907
2.63914e-06
-0.0132846
1.61464e-06
-0.000277606
-0.000832872
4.14486e-08
-0.00138829
1.65438e-07
-0.00194402
3.69094e-07
-0.00250007
6.49569e-07
-0.0030567
9.98611e-07
-0.00361386
1.41229e-06
-0.00417175
1.87527e-06
-0.00473053
2.38334e-06
-0.00529006
2.91354e-06
-0.00585088
3.45982e-06
-0.00641254
3.99661e-06
-0.00697567
4.50923e-06
-0.0075401
4.98345e-06
-0.00810565
5.37256e-06
-0.00867354
5.70864e-06
-0.00924143
5.8627e-06
-0.00981408
5.99631e-06
-0.0103831
5.71781e-06
-0.0109626
5.59523e-06
-0.011532
4.80928e-06
-0.0121189
4.19921e-06
-0.0126897
2.98864e-06
-0.013283
1.79392e-06
-0.000277648
-0.000832996
4.51473e-08
-0.00138849
1.80195e-07
-0.0019443
4.02086e-07
-0.00250042
7.07562e-07
-0.00305711
1.08808e-06
-0.00361432
1.53882e-06
-0.00417226
2.04437e-06
-0.00473106
2.59896e-06
-0.00529061
3.17993e-06
-0.00585142
3.77853e-06
-0.00641306
4.36948e-06
-0.00697614
4.93426e-06
-0.00754049
5.45766e-06
-0.00810598
5.89042e-06
-0.00867369
6.25939e-06
-0.00924157
6.44139e-06
-0.0098138
6.5801e-06
-0.010383
6.328e-06
-0.0109618
6.17164e-06
-0.0115313
5.3746e-06
-0.0121177
4.82815e-06
-0.0126885
3.36127e-06
-0.0132812
2.01083e-06
-0.000277693
-0.000833131
4.87951e-08
-0.00138871
1.94738e-07
-0.0019446
4.34546e-07
-0.0025008
7.64525e-07
-0.00305756
1.17568e-06
-0.00361483
1.66238e-06
-0.00417282
2.2088e-06
-0.00473164
2.80802e-06
-0.00529121
3.4371e-06
-0.00585201
4.08569e-06
-0.00641362
4.72785e-06
-0.00697666
5.34296e-06
-0.00754092
5.91345e-06
-0.00810635
6.38884e-06
-0.00867388
6.78934e-06
-0.0092417
6.99653e-06
-0.00981355
7.1353e-06
-0.0103829
6.90237e-06
-0.010961
6.72176e-06
-0.0115308
5.89187e-06
-0.0121162
4.8743e-06
-0.0126872
3.6922e-06
-0.0132791
2.20185e-06
-0.000277742
-0.000833276
5.23905e-08
-0.00138895
2.09068e-07
-0.00194493
4.66514e-07
-0.00250121
8.20575e-07
-0.00305805
1.26174e-06
-0.00361537
1.7835e-06
-0.00417341
2.36946e-06
-0.00473227
3.01153e-06
-0.00529185
3.68635e-06
-0.00585265
4.38215e-06
-0.00641424
5.07237e-06
-0.00697723
5.73483e-06
-0.00754139
6.34991e-06
-0.00810675
6.86624e-06
-0.00867409
7.29766e-06
-0.00924184
7.52813e-06
-0.00981332
7.66574e-06
-0.0103827
7.44671e-06
-0.0109602
7.24622e-06
-0.0115301
6.39887e-06
-0.0121147
5.59509e-06
-0.0126857
4.03265e-06
-0.0132769
2.39763e-06
-0.000277794
-0.000833433
5.59481e-08
-0.00138921
2.23252e-07
-0.00194529
4.98168e-07
-0.00250165
8.76104e-07
-0.00305857
1.34699e-06
-0.00361596
1.90343e-06
-0.00417406
2.52826e-06
-0.00473295
3.21221e-06
-0.00529255
3.93116e-06
-0.00585334
4.67207e-06
-0.0064149
5.40747e-06
-0.00697785
6.11423e-06
-0.00754191
6.77071e-06
-0.00810719
7.32562e-06
-0.00867432
7.78714e-06
-0.00924198
8.04202e-06
-0.0098131
8.1856e-06
-0.0103825
7.969e-06
-0.0109594
7.74132e-06
-0.0115293
6.86185e-06
-0.0121132
6.00748e-06
-0.012684
4.35402e-06
-0.0132745
2.58258e-06
-0.00027785
-0.0008336
5.94606e-08
-0.00138948
2.37265e-07
-0.00194567
5.29471e-07
-0.00250212
9.31092e-07
-0.00305913
1.43151e-06
-0.00361659
2.02244e-06
-0.00417474
2.68585e-06
-0.00473367
3.41121e-06
-0.00529329
4.17335e-06
-0.00585408
4.9579e-06
-0.00641561
5.73616e-06
-0.0069785
6.48425e-06
-0.00754246
7.17853e-06
-0.00810765
7.76847e-06
-0.00867458
8.25717e-06
-0.00924213
8.53491e-06
-0.00981289
8.68521e-06
-0.0103822
8.4664e-06
-0.0109585
8.20426e-06
-0.0115284
7.28739e-06
-0.0121115
6.37428e-06
-0.0126822
4.64911e-06
-0.013272
2.75306e-06
-0.000277909
-0.000833778
6.29277e-08
-0.00138977
2.51102e-07
-0.00194607
5.60415e-07
-0.00250262
9.85526e-07
-0.00305972
1.5153e-06
-0.00361725
2.14062e-06
-0.00417547
2.84255e-06
-0.00473443
3.60923e-06
-0.00529408
4.41426e-06
-0.00585486
5.24176e-06
-0.00641635
6.06148e-06
-0.0069792
6.84867e-06
-0.00754305
7.57756e-06
-0.00810814
8.19875e-06
-0.00867486
8.71094e-06
-0.00924228
9.00839e-06
-0.00981267
9.16292e-06
-0.010382
8.94473e-06
-0.0109576
8.64296e-06
-0.0115275
7.68029e-06
-0.0121098
6.70668e-06
-0.0126803
4.89273e-06
-0.0132692
2.90044e-06
-0.000277972
-0.000833966
6.63517e-08
-0.00139008
2.64767e-07
-0.00194649
5.90982e-07
-0.00250315
1.03934e-06
-0.00306034
1.59821e-06
-0.00361795
2.2577e-06
-0.00417623
2.99799e-06
-0.00473523
3.80594e-06
-0.0052949
4.65383e-06
-0.00585568
5.52414e-06
-0.00641714
6.3848e-06
-0.00697993
7.20986e-06
-0.00754367
7.97113e-06
-0.00810865
8.62023e-06
-0.00867516
9.1518e-06
-0.00924243
9.46491e-06
-0.00981245
9.62206e-06
-0.0103817
9.40638e-06
-0.0109566
9.06282e-06
-0.0115265
8.05536e-06
-0.012108
7.0119e-06
-0.0126783
5.05199e-06
-0.0132663
3.02687e-06
-0.000278038
-0.000834164
6.97397e-08
-0.00139041
2.78281e-07
-0.00194694
6.21193e-07
-0.00250371
1.09249e-06
-0.003061
1.68007e-06
-0.00361869
2.3733e-06
-0.00417704
3.15153e-06
-0.00473608
4.00045e-06
-0.00529577
4.89103e-06
-0.00585654
5.80415e-06
-0.00641796
6.7058e-06
-0.00698069
7.56854e-06
-0.00754432
8.36138e-06
-0.00810918
9.03642e-06
-0.00867547
9.58395e-06
-0.00924259
9.90787e-06
-0.00981223
1.00636e-05
-0.0103813
9.84796e-06
-0.0109556
9.46357e-06
-0.0115255
8.4177e-06
-0.012106
7.31099e-06
-0.0126763
5.27184e-06
-0.0132633
3.15955e-06
-0.000278108
-0.000834373
7.30949e-08
-0.00139075
2.91656e-07
-0.00194741
6.5105e-07
-0.0025043
1.14493e-06
-0.00306169
1.76068e-06
-0.00361947
2.48697e-06
-0.00417789
3.30235e-06
-0.00473697
4.19145e-06
-0.00529669
5.12409e-06
-0.00585744
6.0797e-06
-0.00641883
7.02238e-06
-0.00698148
7.92311e-06
-0.00754499
8.74793e-06
-0.00810973
9.44878e-06
-0.0086758
1.00112e-05
-0.00924275
1.03426e-05
-0.00981202
1.04904e-05
-0.0103809
1.02619e-05
-0.0109545
9.84336e-06
-0.0115244
8.76007e-06
-0.012104
7.59288e-06
-0.0126742
5.49007e-06
-0.0132601
3.28311e-06
-0.000278181
-0.000834591
7.6408e-08
-0.00139111
3.0485e-07
-0.00194791
6.80449e-07
-0.00250491
1.19644e-06
-0.00306242
1.83965e-06
-0.00362028
2.59804e-06
-0.00417878
3.44936e-06
-0.00473791
4.37734e-06
-0.00529764
5.35075e-06
-0.00585838
6.34782e-06
-0.00641973
7.33099e-06
-0.0069823
8.26979e-06
-0.00754569
9.12739e-06
-0.00811029
9.85514e-06
-0.00867613
1.04337e-05
-0.0092429
1.0773e-05
-0.00981179
1.09116e-05
-0.0103805
1.06664e-05
-0.0109535
1.02129e-05
-0.0115232
9.0933e-06
-0.0121019
7.86423e-06
-0.012672
5.69075e-06
-0.0132568
3.39856e-06
-0.000278258
-0.00083482
7.96534e-08
-0.00139149
3.17761e-07
-0.00194842
7.09174e-07
-0.00250555
1.24667e-06
-0.00306318
1.91647e-06
-0.00362113
2.70576e-06
-0.00417971
3.59153e-06
-0.00473888
4.55662e-06
-0.00529864
5.5689e-06
-0.00585936
6.60563e-06
-0.00642067
7.6279e-06
-0.00698316
8.60403e-06
-0.00754642
9.49471e-06
-0.00811087
1.02505e-05
-0.00867648
1.08474e-05
-0.00924304
1.11969e-05
-0.00981154
1.13285e-05
-0.0103801
1.10686e-05
-0.0109523
1.05758e-05
-0.011522
9.42285e-06
-0.0120997
8.13273e-06
-0.0126697
5.88547e-06
-0.0132534
3.50819e-06
-0.000278337
-0.000835058
8.27734e-08
-0.00139188
3.30167e-07
-0.00194896
7.36764e-07
-0.00250622
1.29487e-06
-0.00306397
1.99009e-06
-0.00362202
2.80884e-06
-0.00418067
3.72725e-06
-0.00473989
4.72734e-06
-0.00529968
5.77609e-06
-0.00586039
6.84996e-06
-0.00642164
7.90894e-06
-0.00698405
8.92055e-06
-0.00754718
9.84342e-06
-0.00811147
1.06277e-05
-0.00867683
1.1245e-05
-0.00924317
1.16076e-05
-0.00981128
1.17362e-05
-0.0103796
1.14644e-05
-0.0109512
1.09321e-05
-0.0115207
9.75257e-06
-0.0120975
8.40394e-06
-0.0126673
6.07986e-06
-0.0132499
3.61484e-06
-0.00027842
-0.000835305
8.56914e-08
-0.00139228
3.41776e-07
-0.00194952
7.62601e-07
-0.00250692
1.34006e-06
-0.00306479
2.05916e-06
-0.00362294
2.90555e-06
-0.00418167
3.85454e-06
-0.00474094
4.88725e-06
-0.00530075
5.96975e-06
-0.00586145
7.07778e-06
-0.00642265
8.17037e-06
-0.00698498
9.21448e-06
-0.00754796
1.01672e-05
-0.00811209
1.09787e-05
-0.00867719
1.16172e-05
-0.0092433
1.19956e-05
-0.00981101
1.21263e-05
-0.010379
1.18471e-05
-0.01095
1.12796e-05
-0.0115193
1.00817e-05
-0.0120952
8.67991e-06
-0.0126649
6.28014e-06
-0.0132463
3.72239e-06
-0.000278506
-0.000835561
8.83187e-08
-0.00139271
3.52241e-07
-0.0019501
7.85947e-07
-0.00250764
1.38101e-06
-0.00306563
2.12195e-06
-0.00362389
2.99372e-06
-0.00418271
3.97082e-06
-0.00474202
5.03348e-06
-0.00530186
6.14681e-06
-0.00586254
7.28578e-06
-0.0064237
8.40844e-06
-0.00698593
9.48134e-06
-0.00754877
1.04604e-05
-0.00811273
1.1296e-05
-0.00867758
1.19541e-05
-0.00924343
1.23488e-05
-0.00981073
1.24856e-05
-0.0103785
1.22065e-05
-0.0109488
1.16184e-05
-0.0115179
1.04024e-05
-0.0120928
8.95288e-06
-0.0126623
6.48732e-06
-0.0132425
3.83342e-06
-0.000278594
-0.000835825
9.05696e-08
-0.00139314
3.61224e-07
-0.00195069
8.06059e-07
-0.00250838
1.41645e-06
-0.00306651
2.17657e-06
-0.00362486
3.07084e-06
-0.00418377
4.07303e-06
-0.00474313
5.16251e-06
-0.005303
6.30345e-06
-0.00586366
7.46992e-06
-0.00642477
8.61895e-06
-0.00698691
9.71661e-06
-0.00754961
1.07177e-05
-0.00811338
1.15733e-05
-0.00867797
1.22473e-05
-0.00924357
1.26557e-05
-0.00981045
1.27987e-05
-0.0103779
1.25235e-05
-0.0109476
1.19259e-05
-0.0115165
1.06933e-05
-0.0120904
9.2034e-06
-0.0126597
6.69158e-06
-0.0132387
3.9448e-06
-0.000278685
-0.000836096
9.23742e-08
-0.00139358
3.68443e-07
-0.0019513
8.2229e-07
-0.00250914
1.44522e-06
-0.0030674
2.2212e-06
-0.00362586
3.13431e-06
-0.00418486
4.15778e-06
-0.00474428
5.27027e-06
-0.00530417
6.43503e-06
-0.00586481
7.62527e-06
-0.00642587
8.7968e-06
-0.00698791
9.91511e-06
-0.00755046
1.09339e-05
-0.00811406
1.18046e-05
-0.00867838
1.24899e-05
-0.00924371
1.29076e-05
-0.00981018
1.30539e-05
-0.0103773
1.27805e-05
-0.0109463
1.21727e-05
-0.011515
1.09304e-05
-0.0120879
9.40601e-06
-0.012657
6.86686e-06
-0.0132347
4.04071e-06
-0.000278777
-0.000836372
9.3685e-08
-0.00139404
3.73699e-07
-0.00195192
8.34161e-07
-0.00250991
1.46639e-06
-0.00306831
2.25428e-06
-0.00362689
3.18177e-06
-0.00418597
4.22174e-06
-0.00474544
5.35241e-06
-0.00530536
6.53632e-06
-0.00586598
7.74586e-06
-0.00642699
8.93565e-06
-0.00698893
1.00704e-05
-0.00755133
1.11026e-05
-0.00811474
1.19837e-05
-0.0086788
1.26753e-05
-0.00924386
1.30971e-05
-0.00980991
1.32424e-05
-0.0103767
1.29674e-05
-0.0109451
1.23476e-05
-0.0115135
1.10984e-05
-0.0120853
9.53327e-06
-0.0126542
6.96893e-06
-0.0132306
4.0891e-06
-0.000278871
-0.000836653
9.44908e-08
-0.0013945
3.76937e-07
-0.00195256
8.41506e-07
-0.0025107
1.47957e-06
-0.00306924
2.27505e-06
-0.00362793
3.21187e-06
-0.0041871
4.26279e-06
-0.00474662
5.40594e-06
-0.00530657
6.60328e-06
-0.00586717
7.827e-06
-0.00642812
9.03021e-06
-0.00698996
1.01775e-05
-0.00755222
1.12188e-05
-0.00811543
1.21069e-05
-0.00867922
1.27999e-05
-0.009244
1.32219e-05
-0.00980963
1.33605e-05
-0.0103761
1.30808e-05
-0.0109438
1.24469e-05
-0.0115119
1.1193e-05
-0.0120828
9.57495e-06
-0.0126513
6.95972e-06
-0.0132265
4.0664e-06
-0.000278966
-0.000836935
9.51726e-08
-0.00139496
3.79671e-07
-0.00195319
8.477e-07
-0.0025115
1.49068e-06
-0.00307018
2.29256e-06
-0.00362898
3.23736e-06
-0.00418825
4.2979e-06
-0.00474782
5.45245e-06
-0.00530779
6.66289e-06
-0.00586837
7.90135e-06
-0.00642927
9.1202e-06
-0.006991
1.02835e-05
-0.0075531
1.13398e-05
-0.00811613
1.22411e-05
-0.00867965
1.29437e-05
-0.00924414
1.33731e-05
-0.00980936
1.35137e-05
-0.0103754
1.32364e-05
-0.0109426
1.25972e-05
-0.0115103
1.13452e-05
-0.0120802
9.6926e-06
-0.0126484
7.04947e-06
-0.0132225
4.17746e-06
-0.000279061
-0.00083722
9.54632e-08
-0.00139543
3.80834e-07
-0.00195384
8.50337e-07
-0.0025123
1.49541e-06
-0.00307112
2.30005e-06
-0.00363004
3.24838e-06
-0.0041894
4.31338e-06
-0.00474903
5.47365e-06
-0.00530903
6.69136e-06
-0.00586959
7.93893e-06
-0.00643043
9.16867e-06
-0.00699206
1.03443e-05
-0.00755401
1.14138e-05
-0.00811683
1.23278e-05
-0.00868007
1.30413e-05
-0.00924428
1.3479e-05
-0.00980908
1.36235e-05
-0.0103748
1.3349e-05
-0.0109413
1.27046e-05
-0.0115086
1.14522e-05
-0.0120776
9.78386e-06
-0.0126455
7.13868e-06
-0.0132184
4.35772e-06
-0.000279157
-0.000837506
9.52527e-08
-0.0013959
3.7999e-07
-0.00195448
8.48451e-07
-0.0025131
1.49209e-06
-0.00307207
2.29493e-06
-0.0036311
3.24119e-06
-0.00419056
4.30406e-06
-0.00475025
5.46254e-06
-0.00531028
6.67927e-06
-0.00587082
7.92738e-06
-0.00643161
9.15953e-06
-0.00699313
1.03399e-05
-0.00755492
1.14163e-05
-0.00811754
1.23388e-05
-0.00868051
1.30606e-05
-0.00924443
1.35056e-05
-0.0098088
1.36536e-05
-0.0103741
1.33807e-05
-0.0109401
1.27295e-05
-0.0115069
1.14776e-05
-0.0120749
9.80545e-06
-0.0126426
7.15726e-06
-0.0132141
3.97841e-06
-0.000279252
-0.000837791
9.45781e-08
-0.00139637
3.77296e-07
-0.00195513
8.4243e-07
-0.0025139
1.48148e-06
-0.00307302
2.2785e-06
-0.00363216
3.21787e-06
-0.00419172
4.27292e-06
-0.00475146
5.42313e-06
-0.00531152
6.63157e-06
-0.00587205
7.87229e-06
-0.00643279
9.09863e-06
-0.00699421
1.02758e-05
-0.00755584
1.13522e-05
-0.00811827
1.2278e-05
-0.00868096
1.30059e-05
-0.00924457
1.34586e-05
-0.00980853
1.36127e-05
-0.0103735
1.33444e-05
-0.0109388
1.26886e-05
-0.0115053
1.14332e-05
-0.0120723
9.75516e-06
-0.0126397
7.14178e-06
-0.0132098
3.94559e-06
-0.000279347
-0.000838074
9.34658e-08
-0.00139684
3.72866e-07
-0.00195577
8.32562e-07
-0.0025147
1.46417e-06
-0.00307395
2.25184e-06
-0.00363322
3.18018e-06
-0.00419287
4.22272e-06
-0.00475267
5.35933e-06
-0.00531277
6.55351e-06
-0.00587328
7.78018e-06
-0.00643397
8.99344e-06
-0.00699528
1.01599e-05
-0.00755677
1.12287e-05
-0.00811899
1.21517e-05
-0.00868141
1.28816e-05
-0.00924473
1.33413e-05
-0.00980826
1.35055e-05
-0.0103728
1.32489e-05
-0.0109375
1.25989e-05
-0.0115036
1.13467e-05
-0.0120697
9.64796e-06
-0.0126368
7.09302e-06
-0.0132055
4.19824e-06
-0.00027944
-0.000838354
9.19424e-08
-0.0013973
3.66809e-07
-0.0019564
8.19106e-07
-0.00251549
1.44065e-06
-0.00307488
2.21584e-06
-0.00363426
3.12959e-06
-0.00419401
4.15572e-06
-0.00475387
5.27457e-06
-0.00531399
6.44994e-06
-0.00587449
7.65756e-06
-0.00643513
8.85213e-06
-0.00699635
1.00015e-05
-0.00755769
1.10558e-05
-0.00811972
1.19689e-05
-0.00868187
1.26947e-05
-0.00924489
1.31579e-05
-0.009808
1.33332e-05
-0.0103722
1.30951e-05
-0.0109363
1.24653e-05
-0.0115019
1.12359e-05
-0.0120671
9.54569e-06
-0.0126338
7.01624e-06
-0.0132014
4.16746e-06
-0.000279532
-0.000838629
9.00471e-08
-0.00139775
3.5928e-07
-0.00195702
8.024e-07
-0.00251626
1.41152e-06
-0.0030758
2.1714e-06
-0.00363529
3.06743e-06
-0.00419513
4.07389e-06
-0.00475504
5.17162e-06
-0.0053152
6.32486e-06
-0.00587569
7.51004e-06
-0.00643628
8.68226e-06
-0.00699741
9.81029e-06
-0.0075586
1.08448e-05
-0.00812045
1.17418e-05
-0.00868233
1.24566e-05
-0.00924506
1.29172e-05
-0.00980775
1.30998e-05
-0.0103716
1.28808e-05
-0.0109351
1.228e-05
-0.0115002
1.10895e-05
-0.0120646
9.43557e-06
-0.012631
6.93698e-06
-0.0131972
4.12162e-06
-0.000279623
-0.000838899
8.78374e-08
-0.00139819
3.50502e-07
-0.00195763
7.82915e-07
-0.00251702
1.37755e-06
-0.00307669
2.11965e-06
-0.00363629
2.99519e-06
-0.00419622
3.97906e-06
-0.0047562
5.05287e-06
-0.00531639
6.18139e-06
-0.00587686
7.34187e-06
-0.00643741
8.48972e-06
-0.00699844
9.59433e-06
-0.0075595
1.06064e-05
-0.00812117
1.14836e-05
-0.00868279
1.21819e-05
-0.00924525
1.26333e-05
-0.00980753
1.2816e-05
-0.010371
1.26109e-05
-0.0109339
1.20394e-05
-0.0114986
1.08955e-05
-0.0120621
9.2923e-06
-0.0126282
6.85597e-06
-0.0131931
4.06747e-06
-0.000279711
-0.000839162
8.53866e-08
-0.00139862
3.40759e-07
-0.00195822
7.61262e-07
-0.00251776
1.33975e-06
-0.00307757
2.06198e-06
-0.00363728
2.91465e-06
-0.0041973
3.87335e-06
-0.00475732
4.92063e-06
-0.00531755
6.02214e-06
-0.00587801
7.15606e-06
-0.00643852
8.27837e-06
-0.00699945
9.35891e-06
-0.00756038
1.03482e-05
-0.00812186
1.12048e-05
-0.00868325
1.18847e-05
-0.00924543
1.23229e-05
-0.00980733
1.24987e-05
-0.0103704
1.22991e-05
-0.0109327
1.17491e-05
-0.011497
1.06493e-05
-0.0120597
9.10991e-06
-0.0126254
6.77383e-06
-0.013189
4.00767e-06
-0.000279796
-0.000839417
8.27758e-08
-0.00139904
3.30369e-07
-0.0019588
7.38126e-07
-0.00251848
1.29927e-06
-0.00307842
2.00006e-06
-0.00363824
2.82792e-06
-0.00419835
3.75924e-06
-0.00475843
4.77759e-06
-0.00531868
5.84974e-06
-0.00587913
6.95514e-06
-0.00643959
8.05061e-06
-0.00700044
9.10669e-06
-0.00756123
1.00738e-05
-0.00812254
1.09113e-05
-0.00868369
1.15746e-05
-0.0092456
1.20002e-05
-0.00980713
1.21667e-05
-0.0103698
1.19659e-05
-0.0109316
1.14254e-05
-0.0114954
1.03553e-05
-0.0120573
8.87564e-06
-0.0126226
6.64675e-06
-0.013185
3.93088e-06
-0.000279879
-0.000839665
8.00799e-08
-0.00139945
3.19628e-07
-0.00195936
7.14161e-07
-0.00251918
1.25722e-06
-0.00307925
1.93554e-06
-0.00363917
2.73723e-06
-0.00419937
3.63941e-06
-0.0047595
4.62674e-06
-0.00531979
5.66719e-06
-0.00588022
6.74173e-06
-0.00644065
7.80841e-06
-0.00700141
8.83881e-06
-0.00756207
9.78381e-06
-0.00812321
1.06039e-05
-0.00868411
1.1254e-05
-0.00924577
1.16714e-05
-0.00980693
1.18325e-05
-0.0103693
1.16312e-05
-0.0109306
1.10948e-05
-0.0114939
1.004e-05
-0.0120551
8.59247e-06
-0.0126199
6.41888e-06
-0.0131811
3.82057e-06
-0.000279959
-0.000839905
7.7355e-08
-0.00139985
3.08761e-07
-0.0019599
6.89876e-07
-0.00251986
1.21452e-06
-0.00308005
1.86983e-06
-0.00364007
2.64451e-06
-0.00420036
3.51636e-06
-0.00476054
4.47105e-06
-0.00532086
5.4777e-06
-0.00588129
6.51889e-06
-0.00644168
7.55413e-06
-0.00700235
8.55631e-06
-0.00756289
9.47757e-06
-0.00812386
1.02801e-05
-0.00868453
1.09194e-05
-0.00924593
1.13333e-05
-0.00980674
1.14964e-05
-0.0103688
1.13023e-05
-0.0109295
1.07765e-05
-0.0114925
9.73743e-06
-0.012053
8.3135e-06
-0.0126173
6.18664e-06
-0.0131773
3.67737e-06
-0.000280037
-0.000840136
7.46307e-08
-0.00140023
2.9789e-07
-0.00196043
6.65556e-07
-0.00252052
1.17169e-06
-0.00308082
1.80378e-06
-0.00364094
2.55107e-06
-0.00420131
3.39192e-06
-0.00476155
4.31285e-06
-0.0053219
5.28408e-06
-0.00588232
6.28963e-06
-0.00644268
7.29048e-06
-0.00700327
8.26102e-06
-0.00756369
9.15501e-06
-0.0081245
9.93715e-06
-0.00868494
1.05646e-05
-0.00924609
1.09763e-05
-0.00980655
1.11474e-05
-0.0103682
1.09691e-05
-0.0109285
1.0468e-05
-0.011491
9.45484e-06
-0.0120508
8.05861e-06
-0.0126148
5.97012e-06
-0.0131736
3.49143e-06
-0.000280111
-0.00084036
7.19048e-08
-0.00140059
2.87009e-07
-0.00196093
6.41206e-07
-0.00252115
1.12877e-06
-0.00308157
1.73753e-06
-0.00364179
2.4572e-06
-0.00420223
3.2666e-06
-0.00476252
4.15305e-06
-0.00532291
5.08768e-06
-0.00588332
6.0557e-06
-0.00644365
7.01939e-06
-0.00700417
7.95461e-06
-0.00756448
8.81692e-06
-0.00812512
9.57373e-06
-0.00868535
1.01844e-05
-0.00924627
1.05901e-05
-0.00980638
1.07691e-05
-0.0103677
1.06104e-05
-0.0109275
1.01481e-05
-0.0114896
9.17791e-06
-0.0120487
7.83626e-06
-0.0126123
5.7908e-06
-0.0131701
3.31785e-06
-0.000280183
-0.000840575
6.91539e-08
-0.00140095
2.7603e-07
-0.00196142
6.16635e-07
-0.00252176
1.08545e-06
-0.00308229
1.67063e-06
-0.0036426
2.36233e-06
-0.00420312
3.13984e-06
-0.00476346
3.99112e-06
-0.00532388
4.88817e-06
-0.00588428
5.81713e-06
-0.00644458
6.74136e-06
-0.00700503
7.63798e-06
-0.00756524
8.46435e-06
-0.00812574
9.19009e-06
-0.00868575
9.77676e-06
-0.00924645
1.01681e-05
-0.00980622
1.03482e-05
-0.0103673
1.02033e-05
-0.0109265
9.78341e-06
-0.0114883
8.86505e-06
-0.0120467
7.60881e-06
-0.0126098
5.64599e-06
-0.0131668
3.29316e-06
-0.000280252
-0.000840782
6.63285e-08
-0.00140129
2.64757e-07
-0.00196189
5.91412e-07
-0.00252234
1.04097e-06
-0.00308298
1.60191e-06
-0.00364337
2.26485e-06
-0.00420398
3.00957e-06
-0.00476436
3.82459e-06
-0.00532481
4.68278e-06
-0.00588521
5.57096e-06
-0.00644548
6.45359e-06
-0.00700585
7.30869e-06
-0.00756596
8.09558e-06
-0.00812632
8.78495e-06
-0.00868614
9.34032e-06
-0.00924663
9.70727e-06
-0.00980608
9.87778e-06
-0.0103668
9.73412e-06
-0.0109256
9.34645e-06
-0.0114871
8.47126e-06
-0.0120447
7.3046e-06
-0.0126075
5.43518e-06
-0.0131635
3.22729e-06
-0.000280319
-0.00084098
6.3362e-08
-0.00140162
2.52913e-07
-0.00196234
5.64909e-07
-0.0025229
9.94222e-07
-0.00308364
1.52965e-06
-0.00364412
2.16233e-06
-0.00420479
2.87251e-06
-0.00476522
3.64939e-06
-0.00532569
4.46643e-06
-0.00588609
5.3115e-06
-0.00644633
6.14949e-06
-0.00700664
6.96044e-06
-0.00756665
7.7038e-06
-0.00812688
8.35333e-06
-0.00868651
8.86945e-06
-0.0092468
9.20519e-06
-0.00980593
9.35211e-06
-0.0103664
9.20028e-06
-0.0109247
8.82148e-06
-0.0114859
7.97872e-06
-0.0120429
6.87687e-06
-0.0126052
5.10132e-06
-0.0131603
3.04354e-06
-0.000280382
-0.00084117
6.05112e-08
-0.00140193
2.41518e-07
-0.00196277
5.39417e-07
-0.00252344
9.49275e-07
-0.00308428
1.46023e-06
-0.00364483
2.06396e-06
-0.00420557
2.74121e-06
-0.00476603
3.48201e-06
-0.00532654
4.26008e-06
-0.00588692
5.06479e-06
-0.00644714
5.86095e-06
-0.00700738
6.63178e-06
-0.0075673
7.33546e-06
-0.0081274
7.95058e-06
-0.00868684
8.43036e-06
-0.00924695
8.73997e-06
-0.00980577
8.8635e-06
-0.0103661
8.70814e-06
-0.0109238
8.32654e-06
-0.0114848
7.51597e-06
-0.0120411
6.45342e-06
-0.0126032
4.75965e-06
-0.0131573
2.81498e-06
-0.000280443
-0.000841351
5.7989e-08
-0.00140223
2.31446e-07
-0.00196318
5.16903e-07
-0.00252395
9.09628e-07
-0.00308488
1.39913e-06
-0.00364551
1.97764e-06
-0.00420631
2.62656e-06
-0.00476681
3.33652e-06
-0.00532734
4.08193e-06
-0.00588772
4.85285e-06
-0.00644791
5.61566e-06
-0.00700808
6.35448e-06
-0.00756791
7.03044e-06
-0.00812789
7.62076e-06
-0.00868716
8.0801e-06
-0.00924707
8.37311e-06
-0.00980561
8.49518e-06
-0.0103657
8.34466e-06
-0.010923
7.98013e-06
-0.0114838
7.19949e-06
-0.0120394
6.19447e-06
-0.0126012
4.5556e-06
-0.0131545
2.73677e-06
-0.000280501
-0.000841525
5.52665e-08
-0.00140251
2.20571e-07
-0.00196357
4.92592e-07
-0.00252444
8.66804e-07
-0.00308546
1.33312e-06
-0.00364616
1.88441e-06
-0.00420702
2.50277e-06
-0.00476756
3.17943e-06
-0.00532811
3.88951e-06
-0.00588848
4.62367e-06
-0.00644865
5.35022e-06
-0.00700876
6.05402e-06
-0.0075685
6.6999e-06
-0.00812835
7.26286e-06
-0.00868746
7.70044e-06
-0.00924719
7.97556e-06
-0.00980545
8.09908e-06
-0.0103653
7.95584e-06
-0.0109222
7.60831e-06
-0.0114827
6.85385e-06
-0.0120378
5.89547e-06
-0.0125994
4.30347e-06
-0.0131517
2.65473e-06
-0.000280556
-0.00084169
5.23169e-08
-0.00140278
2.08786e-07
-0.00196394
4.66248e-07
-0.0025249
8.20407e-07
-0.00308601
1.26164e-06
-0.00364678
1.78352e-06
-0.0042077
2.36891e-06
-0.00476827
3.00966e-06
-0.00532885
3.68153e-06
-0.0058892
4.37586e-06
-0.00644935
5.06309e-06
-0.0070094
5.7288e-06
-0.00756905
6.34181e-06
-0.0081288
6.87462e-06
-0.00868775
7.2883e-06
-0.00924731
7.54412e-06
-0.00980529
7.67069e-06
-0.010365
7.53906e-06
-0.0109215
7.21564e-06
-0.0114818
6.49027e-06
-0.0120362
5.57164e-06
-0.0125977
4.01102e-06
-0.0131491
2.45668e-06
-0.000280609
-0.000841847
4.91169e-08
-0.00140304
1.95999e-07
-0.0019643
4.37673e-07
-0.00252534
7.70107e-07
-0.00308653
1.18422e-06
-0.00364736
1.67436e-06
-0.00420834
2.22423e-06
-0.00476895
2.82634e-06
-0.00532954
3.45711e-06
-0.00588989
4.10848e-06
-0.00645001
4.7535e-06
-0.00701001
5.37808e-06
-0.00756958
5.95571e-06
-0.00812922
6.45543e-06
-0.00868802
6.84357e-06
-0.00924743
7.07785e-06
-0.00980515
7.20632e-06
-0.0103647
7.08584e-06
-0.0109208
6.7961e-06
-0.0114809
6.10314e-06
-0.0120346
5.27725e-06
-0.0125962
4.01611e-06
-0.0131466
2.31167e-06
-0.000280658
-0.000841994
4.5646e-08
-0.00140328
1.82129e-07
-0.00196463
4.06684e-07
-0.00252576
7.15597e-07
-0.00308702
1.10038e-06
-0.00364791
1.5563e-06
-0.00420895
2.06792e-06
-0.00476958
2.62848e-06
-0.0053302
3.21518e-06
-0.00589053
3.8204e-06
-0.00645064
4.42038e-06
-0.00701058
5.00082e-06
-0.00757008
5.54077e-06
-0.00812962
6.0047e-06
-0.00868827
6.36695e-06
-0.00924755
6.57866e-06
-0.00980503
6.70661e-06
-0.0103644
6.59086e-06
-0.0109201
6.33184e-06
-0.01148
5.65923e-06
-0.0120331
4.96696e-06
-0.0125948
3.63306e-06
-0.0131443
2.16203e-06
-0.000280703
-0.00084213
4.18952e-08
-0.00140351
1.6713e-07
-0.00196494
3.73171e-07
-0.00252614
6.56665e-07
-0.00308748
1.0098e-06
-0.00364842
1.42884e-06
-0.0042095
1.89926e-06
-0.00477017
2.41513e-06
-0.0053308
2.9547e-06
-0.00589113
3.51049e-06
-0.00645121
4.06272e-06
-0.00701111
4.59582e-06
-0.00757054
5.09582e-06
-0.00812999
5.52084e-06
-0.0086885
5.85816e-06
-0.00924766
6.04791e-06
-0.00980492
6.17648e-06
-0.0103641
6.05786e-06
-0.0109194
5.82456e-06
-0.0114793
5.15738e-06
-0.0120318
4.60399e-06
-0.0125933
3.33545e-06
-0.0131421
1.98506e-06
-0.000280745
-0.000842256
3.78758e-08
-0.00140371
1.51022e-07
-0.00196522
3.37139e-07
-0.0025265
5.93279e-07
-0.0030879
9.12361e-07
-0.00364889
1.29177e-06
-0.00421002
1.71785e-06
-0.00477071
2.18569e-06
-0.00533136
2.67493e-06
-0.00589168
3.17788e-06
-0.00645175
3.67977e-06
-0.0070116
4.16216e-06
-0.00757096
4.62009e-06
-0.00813034
5.00202e-06
-0.00868871
5.316e-06
-0.00924778
5.48342e-06
-0.0098048
5.61693e-06
-0.0103639
5.48638e-06
-0.0109187
5.33419e-06
-0.0114788
5.0005e-06
-0.0120305
4.09562e-06
-0.0125919
3.02996e-06
-0.0131402
1.79669e-06
-0.000280783
-0.000842369
3.36155e-08
-0.0014039
1.3388e-07
-0.00196548
2.98715e-07
-0.00252682
5.25631e-07
-0.00308827
8.08253e-07
-0.00364932
1.14528e-06
-0.00421049
1.52388e-06
-0.0047712
1.94018e-06
-0.00533186
2.37581e-06
-0.00589219
2.82215e-06
-0.00645223
3.27128e-06
-0.00701205
3.69942e-06
-0.00757134
4.11391e-06
-0.00813066
4.44715e-06
-0.00868888
4.74187e-06
-0.00924791
4.88296e-06
-0.00980466
5.02459e-06
-0.0103637
4.85875e-06
-0.010918
4.81831e-06
-0.0114782
4.35147e-06
-0.0120294
3.66656e-06
-0.0125907
2.72732e-06
-0.0131384
1.61854e-06
-0.000280817
-0.000842469
2.91328e-08
-0.00140406
1.15773e-07
-0.0019657
2.58059e-07
-0.0025271
4.54032e-07
-0.00308861
6.97915e-07
-0.0036497
9.90028e-07
-0.0042109
1.31824e-06
-0.00477164
1.67958e-06
-0.00533231
2.05832e-06
-0.00589264
2.44382e-06
-0.00645265
2.83816e-06
-0.00701246
3.20754e-06
-0.00757168
3.57954e-06
-0.00813096
3.85563e-06
-0.00868901
4.14202e-06
-0.00924805
4.24596e-06
-0.00980443
4.42731e-06
-0.0103637
4.56353e-06
-0.0109175
4.14577e-06
-0.0114776
3.76078e-06
-0.0120285
3.20349e-06
-0.0125896
2.39735e-06
-0.0131368
1.42251e-06
-0.000280846
-0.000842556
2.43902e-08
-0.00140421
9.66993e-08
-0.0019659
2.15324e-07
-0.00252734
3.78914e-07
-0.0030889
5.82143e-07
-0.00365002
8.27128e-07