/*--------------------------------*- C++ -*----------------------------------*\
  =========                 |
  \\      /  F ield         | OpenFOAM: The Open Source CFD Toolbox
   \\    /   O peration     | Website:  https://openfoam.org
    \\  /    A nd           | Version:  10
     \\/     M anipulation  |
\*---------------------------------------------------------------------------*/
FoamFile
{
    format      ascii;
    class       volScalarField;
    location    "0.42";
    object      rho;
}
// * * * * * * * * * * * * * * * * * * * * * * * * * * * * * * * * * * * * * //

dimensions      [1 -3 0 0 0 0 0];

internalField   nonuniform List<scalar> 
4176
(
0.0308487
0.0308517
0.0308579
0.0308683
0.0308814
0.0308977
0.0309187
0.0309401
0.0309693
0.0309955
0.0310323
0.0310647
0.0311069
0.0311476
0.0311924
0.0312438
0.0312872
0.0313548
0.0313933
0.0314789
0.0315107
0.031616
0.0316363
0.0317504
0.0308567
0.0308596
0.0308648
0.0308747
0.0308858
0.0309016
0.0309192
0.0309399
0.0309649
0.0309899
0.031022
0.0310523
0.0310899
0.0311271
0.0311681
0.031214
0.0312542
0.0313143
0.03135
0.0314266
0.0314539
0.031554
0.0315749
0.0317037
0.030876
0.0308789
0.0308844
0.0308946
0.0309062
0.0309224
0.030941
0.0309621
0.0309884
0.031014
0.0310477
0.0310787
0.0311182
0.0311563
0.0311995
0.0312467
0.0312892
0.0313519
0.0313877
0.031468
0.0314956
0.0315944
0.0316134
0.0317344
0.0309047
0.0309076
0.0309129
0.0309228
0.0309341
0.0309498
0.0309679
0.0309884
0.0310142
0.0310387
0.031072
0.0311016
0.0311408
0.0311771
0.03122
0.0312654
0.0313075
0.0313703
0.0314015
0.0314841
0.0315093
0.0316067
0.0316247
0.0317367
0.0309441
0.030947
0.0309523
0.0309623
0.0309735
0.0309893
0.0310073
0.0310279
0.0310534
0.0310784
0.0311113
0.0311412
0.0311801
0.0312166
0.0312596
0.0313043
0.0313485
0.0314081
0.031443
0.0315235
0.0315504
0.0316474
0.0316668
0.0317803
0.0309936
0.0309965
0.0310017
0.0310116
0.0310225
0.0310382
0.0310558
0.0310764
0.0311013
0.0311261
0.0311583
0.0311881
0.0312263
0.0312624
0.0313049
0.0313487
0.0313932
0.0314499
0.0314882
0.0315647
0.0315924
0.0316883
0.0317085
0.0318236
0.0310535
0.0310564
0.0310615
0.0310714
0.0310822
0.0310978
0.0311152
0.0311356
0.0311603
0.0311848
0.0312168
0.0312462
0.0312842
0.0313198
0.0313623
0.0314053
0.03145
0.0315051
0.0315442
0.0316188
0.0316478
0.0317421
0.0317626
0.0318757
0.0311237
0.0311265
0.0311316
0.0311414
0.031152
0.0311675
0.0311846
0.0312048
0.0312291
0.0312534
0.0312849
0.031314
0.0313515
0.0313866
0.0314287
0.0314709
0.0315156
0.0315688
0.0316092
0.0316811
0.0317111
0.0318039
0.0318249
0.0319367
0.0312042
0.031207
0.031212
0.0312217
0.0312322
0.0312475
0.0312644
0.0312844
0.0313084
0.0313324
0.0313635
0.0313922
0.0314293
0.0314638
0.0315056
0.0315469
0.0315917
0.0316432
0.0316843
0.0317539
0.0317849
0.0318757
0.0318971
0.0320072
0.031295
0.0312978
0.0313027
0.0313124
0.0313227
0.0313379
0.0313545
0.0313742
0.0313979
0.0314215
0.0314523
0.0314805
0.0315172
0.031551
0.0315925
0.0316328
0.0316774
0.0317274
0.0317691
0.0318363
0.0318686
0.0319564
0.0319787
0.0320869
0.0313963
0.0313991
0.0314039
0.0314134
0.0314236
0.0314386
0.0314549
0.0314744
0.0314977
0.031521
0.0315513
0.0315791
0.0316153
0.0316484
0.0316895
0.0317289
0.0317733
0.0318217
0.031864
0.0319288
0.0319619
0.0320472
0.0320699
0.0321762
0.031508
0.0315108
0.0315155
0.031525
0.0315349
0.0315497
0.0315658
0.031585
0.0316079
0.0316309
0.0316607
0.0316879
0.0317236
0.0317561
0.0317966
0.0318351
0.0318791
0.0319261
0.0319688
0.0320312
0.0320647
0.032148
0.0321707
0.0322749
0.0316303
0.0316331
0.0316377
0.031647
0.0316567
0.0316714
0.0316871
0.031706
0.0317286
0.0317511
0.0317804
0.0318071
0.0318423
0.031874
0.031914
0.0319515
0.0319951
0.0320407
0.0320835
0.0321436
0.0321778
0.0322583
0.0322812
0.0323833
0.0317632
0.0317659
0.0317705
0.0317797
0.0317892
0.0318036
0.031819
0.0318376
0.0318597
0.0318818
0.0319106
0.0319367
0.0319713
0.0320023
0.0320417
0.0320781
0.0321213
0.0321653
0.0322083
0.032266
0.0323008
0.0323787
0.0324016
0.0325013
0.0319068
0.0319095
0.031914
0.031923
0.0319323
0.0319465
0.0319615
0.0319797
0.0320014
0.032023
0.0320513
0.0320767
0.0321107
0.0321409
0.0321798
0.0322151
0.0322577
0.0323003
0.0323432
0.0323985
0.0324337
0.0325091
0.0325319
0.0326291
0.0320612
0.0320639
0.0320682
0.0320772
0.0320861
0.0321001
0.0321147
0.0321326
0.0321537
0.0321748
0.0322025
0.0322273
0.0322607
0.03229
0.0323282
0.0323624
0.0324045
0.0324455
0.0324882
0.0325411
0.0325768
0.0326491
0.0326724
0.0327668
0.0322265
0.0322292
0.0322333
0.0322422
0.0322508
0.0322645
0.0322787
0.0322962
0.0323168
0.0323373
0.0323644
0.0323885
0.0324211
0.0324496
0.032487
0.0325201
0.0325616
0.0326011
0.0326435
0.032694
0.03273
0.0327994
0.032823
0.0329145
0.0324028
0.0324054
0.0324095
0.0324181
0.0324265
0.0324399
0.0324536
0.0324707
0.0324907
0.0325107
0.032537
0.0325604
0.0325923
0.0326198
0.0326564
0.0326884
0.0327291
0.0327671
0.032809
0.0328571
0.0328934
0.0329598
0.0329838
0.0330722
0.0325901
0.0325927
0.0325966
0.0326051
0.0326132
0.0326263
0.0326396
0.0326562
0.0326756
0.0326949
0.0327206
0.0327431
0.0327742
0.0328007
0.0328365
0.0328672
0.0329071
0.0329436
0.032985
0.0330307
0.0330672
0.0331305
0.0331548
0.0332401
0.0327887
0.0327913
0.032795
0.0328033
0.0328111
0.0328238
0.0328366
0.0328527
0.0328715
0.0328902
0.0329151
0.0329368
0.0329669
0.0329924
0.0330273
0.0330568
0.0330958
0.0331306
0.0331714
0.0332147
0.0332512
0.0333116
0.0333362
0.0334182
0.0329986
0.0330011
0.0330047
0.0330128
0.0330202
0.0330326
0.0330449
0.0330604
0.0330786
0.0330965
0.0331206
0.0331415
0.0331707
0.0331951
0.033229
0.0332571
0.0332951
0.0333283
0.0333683
0.0334093
0.033446
0.033503
0.033528
0.0336065
0.0332199
0.0332224
0.0332258
0.0332336
0.0332407
0.0332527
0.0332644
0.0332794
0.0332968
0.0333141
0.0333373
0.0333573
0.0333855
0.0334088
0.0334416
0.0334684
0.0335054
0.0335368
0.033576
0.0336147
0.0336511
0.033705
0.0337303
0.0338053
0.0334527
0.0334551
0.0334583
0.033466
0.0334726
0.0334842
0.0334954
0.0335098
0.0335265
0.0335429
0.0335653
0.0335843
0.0336116
0.0336336
0.0336654
0.0336907
0.0337266
0.0337563
0.0337945
0.0338309
0.0338671
0.0339175
0.0339431
0.0340145
0.0336971
0.0336995
0.0337025
0.0337099
0.0337161
0.0337273
0.0337378
0.0337516
0.0337675
0.0337832
0.0338046
0.0338226
0.0338489
0.0338697
0.0339004
0.0339243
0.033959
0.0339869
0.034024
0.0340581
0.0340939
0.0341411
0.0341665
0.0342343
0.0339532
0.0339555
0.0339583
0.0339655
0.0339713
0.033982
0.0339919
0.0340051
0.0340202
0.034035
0.0340555
0.0340724
0.0340976
0.0341172
0.0341467
0.0341691
0.0342026
0.0342286
0.0342647
0.0342964
0.0343318
0.0343754
0.0344008
0.0344648
0.034221
0.0342233
0.0342259
0.0342328
0.0342382
0.0342485
0.0342578
0.0342703
0.0342845
0.0342985
0.0343179
0.0343338
0.0343578
0.0343761
0.0344044
0.0344252
0.0344575
0.0344817
0.0345166
0.0345459
0.0345806
0.034621
0.034646
0.0347065
0.0345007
0.0345029
0.0345053
0.034512
0.034517
0.0345268
0.0345354
0.0345472
0.0345606
0.0345737
0.0345921
0.0346068
0.0346297
0.0346467
0.0346737
0.0346929
0.0347239
0.0347463
0.03478
0.0348069
0.0348408
0.0348777
0.0349026
0.0349594
0.0347923
0.0347945
0.0347967
0.0348031
0.0348076
0.034817
0.0348249
0.0348361
0.0348486
0.0348608
0.0348782
0.0348917
0.0349134
0.034929
0.0349546
0.0349723
0.0350019
0.0350223
0.0350548
0.0350793
0.0351122
0.0351457
0.0351705
0.0352234
0.0350959
0.0350981
0.0351001
0.0351063
0.0351103
0.0351192
0.0351265
0.035137
0.0351486
0.0351598
0.0351762
0.0351885
0.035209
0.0352231
0.0352475
0.0352634
0.0352917
0.0353101
0.0353412
0.0353633
0.0353953
0.0354251
0.0354502
0.0354984
0.0354117
0.0354138
0.0354156
0.0354215
0.0354251
0.0354335
0.0354401
0.0354499
0.0354607
0.0354709
0.0354862
0.0354974
0.0355166
0.0355293
0.0355523
0.0355665
0.0355933
0.0356097
0.0356395
0.0356591
0.03569
0.0357164
0.0357415
0.0357848
0.0357397
0.0357418
0.0357433
0.035749
0.0357521
0.03576
0.035766
0.035775
0.0357849
0.0357942
0.0358084
0.0358184
0.0358364
0.0358476
0.0358692
0.0358817
0.035907
0.0359213
0.0359496
0.0359668
0.0359966
0.0360196
0.0360441
0.0360835
0.03608
0.036082
0.0360834
0.0360887
0.0360914
0.0360988
0.0361041
0.0361124
0.0361214
0.0361298
0.0361429
0.0361517
0.0361684
0.0361782
0.0361984
0.0362091
0.036233
0.0362451
0.036272
0.0362866
0.036315
0.0363349
0.0363589
0.036394
0.0364327
0.0364346
0.0364358
0.0364408
0.0364431
0.03645
0.0364545
0.0364622
0.0364703
0.0364777
0.0364897
0.0364973
0.0365128
0.0365212
0.03654
0.0365489
0.0365713
0.0365813
0.0366066
0.0366186
0.0366457
0.0366622
0.0366862
0.0367163
0.0367978
0.0367997
0.0368007
0.0368055
0.0368072
0.0368137
0.0368175
0.0368244
0.0368316
0.0368381
0.036849
0.0368554
0.0368697
0.0368765
0.036894
0.0369012
0.0369221
0.0369299
0.0369537
0.0369631
0.0369887
0.0370021
0.0370254
0.0370511
0.0371755
0.0371774
0.0371781
0.0371826
0.0371839
0.0371899
0.0371931
0.0371993
0.0372056
0.0372111
0.0372209
0.0372261
0.0372391
0.0372445
0.0372606
0.037266
0.0372854
0.0372912
0.0373135
0.0373203
0.0373444
0.0373544
0.0373772
0.0373982
0.0375659
0.0375677
0.0375682
0.0375725
0.0375733
0.0375788
0.0375813
0.0375868
0.0375922
0.0375968
0.0376055
0.0376095
0.0376213
0.0376252
0.0376399
0.0376435
0.0376615
0.0376651
0.0376859
0.0376902
0.0377128
0.0377197
0.0377415
0.0377577
0.037969
0.0379707
0.037971
0.0379751
0.0379755
0.0379805
0.0379824
0.0379872
0.0379917
0.0379953
0.038003
0.0380058
0.0380163
0.0380186
0.0380319
0.0380337
0.0380503
0.0380518
0.0380711
0.0380729
0.0380941
0.0380978
0.0381183
0.0381299
0.0383849
0.0383867
0.0383868
0.0383906
0.0383905
0.0383951
0.0383963
0.0384004
0.0384041
0.0384068
0.0384134
0.038415
0.0384242
0.0384251
0.038437
0.0384369
0.038452
0.0384513
0.0384692
0.0384683
0.0384881
0.0384888
0.0385084
0.038515
0.0388138
0.0388156
0.0388155
0.038819
0.0388186
0.0388227
0.0388232
0.0388267
0.0388295
0.0388313
0.0388368
0.0388372
0.0388452
0.0388446
0.0388551
0.0388532
0.0388668
0.0388639
0.0388802
0.0388768
0.0388952
0.0388927
0.0389113
0.0389133
0.0392559
0.0392576
0.0392573
0.0392606
0.0392597
0.0392634
0.0392632
0.0392661
0.039268
0.0392689
0.0392734
0.0392726
0.0392794
0.0392773
0.0392864
0.0392827
0.0392948
0.0392897
0.0393044
0.0392983
0.0393153
0.0393096
0.0393272
0.039325
0.0397112
0.0397128
0.0397123
0.0397154
0.0397141
0.0397173
0.0397165
0.0397187
0.0397197
0.0397197
0.0397232
0.0397213
0.0397268
0.0397233
0.0397311
0.0397255
0.0397362
0.0397288
0.0397421
0.0397331
0.0397488
0.0397396
0.0397559
0.0397501
0.0401798
0.0401814
0.0401807
0.0401836
0.0401818
0.0401846
0.0401831
0.0401847
0.0401848
0.0401839
0.0401863
0.0401832
0.0401876
0.0401826
0.0401891
0.0401816
0.0401909
0.0401812
0.0401932
0.0401813
0.0401957
0.0401831
0.0401983
0.0401881
0.0406619
0.0406635
0.0406626
0.0406652
0.040663
0.0406654
0.0406632
0.0406641
0.0406634
0.0406615
0.0406629
0.0406586
0.0406618
0.0406553
0.0406605
0.0406512
0.0406592
0.0406471
0.0406579
0.040643
0.0406565
0.04064
0.0406544
0.0406395
0.0411577
0.0411592
0.0411581
0.0411605
0.0411578
0.0411597
0.0411569
0.0411571
0.0411555
0.0411527
0.041153
0.0411476
0.0411495
0.0411416
0.0411454
0.0411343
0.0411409
0.0411266
0.0411362
0.0411183
0.0411308
0.0411108
0.0411243
0.0411048
0.041667
0.0416685
0.0416672
0.0416694
0.0416662
0.0416677
0.0416642
0.0416637
0.0416612
0.0416576
0.0416568
0.0416501
0.0416508
0.0416414
0.0416439
0.041631
0.0416363
0.0416196
0.041628
0.0416072
0.0416189
0.0415952
0.0416079
0.0415841
0.0421902
0.0421916
0.0421901
0.042192
0.0421884
0.0421895
0.0421852
0.0421841
0.0421807
0.0421761
0.0421743
0.0421664
0.0421659
0.042155
0.0421562
0.0421414
0.0421453
0.0421262
0.0421336
0.0421098
0.0421206
0.0420932
0.0421055
0.0420768
0.0427271
0.0427286
0.0427268
0.0427285
0.0427244
0.042725
0.0427201
0.0427182
0.042714
0.0427085
0.0427055
0.0426965
0.0426947
0.0426823
0.0426822
0.0426655
0.0426681
0.0426466
0.0426529
0.0426261
0.0426361
0.0426046
0.0426173
0.0425831
0.0432779
0.0432793
0.0432774
0.0432788
0.0432742
0.0432744
0.0432688
0.0432663
0.0432611
0.0432546
0.0432507
0.0432404
0.0432374
0.0432235
0.043222
0.0432035
0.0432048
0.0431809
0.043186
0.0431562
0.0431652
0.0431295
0.0431431
0.0431035
0.0438426
0.0438439
0.0438418
0.0438429
0.0438379
0.0438376
0.0438313
0.0438281
0.0438221
0.0438147
0.0438096
0.0437981
0.043794
0.0437785
0.0437758
0.0437553
0.0437554
0.0437291
0.0437332
0.0437
0.0437086
0.0436684
0.0436825
0.0436379
0.044421
0.0444223
0.04442
0.0444209
0.0444154
0.0444147
0.0444077
0.0444038
0.0443969
0.0443886
0.0443825
0.0443698
0.0443644
0.0443474
0.0443435
0.044321
0.0443201
0.0442912
0.0442943
0.0442577
0.0442664
0.0442217
0.0442354
0.0441863
0.0450132
0.0450145
0.0450119
0.0450127
0.0450067
0.0450056
0.0449979
0.0449933
0.0449856
0.0449763
0.0449692
0.0449552
0.0449488
0.0449302
0.0449252
0.0449006
0.0448987
0.0448672
0.0448696
0.0448288
0.0448391
0.0447886
0.0448026
0.0447489
0.0456191
0.0456203
0.0456176
0.0456181
0.0456117
0.0456102
0.0456018
0.0455966
0.045588
0.0455778
0.0455698
0.0455545
0.0455471
0.0455268
0.0455208
0.0454939
0.0454915
0.0454568
0.0454593
0.0454142
0.0454246
0.0453704
0.0453839
0.0453257
0.0462385
0.0462397
0.0462368
0.0462371
0.0462303
0.0462283
0.0462194
0.0462135
0.0462042
0.0461929
0.0461841
0.0461675
0.0461592
0.0461371
0.0461305
0.046101
0.0460984
0.0460597
0.0460639
0.0460142
0.0460237
0.0459664
0.0459791
0.0459168
0.0468713
0.0468725
0.0468695
0.0468695
0.0468623
0.04686
0.0468504
0.0468439
0.0468338
0.0468217
0.0468121
0.0467941
0.0467852
0.0467611
0.0467542
0.0467218
0.0467195
0.0466772
0.0466812
0.0466285
0.0466372
0.0465766
0.0465887
0.0465222
0.0475174
0.0475186
0.0475154
0.0475152
0.0475076
0.047505
0.0474948
0.0474877
0.047477
0.0474638
0.0474537
0.0474341
0.047425
0.0473984
0.047392
0.0473564
0.0473543
0.0473092
0.0473117
0.047257
0.0472647
0.047201
0.0472123
0.047142
0.0481765
0.0481777
0.0481743
0.048174
0.048166
0.0481631
0.0481523
0.0481447
0.0481334
0.0481191
0.0481089
0.0480873
0.0480787
0.0480489
0.0480437
0.0480046
0.0480023
0.047955
0.0479566
0.0478997
0.0479059
0.0478397
0.0478501
0.047776
0.0488484
0.0488497
0.048846
0.0488458
0.0488373
0.0488342
0.0488228
0.0488146
0.0488032
0.0487873
0.0487776
0.0487535
0.0487456
0.0487135
0.0487076
0.0486671
0.0486638
0.0486148
0.0486151
0.0485562
0.0485614
0.0484922
0.0485021
0.0484243
0.0495329
0.0495343
0.0495302
0.0495302
0.0495212
0.0495181
0.0495061
0.0494972
0.049486
0.0494686
0.0494588
0.0494336
0.0494248
0.0493921
0.0493847
0.0493433
0.0493386
0.0492884
0.0492871
0.0492265
0.0492305
0.0491591
0.049168
0.0490867
0.0502298
0.0502313
0.0502269
0.0502271
0.0502173
0.0502146
0.0502019
0.0501928
0.0501809
0.0501631
0.0501525
0.0501268
0.050117
0.0500835
0.0500752
0.0500328
0.0500269
0.0499751
0.049973
0.0499106
0.0499134
0.0498395
0.0498479
0.0497633
0.0509389
0.0509405
0.0509361
0.050936
0.0509262
0.050923
0.0509097
0.0509014
0.0508879
0.0508703
0.0508589
0.0508326
0.0508219
0.0507878
0.0507784
0.0507353
0.0507283
0.0506754
0.0506721
0.050608
0.0506099
0.0505339
0.0505414
0.0504537
0.05166
0.0516616
0.0516573
0.051657
0.0516471
0.0516438
0.0516301
0.0516219
0.051607
0.0515903
0.0515774
0.0515509
0.0515395
0.051505
0.0514944
0.0514508
0.0514426
0.0513888
0.0513843
0.0513188
0.0513196
0.0512416
0.0512485
0.051158
0.052393
0.0523946
0.0523902
0.0523899
0.05238
0.0523765
0.0523625
0.0523542
0.0523385
0.0523223
0.0523078
0.052282
0.0522694
0.0522343
0.052223
0.0521789
0.0521696
0.0521148
0.0521096
0.0520425
0.0520425
0.0519627
0.0519688
0.0518756
0.0531377
0.0531393
0.053135
0.0531346
0.0531245
0.0531211
0.0531068
0.0530985
0.053082
0.0530663
0.0530504
0.0530253
0.0530113
0.052976
0.0529639
0.0529192
0.0529091
0.0528536
0.0528471
0.052779
0.0527781
0.0526965
0.052702
0.0526064
0.0538941
0.0538957
0.0538914
0.053891
0.0538808
0.0538773
0.0538628
0.0538545
0.0538375
0.0538219
0.0538051
0.0537804
0.053765
0.0537302
0.0537168
0.0536717
0.0536605
0.0536043
0.0535973
0.0535278
0.053526
0.0534431
0.0534478
0.0533499
0.0546621
0.0546638
0.0546595
0.0546591
0.0546488
0.0546453
0.0546305
0.0546221
0.0546047
0.0545893
0.0545716
0.054547
0.0545304
0.0544959
0.0544816
0.0544356
0.0544238
0.0543671
0.0543589
0.0542887
0.054286
0.0542016
0.0542057
0.054106
0.0554419
0.0554436
0.0554392
0.0554389
0.0554284
0.0554249
0.0554097
0.0554013
0.0553835
0.0553681
0.0553495
0.0553251
0.0553076
0.0552728
0.0552579
0.0552111
0.0551986
0.0551411
0.0551322
0.0550612
0.0550575
0.0549721
0.0549754
0.0548739
0.0562333
0.0562352
0.0562306
0.0562304
0.0562196
0.056216
0.0562005
0.056192
0.0561736
0.0561582
0.0561387
0.0561143
0.0560959
0.0560607
0.0560451
0.0559977
0.0559846
0.0559263
0.0559164
0.0558449
0.0558403
0.0557537
0.0557565
0.0556535
0.0570364
0.0570383
0.0570336
0.0570334
0.0570223
0.0570185
0.0570026
0.0569939
0.0569749
0.0569593
0.0569387
0.0569145
0.0568948
0.0568595
0.056843
0.056795
0.0567814
0.056722
0.0567114
0.0566394
0.0566337
0.0565466
0.0565485
0.0564442
0.0578509
0.0578529
0.057848
0.0578476
0.0578361
0.0578322
0.0578157
0.0578066
0.057787
0.057771
0.0577493
0.0577253
0.0577042
0.0576688
0.0576509
0.0576029
0.0575887
0.0575282
0.0575167
0.0574443
0.0574377
0.0573498
0.0573511
0.0572458
0.0586762
0.0586783
0.0586731
0.0586726
0.0586607
0.0586563
0.0586393
0.0586297
0.0586094
0.0585929
0.0585701
0.0585461
0.0585233
0.0584884
0.0584684
0.058421
0.0584057
0.0583444
0.0583322
0.0582592
0.0582519
0.0581637
0.0581641
0.0580581
0.0595114
0.0595134
0.0595081
0.0595073
0.0594951
0.0594902
0.0594727
0.0594624
0.0594414
0.0594244
0.0594005
0.0593766
0.0593518
0.0593177
0.0592959
0.0592486
0.0592319
0.0591707
0.0591578
0.0590842
0.0590762
0.0589876
0.0589875
0.0588809
0.0603547
0.0603568
0.0603514
0.0603503
0.0603379
0.0603326
0.0603147
0.0603039
0.0602823
0.0602647
0.0602401
0.060216
0.0601898
0.0601563
0.0601325
0.060086
0.0600667
0.0600072
0.0599936
0.059919
0.0599105
0.0598219
0.0598211
0.0597142
0.0612042
0.0612062
0.0612009
0.0611997
0.0611873
0.0611818
0.0611638
0.0611528
0.061131
0.0611131
0.0610881
0.061064
0.0610365
0.061004
0.0609778
0.0609332
0.0609116
0.0608534
0.0608384
0.060764
0.0607549
0.0606664
0.0606653
0.0605584
0.0620576
0.0620597
0.0620546
0.0620536
0.0620414
0.0620362
0.0620184
0.0620078
0.0619861
0.0619685
0.0619436
0.0619198
0.0618919
0.0618602
0.0618327
0.0617897
0.0617665
0.0617089
0.0616928
0.0616195
0.0616099
0.0615216
0.0615203
0.0614134
0.0629129
0.0629152
0.0629105
0.06291
0.0628984
0.062894
0.062877
0.0628673
0.0628465
0.0628299
0.0628057
0.0627829
0.0627554
0.0627249
0.062697
0.0626557
0.0626308
0.0625755
0.0625567
0.0624862
0.0624755
0.0623875
0.0623862
0.0622797
0.0637695
0.0637719
0.0637678
0.0637681
0.0637574
0.0637543
0.0637385
0.0637303
0.0637111
0.0636961
0.0636735
0.0636525
0.0636262
0.0635976
0.0635701
0.0635312
0.0635053
0.0634525
0.063433
0.0633632
0.0633526
0.0632648
0.0632635
0.0631574
0.064628
0.0646308
0.0646272
0.0646285
0.064619
0.0646173
0.0646032
0.0645968
0.0645796
0.0645669
0.0645464
0.0645279
0.0645037
0.0644775
0.0644518
0.0644155
0.0643905
0.0643403
0.0643209
0.064252
0.0642415
0.0641538
0.0641527
0.0640465
0.0654919
0.065495
0.0654919
0.0654942
0.0654856
0.0654855
0.0654729
0.0654685
0.0654534
0.0654429
0.0654249
0.065409
0.0653873
0.0653641
0.065341
0.0653075
0.0652846
0.0652376
0.0652194
0.065153
0.0651434
0.0650556
0.0650548
0.0649475
0.0663666
0.0663702
0.0663672
0.0663705
0.0663623
0.0663636
0.0663517
0.0663491
0.0663352
0.0663269
0.0663106
0.0662973
0.0662776
0.0662571
0.0662373
0.0662056
0.0661875
0.0661414
0.0661279
0.0660628
0.0660572
0.0659704
0.0659709
0.065863
0.06726
0.0672644
0.0672605
0.0672652
0.0672557
0.0672588
0.0672453
0.0672453
0.0672297
0.0672239
0.0672072
0.0671959
0.0671772
0.0671581
0.0671425
0.0671082
0.0670997
0.0670479
0.0670453
0.0669771
0.066979
0.0668945
0.0668985
0.0667962
0.0681814
0.0681853
0.0681822
0.068185
0.0681766
0.068177
0.0681648
0.0681614
0.0681471
0.0681386
0.0681223
0.0681098
0.0680903
0.0680732
0.0680548
0.0680236
0.0680144
0.0679654
0.0679633
0.0678979
0.0679027
0.0678203
0.0678291
0.0677345
0.0691391
0.0691427
0.069139
0.0691409
0.0691309
0.0691297
0.0691152
0.0691096
0.0690927
0.0690815
0.0690624
0.0690471
0.069025
0.069006
0.0689828
0.068955
0.0689382
0.068892
0.0688891
0.0688227
0.0688296
0.0687454
0.0687576
0.0686633
0.0701395
0.0701429
0.0701383
0.0701389
0.0701268
0.0701233
0.0701057
0.0700968
0.0700759
0.0700604
0.0700367
0.0700166
0.0699893
0.0699655
0.0699364
0.0699052
0.0698816
0.0698353
0.0698262
0.0697565
0.0697637
0.0696745
0.0696891
0.0695906
0.0711861
0.0711897
0.0711837
0.0711833
0.0711686
0.0711628
0.0711415
0.0711292
0.0711032
0.0710831
0.0710531
0.0710272
0.0709927
0.070962
0.0709246
0.0708864
0.0708546
0.070801
0.0707849
0.0707071
0.0707118
0.0706138
0.070629
0.0705221
0.0722789
0.0722831
0.0722751
0.0722744
0.0722571
0.0722496
0.0722243
0.0722096
0.0721776
0.0721548
0.0721163
0.0720867
0.0720422
0.072005
0.0719582
0.0719102
0.07187
0.0718013
0.0717785
0.0716863
0.0716837
0.0715725
0.0715853
0.0714645
0.0734146
0.0734181
0.0734108
0.0734077
0.0733903
0.0733797
0.0733536
0.0733342
0.0733012
0.0732713
0.0732317
0.0731931
0.0731453
0.0730992
0.0730437
0.0729896
0.0729316
0.072858
0.0728179
0.072713
0.0726958
0.0725658
0.0725704
0.0724276
0.0745864
0.0745897
0.0745824
0.0745787
0.0745605
0.074549
0.0745215
0.0745005
0.0744653
0.0744331
0.0743904
0.0743485
0.0742965
0.0742455
0.0741843
0.0741234
0.0740542
0.0739801
0.073912
0.0738092
0.0737655
0.0736181
0.0736061
0.0734301
0.0757865
0.0757897
0.0757825
0.0757787
0.0757603
0.0757486
0.0757206
0.0756991
0.0756633
0.0756302
0.0755865
0.0755431
0.0754897
0.0754365
0.0753728
0.0753089
0.0752356
0.0751573
0.0750787
0.074978
0.0749046
0.0747601
0.0747212
0.0745075
0.0770061
0.0770094
0.0770023
0.0769989
0.0769807
0.0769694
0.0769417
0.0769207
0.0768853
0.0768527
0.0768094
0.0767665
0.0767134
0.0766607
0.0765974
0.0765338
0.0764608
0.0763828
0.0763037
0.0762046
0.076125
0.0759888
0.0759324
0.0757068
0.0782366
0.0782402
0.0782334
0.0782306
0.0782129
0.0782025
0.0781756
0.0781558
0.0781214
0.0780903
0.0780484
0.0780072
0.077956
0.0779053
0.0778443
0.0777833
0.0777128
0.077638
0.0775635
0.0774659
0.0773983
0.0772604
0.0772205
0.0770223
0.0794701
0.079474
0.0794675
0.0794655
0.0794485
0.0794394
0.0794135
0.0793953
0.0793625
0.0793334
0.0792935
0.0792549
0.0792062
0.0791586
0.0791007
0.0790434
0.0789766
0.0789065
0.0788368
0.0787447
0.0786826
0.0785528
0.0785157
0.078332
0.0806994
0.0807036
0.0806975
0.0806964
0.0806802
0.0806725
0.0806479
0.0806316
0.0806006
0.0805739
0.0805364
0.0805007
0.0804549
0.0804108
0.0803565
0.0803034
0.0802409
0.0801761
0.0801108
0.0800255
0.0799681
0.0798479
0.0798131
0.0796432
0.0819184
0.0819231
0.0819173
0.0819173
0.0819017
0.0818957
0.0818722
0.0818582
0.0818289
0.0818051
0.0817697
0.0817377
0.0816945
0.0816547
0.0816037
0.0815553
0.0814972
0.081438
0.0813775
0.0812979
0.0812463
0.0811355
0.081103
0.0809469
0.0831224
0.0831275
0.0831214
0.0831232
0.0831077
0.083104
0.0830811
0.0830701
0.0830416
0.0830218
0.0829875
0.0829604
0.0829186
0.0828845
0.0828357
0.0827932
0.0827386
0.0826853
0.0826294
0.0825569
0.0825092
0.0824082
0.082378
0.0822356
0.0843068
0.0843122
0.0843063
0.0843093
0.0842942
0.0842926
0.0842703
0.0842624
0.0842347
0.084219
0.0841855
0.0841637
0.0841226
0.0840952
0.0840472
0.0840124
0.0839595
0.0839129
0.0838615
0.083796
0.0837518
0.083661
0.083633
0.0835039
0.0854681
0.0854737
0.0854686
0.0854716
0.0854586
0.0854568
0.0854378
0.0854298
0.0854064
0.0853908
0.0853623
0.0853413
0.0853056
0.08528
0.0852373
0.0852059
0.0851577
0.0851172
0.0850687
0.0850108
0.0849702
0.0848893
0.0848634
0.0847473
0.0866037
0.0866092
0.0866049
0.0866082
0.0865965
0.0865957
0.0865785
0.0865718
0.0865511
0.0865369
0.0865123
0.0864926
0.086462
0.0864378
0.0864009
0.0863718
0.0863292
0.0862933
0.0862485
0.086199
0.0861614
0.0860896
0.0860658
0.0859621
0.0877112
0.0877166
0.0877128
0.0877167
0.0877059
0.0877062
0.0876906
0.0876854
0.087667
0.0876546
0.0876331
0.0876155
0.0875888
0.0875672
0.0875347
0.087509
0.0874709
0.0874395
0.0873985
0.0873574
0.087322
0.087259
0.0872373
0.0871457
0.0887884
0.0887939
0.0887905
0.0887949
0.0887852
0.0887865
0.0887724
0.0887687
0.0887522
0.0887418
0.088723
0.0887078
0.0886843
0.0886656
0.088637
0.0886146
0.0885811
0.0885541
0.0885174
0.0884828
0.0884486
0.0883962
0.088376
0.0882961
0.0898342
0.0898398
0.0898366
0.0898418
0.0898325
0.0898352
0.089822
0.0898202
0.0898054
0.089797
0.0897806
0.0897677
0.0897473
0.0897313
0.0897065
0.0896874
0.0896579
0.0896351
0.0896029
0.0895737
0.089542
0.0894984
0.0894803
0.0894112
0.0908473
0.0908528
0.0908503
0.0908554
0.0908477
0.0908504
0.0908394
0.0908382
0.0908256
0.0908188
0.0908048
0.0907941
0.0907766
0.0907632
0.0907418
0.0907259
0.0907003
0.0906814
0.090653
0.0906292
0.0906005
0.0905653
0.0905486
0.09049
0.0918272
0.0918327
0.0918298
0.0918367
0.0918277
0.0918336
0.0918215
0.0918235
0.0918112
0.0918069
0.0917946
0.0917862
0.0917713
0.0917606
0.0917422
0.0917294
0.0917073
0.0916921
0.0916675
0.0916479
0.0916235
0.0915955
0.0915802
0.0915311
0.0927729
0.0927781
0.0927767
0.0927814
0.0927769
0.0927792
0.0927725
0.0927721
0.0927639
0.0927596
0.0927502
0.0927434
0.0927311
0.0927227
0.0927072
0.0926973
0.0926786
0.0926668
0.0926459
0.0926308
0.0926092
0.0925882
0.0925742
0.0925338
0.0936845
0.0936901
0.0936871
0.0936959
0.0936864
0.0936961
0.0936837
0.0936901
0.0936792
0.093679
0.09367
0.0936657
0.0936554
0.0936494
0.0936366
0.0936294
0.0936138
0.0936053
0.0935877
0.0935765
0.0935588
0.0935426
0.0935302
0.0934985
0.0945618
0.0945667
0.094566
0.094571
0.0945681
0.0945712
0.0945672
0.094568
0.0945634
0.0945613
0.0945559
0.0945524
0.0945446
0.0945406
0.0945303
0.0945255
0.0945128
0.0945072
0.0944929
0.0944854
0.0944707
0.0944593
0.0944488
0.0944249
0.0954049
0.0954101
0.0954081
0.0954162
0.0954097
0.0954185
0.0954097
0.095417
0.0954089
0.0954115
0.0954055
0.0954048
0.0953984
0.0953965
0.0953885
0.095386
0.095376
0.0953732
0.0953615
0.0953573
0.0953456
0.0953384
0.0953302
0.0953134
0.0962141
0.0962189
0.0962181
0.0962245
0.096221
0.0962272
0.096223
0.096227
0.0962238
0.0962247
0.096222
0.0962217
0.0962176
0.0962174
0.0962113
0.0962111
0.0962035
0.0962032
0.0961943
0.0961933
0.096184
0.0961807
0.0961748
0.0961642
0.0969899
0.0969945
0.096994
0.0970001
0.0969979
0.0970037
0.0970004
0.0970058
0.0970024
0.0970057
0.0970032
0.097005
0.0970022
0.0970037
0.0969996
0.0970012
0.096996
0.0969981
0.0969913
0.0969933
0.0969867
0.0969872
0.0969835
0.0969781
0.0977326
0.0977373
0.0977366
0.0977437
0.0977401
0.0977485
0.0977441
0.0977511
0.0977485
0.0977525
0.0977515
0.0977542
0.097753
0.097756
0.0977536
0.0977571
0.0977538
0.097758
0.0977538
0.0977584
0.0977539
0.0977577
0.0977561
0.0977555
0.0984433
0.0984473
0.098448
0.0984529
0.0984532
0.0984576
0.0984581
0.098462
0.0984629
0.098466
0.0984671
0.0984704
0.0984708
0.098475
0.0984743
0.0984793
0.098478
0.0984842
0.0984815
0.0984887
0.0984862
0.0984933
0.098493
0.0984971
0.0991222
0.0991264
0.0991265
0.0991327
0.0991313
0.0991387
0.0991367
0.0991441
0.0991431
0.0991491
0.0991496
0.0991549
0.099156
0.0991616
0.0991621
0.0991688
0.0991689
0.0991768
0.0991762
0.0991854
0.0991846
0.0991944
0.0991955
0.0992037
0.0997708
0.0997744
0.0997753
0.0997805
0.0997807
0.0997865
0.0997874
0.0997922
0.099795
0.099799
0.0998024
0.0998072
0.09981
0.0998165
0.0998184
0.0998262
0.0998279
0.0998375
0.099838
0.0998493
0.0998499
0.0998624
0.0998644
0.0998763
0.100389
0.100393
0.100394
0.100398
0.1004
0.100405
0.100407
0.100412
0.100415
0.100421
0.100423
0.10043
0.100433
0.100441
0.100444
0.100453
0.100456
0.100466
0.100469
0.100482
0.100483
0.100498
0.100501
0.100516
0.100979
0.100982
0.100983
0.100989
0.100989
0.100996
0.100996
0.101003
0.101006
0.101012
0.101016
0.101023
0.101027
0.101035
0.101039
0.101049
0.101053
0.101066
0.101069
0.101083
0.101086
0.101103
0.101106
0.101124
0.101541
0.101544
0.101546
0.101549
0.101552
0.101556
0.10156
0.101565
0.10157
0.101575
0.10158
0.101587
0.101592
0.101601
0.101606
0.101617
0.101622
0.101635
0.101639
0.101655
0.101659
0.101677
0.101682
0.101702
0.102076
0.102078
0.10208
0.102084
0.102087
0.102092
0.102095
0.102101
0.102104
0.102112
0.102116
0.102125
0.10213
0.10214
0.102145
0.102157
0.102163
0.102177
0.102182
0.102199
0.102204
0.102224
0.102229
0.102251
0.102585
0.102587
0.102589
0.102593
0.102595
0.102601
0.102604
0.10261
0.102615
0.102621
0.102628
0.102635
0.102642
0.102652
0.102658
0.102671
0.102677
0.102692
0.102698
0.102716
0.102721
0.102742
0.102747
0.102773
0.103069
0.103071
0.103074
0.103076
0.103081
0.103084
0.103089
0.103094
0.103099
0.103107
0.103112
0.103121
0.103128
0.103139
0.103145
0.103158
0.103165
0.103181
0.103188
0.103206
0.103213
0.103235
0.10324
0.103267
0.103529
0.103531
0.103533
0.103537
0.103539
0.103545
0.103548
0.103555
0.10356
0.103568
0.103574
0.103583
0.10359
0.103601
0.103608
0.103622
0.103629
0.103645
0.103652
0.103672
0.103679
0.103702
0.103708
0.103736
0.103966
0.103968
0.10397
0.103974
0.103977
0.103982
0.103986
0.103992
0.103998
0.104005
0.104012
0.104021
0.104029
0.10404
0.104047
0.104062
0.104069
0.104086
0.104094
0.104114
0.104121
0.104145
0.104151
0.104181
0.104382
0.104383
0.104386
0.104388
0.104393
0.104396
0.104402
0.104408
0.104413
0.104421
0.104428
0.104438
0.104445
0.104457
0.104465
0.104479
0.104487
0.104504
0.104512
0.104534
0.104541
0.104566
0.104572
0.104602
0.104776
0.104778
0.10478
0.104784
0.104786
0.104792
0.104795
0.104802
0.104808
0.104816
0.104823
0.104832
0.10484
0.104852
0.10486
0.104875
0.104884
0.104901
0.10491
0.104931
0.104939
0.104964
0.10497
0.105002
0.10515
0.105152
0.105154
0.105157
0.105161
0.105165
0.105171
0.105176
0.105182
0.10519
0.105197
0.105207
0.105215
0.105227
0.105236
0.105251
0.10526
0.105277
0.105286
0.105308
0.105315
0.105342
0.105348
0.105381
0.105506
0.105507
0.105509
0.105512
0.105516
0.10552
0.105525
0.105532
0.105537
0.105546
0.105552
0.105563
0.105571
0.105583
0.105591
0.105607
0.105616
0.105634
0.105643
0.105664
0.105673
0.105699
0.105705
0.105739
0.105843
0.105844
0.105846
0.10585
0.105852
0.105858
0.105862
0.105868
0.105874
0.105882
0.10589
0.1059
0.105908
0.10592
0.105929
0.105944
0.105953
0.105972
0.10598