/*--------------------------------*- C++ -*----------------------------------*\
  =========                 |
  \\      /  F ield         | OpenFOAM: The Open Source CFD Toolbox
   \\    /   O peration     | Website:  https://openfoam.org
    \\  /    A nd           | Version:  10
     \\/     M anipulation  |
\*---------------------------------------------------------------------------*/
FoamFile
{
    format      ascii;
    class       volScalarField;
    location    "0.42";
    object      T;
}
// * * * * * * * * * * * * * * * * * * * * * * * * * * * * * * * * * * * * * //

dimensions      [0 0 0 1 0 0 0];

internalField   nonuniform List<scalar> 
4176
(
180.347
180.351
180.373
180.382
180.426
180.445
180.506
180.538
180.614
180.66
180.749
180.809
180.913
180.985
181.101
181.192
181.306
181.43
181.534
181.703
181.778
182.011
182.024
182.326
180.356
180.361
180.382
180.393
180.436
180.457
180.518
180.552
180.628
180.677
180.767
180.83
180.935
181.009
181.128
181.222
181.339
181.465
181.571
181.743
181.819
182.062
182.079
182.411
180.384
180.389
180.409
180.42
180.462
180.483
180.542
180.576
180.649
180.698
180.785
180.847
180.95
181.022
181.139
181.229
181.346
181.468
181.572
181.74
181.811
182.05
182.066
182.409
180.436
180.44
180.461
180.472
180.514
180.534
180.594
180.627
180.7
180.749
180.836
180.897
181.001
181.073
181.191
181.28
181.398
181.523
181.621
181.795
181.862
182.098
182.112
182.439
180.511
180.515
180.536
180.546
180.588
180.608
180.667
180.699
180.772
180.82
180.907
180.967
181.07
181.14
181.258
181.345
181.464
181.586
181.683
181.857
181.924
182.157
182.171
182.488
180.61
180.614
180.635
180.645
180.686
180.706
180.764
180.797
180.869
180.917
181.002
181.062
181.164
181.234
181.351
181.436
181.557
181.674
181.776
181.945
182.014
182.244
182.262
182.578
180.733
180.737
180.758
180.768
180.809
180.828
180.886
180.918
180.989
181.037
181.12
181.18
181.28
181.349
181.465
181.549
181.671
181.782
181.889
182.052
182.123
182.349
182.369
182.684
180.88
180.884
180.904
180.914
180.955
180.974
181.031
181.063
181.133
181.18
181.263
181.322
181.421
181.489
181.604
181.686
181.807
181.915
182.024
182.181
182.256
182.478
182.499
182.809
181.051
181.055
181.075
181.084
181.124
181.143
181.2
181.231
181.3
181.347
181.428
181.486
181.584
181.651
181.765
181.845
181.966
182.07
182.181
182.332
182.409
182.627
182.649
182.955
181.245
181.249
181.269
181.278
181.318
181.336
181.392
181.423
181.491
181.537
181.618
181.675
181.771
181.837
181.949
182.028
182.148
182.248
182.361
182.507
182.584
182.799
182.822
183.122
181.463
181.467
181.487
181.496
181.535
181.553
181.608
181.639
181.706
181.751
181.83
181.886
181.981
182.046
182.157
182.233
182.352
182.449
182.562
182.703
182.782
182.991
183.015
183.311
181.705
181.709
181.728
181.737
181.776
181.794
181.848
181.878
181.944
181.988
182.066
182.121
182.215
182.278
182.387
182.462
182.579
182.673
182.787
182.922
183.004
183.204
183.231
183.52
181.971
181.975
181.994
182.002
182.041
182.058
182.111
182.14
182.205
182.248
182.325
182.379
182.471
182.532
182.64
182.713
182.829
182.92
183.033
183.163
183.245
183.441
183.468
183.751
182.26
182.264
182.283
182.291
182.329
182.345
182.398
182.426
182.49
182.532
182.608
182.66
182.751
182.81
182.916
182.987
183.101
183.189
183.302
183.427
183.509
183.7
183.727
184.004
182.573
182.577
182.596
182.603
182.641
182.656
182.709
182.736
182.798
182.839
182.913
182.964
183.053
183.111
183.215
183.284
183.396
183.481
183.593
183.713
183.796
183.98
184.007
184.278
182.91
182.914
182.932
182.939
182.976
182.991
183.042
183.068
183.13
183.17
183.242
183.292
183.379
183.435
183.537
183.603
183.714
183.796
183.907
184.022
184.104
184.283
184.31
184.574
183.271
183.274
183.292
183.299
183.336
183.35
183.4
183.425
183.485
183.524
183.595
183.642
183.728
183.782
183.882
183.946
184.054
184.133
184.242
184.352
184.435
184.607
184.634
184.891
183.655
183.659
183.676
183.683
183.718
183.732
183.781
183.805
183.864
183.901
183.97
184.016
184.099
184.152
184.249
184.311
184.417
184.492
184.6
184.705
184.788
184.952
184.98
185.23
184.063
184.066
184.084
184.09
184.125
184.137
184.186
184.208
184.266
184.301
184.369
184.413
184.494
184.544
184.639
184.698
184.802
184.874
184.98
185.08
185.162
185.321
185.349
185.591
184.494
184.498
184.515
184.521
184.555
184.566
184.614
184.635
184.691
184.725
184.79
184.833
184.912
184.96
185.052
185.108
185.21
185.279
185.382
185.477
185.559
185.71
185.738
185.974
184.95
184.953
184.97
184.975
185.009
185.019
185.065
185.085
185.14
185.172
185.235
185.276
185.352
185.398
185.488
185.541
185.64
185.705
185.806
185.896
185.977
186.122
186.15
186.378
185.429
185.432
185.449
185.453
185.486
185.495
185.54
185.559
185.612
185.642
185.704
185.742
185.816
185.859
185.946
185.997
186.092
186.154
186.253
186.338
186.418
186.555
186.583
186.804
185.932
185.935
185.951
185.954
185.987
185.995
186.039
186.056
186.107
186.135
186.195
186.231
186.302
186.343
186.427
186.475
186.567
186.626
186.721
186.802
186.879
187.011
187.038
187.252
186.458
186.461
186.477
186.48
186.511
186.518
186.56
186.576
186.625
186.652
186.709
186.743
186.812
186.85
186.931
186.976
187.065
187.12
187.212
187.288
187.364
187.488
187.515
187.72
187.008
187.011
187.026
187.028
187.058
187.064
187.105
187.119
187.167
187.192
187.247
187.278
187.344
187.379
187.458
187.499
187.585
187.636
187.725
187.796
187.87
187.988
188.014
188.21
187.581
187.583
187.598
187.6
187.629
187.634
187.674
187.686
187.732
187.754
187.807
187.836
187.899
187.932
188.007
188.045
188.128
188.175
188.26
188.327
188.399
188.51
188.534
188.721
188.177
188.179
188.194
188.194
188.223
188.227
188.265
188.275
188.319
188.34
188.39
188.416
188.477
188.507
188.579
188.614
188.693
188.736
188.818
188.88
188.949
189.053
189.077
189.255
188.796
188.798
188.812
188.812
188.84
188.842
188.879
188.888
188.93
188.948
188.996
189.02
189.078
189.104
189.173
189.205
189.28
189.32
189.398
189.455
189.521
189.618
189.642
189.81
189.438
189.44
189.453
189.453
189.479
189.481
189.516
189.523
189.563
189.579
189.625
189.646
189.701
189.724
189.79
189.818
189.89
189.926
190
190.053
190.116
190.206
190.227
190.389
190.102
190.104
190.117
190.116
190.142
190.142
190.176
190.181
190.219
190.233
190.276
190.295
190.347
190.367
190.429
190.454
190.522
190.554
190.624
190.673
190.732
190.815
190.833
190.989
190.789
190.791
190.803
190.801
190.826
190.825
190.858
190.861
190.898
190.909
190.95
190.966
191.015
191.032
191.091
191.112
191.177
191.204
191.271
191.314
191.37
191.446
191.465
191.609
191.498
191.5
191.512
191.509
191.533
191.531
191.562
191.564
191.599
191.608
191.646
191.659
191.706
191.72
191.775
191.792
191.854
191.877
191.94
191.978
192.031
192.1
192.117
192.252
192.23
192.231
192.243
192.239
192.262
192.259
192.289
192.289
192.321
192.329
192.365
192.375
192.419
192.43
192.482
192.495
192.553
192.572
192.63
192.664
192.712
192.776
192.791
192.917
192.983
192.984
192.995
192.991
193.013
193.008
193.037
193.035
193.066
193.071
193.105
193.113
193.154
193.161
193.211
193.22
193.274
193.289
193.344
193.372
193.417
193.473
193.488
193.604
193.758
193.759
193.77
193.765
193.786
193.78
193.807
193.804
193.833
193.836
193.867
193.872
193.91
193.915
193.961
193.967
194.018
194.028
194.079
194.102
194.143
194.194
194.206
194.312
194.554
194.555
194.565
194.56
194.58
194.573
194.599
194.594
194.621
194.622
194.651
194.654
194.689
194.69
194.733
194.735
194.783
194.789
194.836
194.855
194.892
194.935
194.945
195.043
195.371
195.372
195.382
195.376
195.396
195.387
195.412
195.405
195.431
195.429
195.456
195.456
195.489
195.487
195.527
195.525
195.57
195.571
195.615
195.629
195.662
195.7
195.707
195.795
196.21
196.211
196.22
196.214
196.232
196.223
196.246
196.238
196.262
196.258
196.283
196.28
196.31
196.305
196.342
196.337
196.378
196.375
196.416
196.424
196.455
196.486
196.489
196.569
197.069
197.07
197.079
197.072
197.09
197.079
197.101
197.092
197.114
197.108
197.13
197.126
197.153
197.145
197.179
197.17
197.207
197.2
197.238
197.241
197.268
197.294
197.294
197.364
197.949
197.95
197.959
197.951
197.968
197.956
197.977
197.966
197.986
197.979
197.999
197.992
198.016
198.006
198.037
198.024
198.058
198.047
198.081
198.079
198.103
198.123
198.12
198.181
198.85
198.85
198.859
198.85
198.867
198.854
198.873
198.861
198.88
198.87
198.888
198.879
198.901
198.887
198.915
198.899
198.93
198.914
198.945
198.938
198.958
198.973
198.967
199.02
199.77
199.771
199.779
199.77
199.785
199.772
199.79
199.776
199.793
199.782
199.798
199.786
199.806
199.789
199.814
199.795
199.823
199.803
199.831
199.818
199.835
199.843
199.834
199.88
200.711
200.711
200.719
200.71
200.724
200.71
200.727
200.711
200.727
200.714
200.728
200.713
200.731
200.711
200.734
200.711
200.736
200.712
200.737
200.719
200.733
200.734
200.723
200.761
201.672
201.672
201.679
201.669
201.683
201.668
201.684
201.667
201.68
201.666
201.678
201.661
201.676
201.654
201.674
201.647
201.67
201.641
201.663
201.641
201.651
201.646
201.634
201.662
202.652
202.652
202.659
202.648
202.662
202.645
202.66
202.642
202.654
202.637
202.647
202.628
202.641
202.616
202.633
202.603
202.623
202.591
202.61
202.582
202.59
202.578
202.565
202.584
203.651
203.651
203.658
203.647
203.66
203.642
203.655
203.636
203.646
203.628
203.636
203.615
203.625
203.597
203.612
203.579
203.596
203.56
203.576
203.543
203.549
203.53
203.516
203.527
204.67
204.67
204.676
204.664
204.676
204.658
204.67
204.649
204.658
204.638
204.644
204.621
204.629
204.598
204.61
204.574
204.589
204.548
204.561
204.523
204.528
204.502
204.487
204.488
205.707
205.707
205.713
205.701
205.712
205.692
205.703
205.681
205.688
205.667
205.671
205.645
205.651
205.618
205.627
205.587
205.6
205.555
205.566
205.521
205.527
205.493
205.476
205.47
206.762
206.762
206.768
206.755
206.765
206.745
206.755
206.731
206.737
206.714
206.716
206.688
206.692
206.656
206.663
206.62
206.63
206.58
206.59
206.539
206.544
206.503
206.486
206.47
207.835
207.835
207.841
207.827
207.837
207.816
207.825
207.8
207.804
207.779
207.779
207.749
207.751
207.712
207.717
207.67
207.678
207.623
207.633
207.576
207.58
207.529
207.516
207.49
208.926
208.925
208.931
208.917
208.926
208.904
208.911
208.885
208.888
208.861
208.86
208.828
208.827
208.786
208.789
208.738
208.745
208.685
208.694
208.632
208.633
208.576
208.562
208.528
210.033
210.032
210.037
210.023
210.031
210.008
210.015
209.988
209.989
209.961
209.957
209.923
209.921
209.877
209.879
209.824
209.829
209.764
209.773
209.704
209.706
209.641
209.626
209.585
211.156
211.155
211.16
211.146
211.153
211.129
211.135
211.107
211.106
211.077
211.072
211.036
211.032
210.984
210.985
210.927
210.931
210.862
210.868
210.792
210.797
210.723
210.709
210.66
212.295
212.294
212.298
212.283
212.29
212.266
212.271
212.241
212.24
212.208
212.202
212.164
212.159
212.108
212.108
212.046
212.05
211.974
211.981
211.899
211.902
211.824
211.808
211.752
213.448
213.447
213.452
213.436
213.442
213.418
213.421
213.391
213.388
213.355
213.348
213.307
213.302
213.247
213.247
213.179
213.186
213.101
213.112
213.023
213.024
212.942
212.924
212.862
214.616
214.615
214.619
214.603
214.609
214.583
214.586
214.555
214.551
214.516
214.509
214.465
214.46
214.402
214.401
214.329
214.336
214.248
214.255
214.163
214.164
214.075
214.057
213.988
215.796
215.796
215.799
215.783
215.788
215.763
215.765
215.732
215.728
215.691
215.684
215.637
215.632
215.571
215.57
215.495
215.499
215.41
215.415
215.319
215.318
215.226
215.206
215.131
216.99
216.989
216.992
216.977
216.981
216.955
216.956
216.923
216.919
216.879
216.873
216.822
216.818
216.753
216.753
216.675
216.677
216.585
216.589
216.491
216.487
216.39
216.371
216.29
218.195
218.194
218.197
218.182
218.185
218.159
218.159
218.125
218.121
218.081
218.073
218.022
218.016
217.95
217.947
217.868
217.869
217.776
217.777
217.676
217.671
217.571
217.55
217.463
219.411
219.411
219.413
219.398
219.401
219.375
219.374
219.34
219.335
219.294
219.285
219.233
219.227
219.16
219.155
219.075
219.073
218.979
218.979
218.876
218.869
218.765
218.744
218.652
220.638
220.638
220.64
220.624
220.627
220.601
220.6
220.567
220.559
220.519
220.509
220.457
220.449
220.38
220.376
220.293
220.291
220.195
220.193
220.088
220.081
219.974
219.951
219.854
221.875
221.875
221.877
221.861
221.864
221.837
221.836
221.803
221.793
221.755
221.742
221.691
221.682
221.613
221.607
221.524
221.52
221.423
221.419
221.313
221.304
221.194
221.171
221.07
223.121
223.121
223.124
223.107
223.11
223.084
223.081
223.049
223.038
223.001
222.986
222.936
222.923
222.857
222.849
222.765
222.76
222.661
222.657
222.549
222.539
222.427
222.403
222.298
224.377
224.376
224.379
224.363
224.366
224.339
224.336
224.304
224.292
224.256
224.239
224.19
224.176
224.11
224.1
224.016
224.011
223.911
223.904
223.796
223.784
223.67
223.646
223.538
225.64
225.64
225.643
225.626
225.629
225.603
225.6
225.568
225.555
225.52
225.501
225.454
225.438
225.371
225.36
225.277
225.27
225.168
225.162
225.052
225.04
224.924
224.9
224.788
226.913
226.913
226.915
226.899
226.902
226.875
226.872
226.84
226.827
226.792
226.772
226.725
226.708
226.641
226.629
226.546
226.538
226.436
226.428
226.317
226.304
226.187
226.162
226.047
228.193
228.193
228.196
228.179
228.182
228.155
228.152
228.12
228.106
228.071
228.05
228.004
227.985
227.919
227.905
227.823
227.813
227.711
227.703
227.59
227.576
227.458
227.433
227.315
229.481
229.481
229.484
229.467
229.47
229.443
229.439
229.407
229.393
229.358
229.336
229.29
229.27
229.204
229.189
229.106
229.095
228.993
228.984
228.869
228.856
228.735
228.711
228.592
230.777
230.777
230.779
230.763
230.765
230.737
230.734
230.701
230.686
230.651
230.627
230.582
230.559
230.495
230.479
230.394
230.383
230.281
230.272
230.155
230.142
230.021
229.995
229.874
232.079
232.079
232.081
232.064
232.066
232.038
232.034
232.001
231.985
231.95
231.924
231.879
231.855
231.791
231.775
231.687
231.676
231.575
231.564
231.448
231.433
231.311
231.286
231.163
233.387
233.387
233.389
233.371
233.373
233.344
233.339
233.305
233.288
233.253
233.226
233.182
233.155
233.092
233.072
232.987
232.974
232.871
232.861
232.745
232.73
232.607
232.582
232.458
234.697
234.697
234.699
234.681
234.683
234.653
234.648
234.613
234.596
234.56
234.531
234.487
234.458
234.397
234.373
234.292
234.278
234.172
234.161
234.049
234.031
233.907
233.883
233.759
236.008
236.008
236.01
235.992
235.993
235.964
235.958
235.923
235.905
235.869
235.839
235.796
235.764
235.705
235.679
235.599
235.583
235.478
235.466
235.355
235.337
235.214
235.189
235.064
237.317
237.317
237.319
237.301
237.302
237.273
237.267
237.232
237.214
237.178
237.149
237.106
237.073
237.016
236.987
236.91
236.889
236.791
236.775
236.664
236.647
236.525
236.501
236.376
238.619
238.619
238.622
238.604
238.607
238.577
238.573
238.539
238.522
238.487
238.458
238.416
238.384
238.328
238.298
238.224
238.201
238.106
238.092
237.977
237.962
237.841
237.818
237.693
239.914
239.914
239.918
239.901
239.904
239.876
239.874
239.841
239.826
239.793
239.766
239.727
239.695
239.643
239.612
239.542
239.518
239.426
239.409
239.297
239.282
239.162
239.14
239.016
241.2
241.201
241.205
241.189
241.195
241.169
241.169
241.138
241.126
241.096
241.072
241.035
241.006
240.957
240.928
240.862
240.837
240.751
240.731
240.626
240.609
240.489
240.468
240.345
242.481
242.482
242.488
242.473
242.48
242.456
242.459
242.431
242.422
242.395
242.374
242.342
242.316
242.271
242.245
242.184
242.161
242.079
242.061
241.958
241.943
241.823
241.804
241.68
243.762
243.764
243.77
243.757
243.765
243.743
243.748
243.723
243.716
243.693
243.675
243.647
243.625
243.584
243.563
243.506
243.487
243.408
243.396
243.294
243.283
243.165
243.147
243.022
245.053
245.055
245.061
245.049
245.058
245.038
245.042
245.02
245.014
244.994
244.978
244.954
244.933
244.897
244.88
244.824
244.814
244.734
244.732
244.631
244.627
244.511
244.497
244.376
246.364
246.367
246.373
246.361
246.369
246.349
246.353
246.331
246.325
246.306
246.29
246.267
246.248
246.214
246.199
246.142
246.142
246.057
246.067
245.964
245.969
245.856
245.848
245.735
247.708
247.71
247.716
247.702
247.711
247.688
247.692
247.666
247.66
247.637
247.62
247.595
247.574
247.541
247.522
247.469
247.465
247.387
247.393
247.294
247.304
247.192
247.191
247.084
249.094
249.096
249.101
249.085
249.092
249.066
249.067
249.038
249.027
249.001
248.979
248.949
248.924
248.887
248.861
248.81
248.796
248.722
248.722
248.622
248.635
248.519
248.522
248.415
250.529
250.53
250.534
250.517
250.52
250.491
250.488
250.454
250.439
250.406
250.377
250.341
250.307
250.264
250.229
250.172
250.148
250.069
250.064
249.956
249.967
249.844
249.85
249.735
252.014
252.015
252.017
251.999
251.999
251.967
251.96
251.922
251.899
251.861
251.823
251.781
251.736
251.684
251.637
251.571
251.536
251.443
251.429
251.309
251.315
251.177
251.183
251.054
253.546
253.548
253.549
253.528
253.527
253.492
253.481
253.439
253.411
253.367
253.322
253.272
253.218
253.157
253.098
253.022
252.97
252.866
252.835
252.698
252.69
252.533
252.534
252.382
255.119
255.12
255.121
255.099
255.097
255.059
255.047
255
254.97
254.921
254.873
254.815
254.755
254.685
254.616
254.532
254.461
254.352
254.295
254.15
254.117
253.936
253.923
253.736
256.721
256.722
256.724
256.7
256.698
256.659
256.646
256.598
256.566
256.514
256.464
256.403
256.339
256.265
256.189
256.1
256.017
255.907
255.823
255.68
255.613
255.421
255.382
255.149
258.342
258.342
258.345
258.321
258.319
258.28
258.267
258.219
258.187
258.135
258.084
258.022
257.958
257.883
257.806
257.715
257.628
257.517
257.423
257.283
257.192
257.005
256.939
256.67
259.968
259.969
259.972
259.948
259.948
259.909
259.897
259.85
259.819
259.768
259.718
259.659
259.595
259.523
259.447
259.359
259.273
259.164
259.072
258.935
258.844
258.662
258.593
258.327
261.59
261.591
261.594
261.571
261.572
261.534
261.524
261.478
261.449
261.401
261.354
261.298
261.237
261.168
261.095
261.013
260.93
260.828
260.74
260.61
260.529
260.352
260.294
260.052
263.196
263.197
263.201
263.179
263.181
263.145
263.137
263.093
263.067
263.022
262.977
262.926
262.868
262.805
262.736
262.659
262.582
262.488
262.405
262.285
262.21
262.045
261.993
261.771
264.779
264.781
264.785
264.765
264.768
264.734
264.727
264.686
264.662
264.622
264.58
264.533
264.478
264.421
264.357
264.287
264.215
264.129
264.051
263.943
263.874
263.722
263.674
263.471
266.333
266.335
266.34
266.321
266.324
266.293
266.288
266.25
266.228
266.192
266.152
266.111
266.06
266.01
265.948
265.886
265.819
265.742
265.671
265.571
265.508
265.371
265.326
265.141
267.851
267.854
267.859
267.841
267.846
267.817
267.813
267.779
267.759
267.728
267.689
267.655
267.605
267.563
267.504
267.452
267.387
267.32
267.255
267.163
267.107
266.983
266.941
266.775
269.331
269.334
269.339
269.323
269.329
269.301
269.3
269.268
269.251
269.223
269.188
269.158
269.112
269.076
269.021
268.976
268.916
268.858
268.796
268.715
268.663
268.554
268.514
268.366
270.768
270.771
270.778
270.761
270.77
270.742
270.744
270.714
270.701
270.674
270.645
270.617
270.577
270.545
270.495
270.456
270.4
270.35
270.292
270.224
270.175
270.079
270.041
269.91
272.161
272.164
272.172
272.156
272.166
272.139
272.144
272.115
272.105
272.081
272.055
272.031
271.995
271.966
271.923
271.888
271.839
271.795
271.742
271.686
271.636
271.555
271.519
271.405
273.508
273.511
273.519
273.504
273.515
273.49
273.496
273.469
273.462
273.44
273.419
273.397
273.367
273.341
273.303
273.273
273.228
273.192
273.143
273.096
273.05
272.98
272.947
272.848
274.808
274.811
274.82
274.804
274.818
274.793
274.802
274.776
274.772
274.752
274.734
274.715
274.689
274.667
274.633
274.608
274.569
274.538
274.493
274.456
274.412
274.354
274.323
274.239
276.06
276.063
276.072
276.058
276.071
276.049
276.058
276.035
276.033
276.016
276
275.984
275.961
275.943
275.914
275.893
275.858
275.833
275.793
275.762
275.722
275.677
275.645
275.576
277.264
277.267
277.277
277.262
277.279
277.254
277.268
277.244
277.246
277.23
277.218
277.204
277.185
277.17
277.144
277.128
277.097
277.077
277.042
277.019
276.98
276.946
276.915
276.859
278.421
278.423
278.432
278.421
278.434
278.416
278.426
278.408
278.408
278.396
278.385
278.375
278.358
278.347
278.325
278.312
278.285
278.271
278.239
278.221
278.188
278.162
278.133
278.089
279.529
279.531
279.543
279.528
279.546
279.524
279.541
279.52
279.525
279.513
279.506
279.497
279.483
279.475
279.456
279.447
279.424
279.413
279.386
279.374
279.343
279.325
279.298
279.265
280.591
280.594
280.604
280.591
280.608
280.59
280.604
280.587
280.592
280.583
280.577
280.572
280.56
280.554
280.539
280.533
280.513
280.507
280.482
280.475
280.449
280.438
280.41
280.389
281.607
281.61
281.618
281.611
281.621
281.612
281.619
281.609
281.612
281.607
281.602
281.599
281.589
281.586
281.573
281.571
281.553
281.551
281.53
281.528
281.504
281.499
281.474
281.461
282.578
282.579
282.592
282.576
282.6
282.576
282.6
282.579
282.591
282.582
282.581
282.579
282.572
282.571
282.561
282.561
282.547
282.548
282.529
282.531
282.511
282.511
282.488
282.484
283.505
283.508
283.512
283.514
283.513
283.519
283.515
283.519
283.515
283.519
283.513
283.516
283.509
283.511
283.503
283.506
283.493
283.498
283.483
283.489
283.47
283.475
283.454
283.457
284.388
284.389
284.403
284.386
284.414
284.386
284.417
284.393
284.412
284.402
284.407
284.406
284.404
284.406
284.401
284.406
284.396
284.403
284.39
284.399
284.383
284.394
284.374
284.384
285.231
285.235
285.236
285.243
285.238
285.251
285.24
285.255
285.245
285.257
285.25
285.258
285.254
285.259
285.255
285.262
285.254
285.264
285.254
285.266
285.252
285.266
285.249
285.264
286.033
286.033
286.045
286.033
286.056
286.035
286.062
286.043
286.063
286.054
286.063
286.063
286.064
286.07
286.068
286.077
286.071
286.083
286.074
286.09
286.078
286.096
286.08
286.1
286.795
286.8
286.801
286.807
286.805
286.815
286.809
286.823
286.816
286.829
286.825
286.835
286.833
286.842
286.841
286.851
286.847
286.861
286.855
286.872
286.862
286.883
286.868
286.893
287.522
287.523
287.531
287.526
287.539
287.532
287.547
287.54
287.553
287.551
287.559
287.563
287.566
287.574
287.575
287.587
287.584
287.6
287.594
287.614
287.605
287.63
287.616
287.644
288.211
288.215
288.217
288.221
288.223
288.229
288.23
288.238
288.238
288.248
288.249
288.258
288.26
288.27
288.272
288.285
288.283
288.3
288.297
288.319
288.311
288.338
288.325
288.356
288.867
288.869
288.874
288.873
288.881
288.881
288.889
288.892
288.897
288.904
288.908
288.916
288.919
288.93
288.933
288.947
288.947
288.966
288.963
288.986
288.979
289.009
288.997
289.031
289.488
289.492
289.493
289.5
289.499
289.508
289.509
289.516
289.52
289.527
289.532
289.541
289.546
289.557
289.561
289.576
289.576
289.596
289.595
289.62
289.614
289.644
289.633
289.67
290.079
290.081
290.086
290.085
290.095
290.094
290.102
290.106
290.111
290.12
290.124
290.135
290.139
290.151
290.156
290.171
290.173
290.194
290.193
290.219
290.214
290.246
290.236
290.275
290.639
290.643
290.643
290.651
290.648
290.66
290.659
290.669
290.672
290.681
290.686
290.696
290.702
290.715
290.72
290.736
290.738
290.76
290.76
290.787
290.783
290.816
290.808
290.846
291.171
291.173
291.177
291.178
291.185
291.186
291.194
291.198
291.205
291.213
291.219
291.23
291.235
291.249
291.254
291.271
291.274
291.297
291.297
291.324
291.321
291.357
291.347
291.389
291.675
291.677
291.679
291.684
291.686
291.693
291.695
291.704
291.708
291.719
291.723
291.735
291.741
291.755
291.761
291.778
291.782
291.804
291.805
291.834
291.831
291.867
291.86
291.9
292.152
292.155
292.156
292.162
292.163
292.171
292.173
292.181
292.187
292.195
292.202
292.213
292.22
292.234
292.241
292.258
292.262
292.285
292.288
292.315
292.314
292.351
292.342
292.386
292.605
292.607
292.61
292.612
292.618
292.62
292.628
292.633
292.64
292.649
292.655
292.667
292.673
292.688
292.695
292.712
292.718
292.741
292.742
292.772
292.771
292.807
292.801
292.844
293.034
293.036
293.037
293.043
293.044
293.052
293.054
293.064
293.068
293.078
293.084
293.096
293.103
293.117
293.125
293.143
293.148
293.171
293.175
293.203
293.203
293.24
293.233
293.278
293.44
293.443
293.444
293.448
293.451
293.457
293.462
293.468
293.475
293.483
293.491
293.502
293.51
293.524
293.532
293.55
293.556
293.579
293.582
293.612
293.612
293.648
293.644
293.687
293.825
293.827
293.83
293.832
293.837
293.84
293.847
293.853
293.859
293.869
293.875
293.888
293.894
293.909
293.917
293.935
293.941
293.965
293.969
293.997
293.998
294.035
294.03
294.074
294.19
294.192
294.192
294.199
294.198
294.208
294.209
294.219
294.223
294.233
294.239
294.252
294.259
294.274
294.282
294.3
294.306
294.33
294.333
294.363
294.363
294.4
294.396
294.439
294.535
294.537
294.539
294.542
294.546
294.55
294.556
294.562
294.569
294.577
294.585
294.597
294.604
294.619
294.627
294.645
294.651
294.674
294.679
294.708
294.708
294.745
294.741
294.785
294.862
294.863
294.866
294.868
294.873
294.877
294.882
294.889
294.895
294.905
294.911
294.924
294.93
294.945
294.953
294.972
294.978
295.002
295.005
295.034
295.035
295.071
295.068
295.11
295.172
295.174
295.173
295.181
295.178
295.19
295.188
295.2
295.203
295.214
295.22
295.232
295.24
295.254
295.262
295.281
295.287
295.31
295.314
295.343
295.344
295.38
295.377
295.419
295.465
295.465
295.47
295.468
295.478
295.475
295.488
295.488
295.499
295.505
295.514
295.525
295.532
295.547
295.554
295.573
295.579
295.603
295.606
295.635
295.637
295.672
295.669
295.71
295.742
295.745
295.743
295.752
295.747
295.762
295.756
295.773
295.77
295.786
295.788
295.803
295.809
295.824
295.831
295.85
295.856
295.878
295.883
295.912
295.912
295.948
295.945
295.987
296.005
296.005
296.01
296.008
296.018
296.015
296.028
296.026
296.04
296.043
296.054
296.063
296.071
296.085
296.093
296.111
296.118
296.14
296.145
296.172
296.174
296.209
296.207
296.246
296.253
296.256
296.254
296.263
296.258
296.272
296.267
296.283
296.281
296.296
296.299
296.312
296.319
296.333
296.34
296.359
296.365
296.387
296.392
296.42
296.421
296.455
296.453
296.494
296.49
296.489
296.495
296.491
296.502
296.498
296.511
296.51
296.522
296.527
296.536
296.546
296.554
296.568
296.575
296.592
296.6
296.622
296.626
296.653
296.655
296.69
296.687
296.725
296.712
296.714
296.712
296.721
296.715
296.73
296.725
296.74
296.739
296.752
296.757
296.769
296.776
296.79
296.796
296.814
296.821
296.843
296.847
296.874
296.877
296.908
296.907
296.946
296.923
296.923
296.928
296.925
296.935
296.932
296.944
296.943
296.954
296.959
296.968
296.978
296.986
297
297.006
297.023
297.031
297.052
297.056
297.083
297.084
297.118
297.116
297.154
297.122
297.124
297.124
297.129
297.128
297.138
297.137
297.148
297.15
297.161
297.166
297.178
297.184
297.199
297.204
297.222
297.229
297.25
297.254
297.28
297.284
297.314
297.313
297.35
297.312
297.312
297.315
297.316
297.32
297.323
297.329
297.334
297.34
297.348
297.355
297.365
297.372
297.386
297.392
297.409
297.416
297.437
297.441
297.468
297.468
297.501
297.499
297.536
297.49
297.491
297.493
297.494
297.499
297.501
297.508
297.511
297.519
297.526
297.533
297.543
297.55
297.564
297.57
297.587
297.593
297.614
297.618
297.644
297.646
297.676
297.675
297.711
297.659
297.66
297.661
297.665
297.665
297.674
297.673
297.684
297.685
297.696
297.7
297.712
297.718
297.732
297.737
297.755
297.761
297.781
297.784
297.812
297.811
297.844
297.841
297.877
297.82
297.819
297.824
297.821
297.831
297.827
297.839
297.837
297.849
297.853
297.861
297.87
297.877
297.891
297.896
297.913
297.919
297.94
297.944
297.968
297.97
297.999
297.999
298.032
297.97
297.972
297.97
297.978
297.974
297.987
297.981
297.996
297.994
298.007
298.01
298.022
298.027
298.041
298.046
298.064
298.069
298.089
298.092
298.119
298.118
298.149
298.146
298.182
298.114
298.113
298.119
298.114
298.126
298.12
298.134
298.13
298.143
298.146
298.154
298.163
298.17
298.183
298.188
298.205
298.209
298.231
298.234
298.258
298.26
298.289
298.288
298.32
298.248
298.251
298.249
298.256
298.252
298.264
298.26
298.273
298.271
298.284
298.286
298.299
298.303
298.317
298.322
298.34
298.344
298.363
298.366
298.393
298.391
298.423
298.419
298.453
298.377
298.376
298.381
298.378
298.387
298.384
298.394
298.394
298.403
298.409
298.415
298.425
298.43
298.444
298.449
298.466
298.469
298.491
298.493
298.517
298.519
298.546
298.544
298.576
298.497
298.499
298.498
298.504
298.501
298.511
298.509
298.52
298.52
298.531
298.534
298.546
298.549
298.564
298.568
298.586
298.589
298.608
298.611
298.637
298.635
298.666
298.662
298.694
298.612
298.611
298.614
298.614
298.62
298.62
298.627
298.63
298.636
298.643
298.648
298.659
298.663
298.677
298.681
298.698
298.7
298.723
298.724
298.747
298.748
298.776
298.773
298.805
298.719
298.72
298.72
298.724
298.723
298.731
298.731
298.74
298.741
298.751
298.754
298.766
298.769
298.784
298.787
298.805
298.807
298.826
298.828
298.854
298.853
298.882
298.879
298.909
298.82
298.82
298.822
298.824
298.827
298.83
298.834
298.839
298.843
298.852
298.855
298.867
298.87
298.884
298.888
298.905
298.906
298.928
298.93
298.951
298.953
298.981
298.977
299.008
298.915
298.916
298.917
298.92
298.921
298.927
298.928
298.936
298.938
298.947
298.95
298.962
298.964
298.979
298.982
298.999
299.001
299.021
299.021
299.047
299.047
299.073
299.071
299.1
299.006
299.006
299.007
299.01
299.011
299.016
299.018
299.025
299.027
299.037
299.039
299.051
299.054
299.068
299.071
299.088
299.089
299.111
299.112
299.133
299.134
299.162
299.158
299.188
299.09
299.091
299.092
299.094
299.096
299.1
299.103
299.109
299.112
299.121
299.124
299.135
299.138
299.152
299.155
299.171
299.174
299.192
299.193
299.218
299.218
299.242
299.242
299.269
299.17
299.171
299.171
299.174
299.175
299.18
299.181
299.189
299.19
299.2
299.202
299.214
299.217
299.23
299.233
299.249
299.25
299.272
299.273
299.294
299.294
299.321
299.319
299.347
299.244
299.245
299.246
299.248
299.25
299.254
299.256
299.263
299.265
299.274
299.277
299.288
299.29
299.304
299.307
299.323
299.325
299.344
299.345
299.367
299.369
299.391
299.392
299.418
299.314
299.315
299.316
299.317
299.321
299.323
299.327
299.331
299.336
299.343
299.346
299.357
299.36
299.373
299.376
299.392
299.393
299.413
299.414
299.436
299.435
299.461
299.46
299.487