/*--------------------------------*- C++ -*----------------------------------*\
  =========                 |
  \\      /  F ield         | OpenFOAM: The Open Source CFD Toolbox
   \\    /   O peration     | Website:  https://openfoam.org
    \\  /    A nd           | Version:  10
     \\/     M anipulation  |
\*---------------------------------------------------------------------------*/
FoamFile
{
    format      ascii;
    class       volVectorField;
    location    "0.42";
    object      U;
}
// * * * * * * * * * * * * * * * * * * * * * * * * * * * * * * * * * * * * * //

dimensions      [0 1 -1 0 0 0 0];

internalField   nonuniform List<vector> 
4176
(
(497.488 -0.0141046 -6.57276e-09)
(497.474 0.0637308 1.95186e-09)
(497.45 0.0014865 -6.38621e-10)
(497.4 0.090411 -1.05831e-11)
(497.346 0.0510522 -1.68283e-10)
(497.271 0.0895843 -6.01653e-10)
(497.181 0.125907 -3.68684e-10)
(497.088 0.060602 3.14279e-10)
(496.954 0.2253 7.08371e-10)
(496.849 0.00493855 6.95057e-10)
(496.672 0.344351 4.60561e-10)
(496.549 -0.0690035 3.49022e-10)
(496.339 0.469767 1.0577e-10)
(496.191 -0.139339 -2.67335e-10)
(495.956 0.567748 -4.13893e-10)
(495.773 -0.135485 -2.69122e-10)
(495.536 0.528349 -2.05075e-10)
(495.286 0.0236562 -1.24056e-11)
(495.073 0.334868 3.02557e-10)
(494.73 0.323002 1.65987e-10)
(494.576 -0.0169578 -1.39652e-10)
(494.097 0.77172 -1.51995e-10)
(494.066 -0.516139 1.39344e-10)
(493.444 1.44238 2.69073e-10)
(497.47 0.00496607 -6.57069e-09)
(497.455 0.114555 1.95192e-09)
(497.431 0.0765405 -6.38759e-10)
(497.379 0.203325 -1.13552e-11)
(497.325 0.186315 -1.68265e-10)
(497.247 0.264315 -6.01257e-10)
(497.156 0.321816 -3.69243e-10)
(497.059 0.295704 3.14398e-10)
(496.925 0.482263 7.08989e-10)
(496.814 0.298067 6.95174e-10)
(496.636 0.662873 4.60034e-10)
(496.508 0.278814 3.48887e-10)
(496.293 0.850347 1.04166e-10)
(496.142 0.258532 -2.67186e-10)
(495.901 1.01244 -4.13664e-10)
(495.714 0.302192 -2.6861e-10)
(495.47 1.04209 -2.06254e-10)
(495.216 0.51069 -1.25466e-11)
(494.996 0.914434 3.01511e-10)
(494.646 0.855159 1.65592e-10)
(494.492 0.628482 -1.39603e-10)
(493.992 1.33088 -1.54321e-10)
(493.956 0.125404 1.40137e-10)
(493.27 1.99259 2.68684e-10)
(497.413 0.0233175 -6.5735e-09)
(497.399 0.161212 1.95097e-09)
(497.375 0.147724 -6.40456e-10)
(497.324 0.307671 -1.03827e-11)
(497.273 0.313927 -1.68487e-10)
(497.195 0.42651 -6.02016e-10)
(497.108 0.505945 -3.66409e-10)
(497.011 0.514938 3.16288e-10)
(496.882 0.722986 7.10959e-10)
(496.772 0.572728 6.95363e-10)
(496.599 0.960654 4.58928e-10)
(496.474 0.606217 3.47978e-10)
(496.263 1.20614 1.05728e-10)
(496.116 0.63412 -2.67041e-10)
(495.877 1.42865 -4.13846e-10)
(495.698 0.713937 -2.67367e-10)
(495.454 1.52259 -2.08984e-10)
(495.209 0.965932 -1.41858e-11)
(494.993 1.45725 3.02133e-10)
(494.653 1.34384 1.65156e-10)
(494.506 1.24772 -1.40563e-10)
(494.016 1.88203 -1.51633e-10)
(493.981 0.839018 1.40462e-10)
(493.271 2.60875 2.69658e-10)
(497.309 0.0420541 -6.57289e-09)
(497.294 0.20872 1.95512e-09)
(497.271 0.220228 -6.41397e-10)
(497.22 0.413994 -7.35892e-12)
(497.169 0.443906 -1.69307e-10)
(497.091 0.591872 -6.06358e-10)
(497.004 0.69351 -3.66182e-10)
(496.907 0.738569 3.13885e-10)
(496.777 0.968201 7.04246e-10)
(496.668 0.853035 6.98772e-10)
(496.494 1.26399 4.59776e-10)
(496.37 0.940573 3.4619e-10)
(496.158 1.56882 1.07195e-10)
(496.013 1.01832 -2.68546e-10)
(495.771 1.85355 -4.20937e-10)
(495.593 1.13542 -2.68536e-10)
(495.346 2.01703 -2.06566e-10)
(495.097 1.42647 -1.45795e-11)
(494.891 2.00937 3.04419e-10)
(494.54 1.84078 1.64533e-10)
(494.399 1.85827 -1.43384e-10)
(493.915 2.41983 -1.52416e-10)
(493.885 1.52606 1.38735e-10)
(493.206 3.2055 2.60227e-10)
(497.157 0.0603882 -6.57477e-09)
(497.143 0.255245 1.96155e-09)
(497.12 0.291157 -6.37634e-10)
(497.069 0.518186 -7.39374e-12)
(497.019 0.571053 -1.66109e-10)
(496.941 0.754044 -6.0096e-10)
(496.856 0.876988 -3.67994e-10)
(496.76 0.958113 3.16174e-10)
(496.632 1.20808 7.09826e-10)
(496.524 1.12851 6.96698e-10)
(496.351 1.56078 4.59914e-10)
(496.229 1.26937 3.48999e-10)
(496.018 1.92409 1.03766e-10)
(495.876 1.39608 -2.6952e-10)
(495.634 2.27128 -4.18996e-10)
(495.461 1.55012 -2.7105e-10)
(495.21 2.51238 -2.07664e-10)
(494.967 1.86966 -1.38262e-11)
(494.764 2.55439 2.98925e-10)
(494.411 2.33868 1.70303e-10)
(494.271 2.45273 -1.35634e-10)
(493.793 2.94565 -1.49474e-10)
(493.762 2.16866 1.42364e-10)
(493.103 3.76334 2.71104e-10)
(496.957 0.0787145 -6.58758e-09)
(496.942 0.301476 1.95958e-09)
(496.919 0.361933 -6.36286e-10)
(496.869 0.621793 -1.23235e-11)
(496.819 0.697895 -1.77389e-10)
(496.742 0.915361 -6.05992e-10)
(496.658 1.06003 -3.65534e-10)
(496.562 1.17661 3.12491e-10)
(496.435 1.44737 7.10556e-10)
(496.327 1.40291 7.02118e-10)
(496.157 1.85668 4.60083e-10)
(496.035 1.59733 3.43176e-10)
(495.825 2.27775 1.0092e-10)
(495.684 1.77373 -2.67144e-10)
(495.443 2.68572 -4.22045e-10)
(495.274 1.96909 -2.68468e-10)
(495.018 3.00305 -1.97138e-10)
(494.787 2.31257 -1.09813e-11)
(494.571 3.10387 3.08725e-10)
(494.229 2.83551 1.72433e-10)
(494.084 3.04894 -1.39888e-10)
(493.611 3.47363 -1.60183e-10)
(493.575 2.81553 1.39167e-10)
(492.914 4.32021 2.71422e-10)
(496.708 0.0968634 -6.58637e-09)
(496.694 0.347042 1.95715e-09)
(496.671 0.431917 -6.52586e-10)
(496.621 0.72396 -1.23094e-11)
(496.572 0.823281 -1.6284e-10)
(496.495 1.07446 -6.0518e-10)
(496.412 1.24097 -3.76779e-10)
(496.316 1.39216 3.17329e-10)
(496.192 1.68392 7.17329e-10)
(496.084 1.6738 6.97409e-10)
(495.916 2.14914 4.57268e-10)
(495.795 1.9215 3.54074e-10)
(495.588 2.62701 1.1656e-10)
(495.448 2.14773 -2.65323e-10)
(495.208 3.09406 -4.17608e-10)
(495.043 2.3864 -2.65168e-10)
(494.784 3.48269 -2.06595e-10)
(494.565 2.75728 -1.66266e-11)
(494.337 3.65126 3.03194e-10)
(494.01 3.32043 1.69946e-10)
(493.859 3.64405 -1.41332e-10)
(493.392 4.00118 -1.60267e-10)
(493.352 3.47209 1.41575e-10)
(492.693 4.8824 2.76565e-10)
(496.41 0.114875 -6.60276e-09)
(496.396 0.392141 1.96776e-09)
(496.374 0.501279 -6.32572e-10)
(496.324 0.825106 -8.91715e-12)
(496.276 0.947496 -1.75867e-10)
(496.199 1.23196 -6.02353e-10)
(496.117 1.42016 -3.60107e-10)
(496.022 1.60557 3.16424e-10)
(495.899 1.91814 6.99433e-10)
(495.793 1.94209 6.95099e-10)
(495.626 2.43868 4.68095e-10)
(495.506 2.24278 3.48272e-10)
(495.301 2.97267 9.08033e-11)
(495.163 2.51876 -2.74086e-10)
(494.924 3.4979 -4.10632e-10)
(494.763 2.80121 -2.73239e-10)
(494.503 3.95493 -2.02961e-10)
(494.292 3.19959 -5.79309e-14)
(494.059 4.19397 3.07022e-10)
(493.742 3.80086 1.55223e-10)
(493.586 4.23738 -1.41562e-10)
(493.127 4.52395 -1.44136e-10)
(493.083 4.12331 1.39147e-10)
(492.431 5.43735 2.53481e-10)
(496.065 0.132704 -6.6158e-09)
(496.051 0.436683 1.95466e-09)
(496.029 0.569855 -6.54617e-10)
(495.979 0.925023 -2.12324e-11)
(495.931 1.07025 -1.76191e-10)
(495.856 1.38752 -6.10816e-10)
(495.775 1.59718 -3.75264e-10)
(495.681 1.81632 3.13668e-10)
(495.559 2.14943 7.06398e-10)
(495.454 2.20708 6.92222e-10)
(495.289 2.72453 4.56252e-10)
(495.171 2.56029 3.46681e-10)
(494.967 3.31386 9.89961e-11)
(494.832 2.8858 -2.72961e-10)
(494.594 3.8963 -4.17442e-10)
(494.437 3.21218 -2.7015e-10)
(494.176 4.41868 -2.07247e-10)
(493.973 3.63893 -1.10974e-11)
(493.735 4.72988 3.03564e-10)
(493.43 4.27461 1.62054e-10)
(493.268 4.82818 -1.43588e-10)
(492.818 5.04201 -1.55192e-10)
(492.77 4.77012 1.41019e-10)
(492.127 5.98569 2.69972e-10)
(495.671 0.150349 -6.60122e-09)
(495.657 0.480678 1.98366e-09)
(495.635 0.637642 -6.35885e-10)
(495.586 1.02373 1.80459e-12)
(495.539 1.19154 -1.57882e-10)
(495.463 1.54118 -5.93964e-10)
(495.384 1.77201 -3.58129e-10)
(495.29 2.02445 3.31482e-10)
(495.17 2.37777 7.25294e-10)
(495.066 2.46876 7.09185e-10)
(494.903 3.00662 4.74637e-10)
(494.787 2.87391 3.62347e-10)
(494.585 3.65046 1.17302e-10)
(494.452 3.24859 -2.60481e-10)
(494.216 4.28917 -4.03899e-10)
(494.062 3.61901 -2.59437e-10)
(493.802 4.87429 -1.93419e-10)
(493.607 4.07449 -1.2841e-13)
(493.364 5.2583 3.1744e-10)
(493.071 4.74203 1.73581e-10)
(492.903 5.41442 -1.31524e-10)
(492.464 5.55351 -1.43012e-10)
(492.412 5.41063 1.50615e-10)
(491.779 6.52573 2.79287e-10)
(495.228 0.167782 -6.62389e-09)
(495.214 0.524071 1.97309e-09)
(495.193 0.704542 -6.45935e-10)
(495.144 1.12111 -5.78678e-12)
(495.098 1.31122 -1.64977e-10)
(495.023 1.69278 -6.02229e-10)
(494.944 1.94446 -3.63027e-10)
(494.852 2.22975 3.30265e-10)
(494.734 2.60289 7.24146e-10)
(494.631 2.72681 7.07787e-10)
(494.47 3.28459 4.74981e-10)
(494.355 3.1832 3.64713e-10)
(494.155 3.98202 1.19669e-10)
(494.025 3.60657 -2.58987e-10)
(493.791 4.67601 -3.99379e-10)
(493.641 4.02098 -2.53422e-10)
(493.382 5.32166 -1.85906e-10)
(493.194 4.50575 6.11945e-12)
(492.947 5.77836 3.27891e-10)
(492.666 5.20353 1.84269e-10)
(492.492 5.99358 -1.43288e-10)
(492.065 6.05653 -1.76881e-10)
(492.009 6.04522 1.21568e-10)
(491.387 7.057 2.48305e-10)
(494.737 0.184981 -6.63443e-09)
(494.723 0.566817 1.97677e-09)
(494.702 0.770479 -6.49643e-10)
(494.653 1.21708 -1.1316e-11)
(494.608 1.42916 -1.70426e-10)
(494.534 1.84218 -6.08489e-10)
(494.457 2.11438 -3.70913e-10)
(494.366 2.43208 3.2099e-10)
(494.249 2.82464 7.1496e-10)
(494.147 2.9811 6.98696e-10)
(493.988 3.55825 4.64538e-10)
(493.876 3.48792 3.5534e-10)
(493.678 4.30823 1.08399e-10)
(493.551 3.95931 -2.68969e-10)
(493.318 5.05645 -4.14101e-10)
(493.173 4.41749 -2.67112e-10)
(492.914 5.76081 -2.02982e-10)
(492.733 4.93236 -7.18518e-12)
(492.483 6.28947 3.09443e-10)
(492.214 5.65791 1.65732e-10)
(492.035 6.56483 -1.38448e-10)
(491.621 6.55051 -1.4754e-10)
(491.561 6.6723 1.47726e-10)
(490.95 7.57887 2.74992e-10)
(494.197 0.201919 -6.64586e-09)
(494.183 0.608858 1.97743e-09)
(494.162 0.835351 -6.56372e-10)
(494.114 1.3115 -1.73199e-11)
(494.07 1.5452 -1.79134e-10)
(493.997 1.98922 -6.21171e-10)
(493.921 2.28157 -3.85221e-10)
(493.831 2.63123 3.05148e-10)
(493.715 3.04279 6.99035e-10)
(493.616 3.23137 6.80408e-10)
(493.458 3.82735 4.38388e-10)
(493.348 3.78777 3.29081e-10)
(493.152 4.62879 7.51042e-11)
(493.028 4.30639 -2.74863e-10)
(492.798 5.43003 -3.90412e-10)
(492.657 4.80786 -2.49749e-10)
(492.399 6.19162 -1.84792e-10)
(492.225 5.35393 5.27701e-12)
(491.973 6.79092 3.22012e-10)
(491.716 6.10452 1.75979e-10)
(491.532 7.12736 -1.30403e-10)
(491.13 7.03458 -1.42325e-10)
(491.067 7.29068 1.53277e-10)
(490.468 8.09084 2.7838e-10)
(493.608 0.21857 -6.6495e-09)
(493.594 0.650143 2.00298e-09)
(493.574 0.899068 -6.58129e-10)
(493.526 1.40425 -3.66941e-11)
(493.483 1.65918 -1.82552e-10)
(493.411 2.1337 -6.12746e-10)
(493.336 2.44581 -3.63988e-10)
(493.247 2.82696 3.43415e-10)
(493.134 3.25708 7.19437e-10)
(493.036 3.47737 6.81451e-10)
(492.881 4.09162 4.51576e-10)
(492.773 4.08247 3.52402e-10)
(492.579 4.94341 1.17008e-10)
(492.458 4.64747 -2.56058e-10)
(492.23 5.79641 -4.23793e-10)
(492.094 5.19156 -2.90597e-10)
(491.838 6.61368 -2.21094e-10)
(491.67 5.76987 -1.32525e-11)
(491.417 7.28228 3.16316e-10)
(491.17 6.54288 1.81589e-10)
(490.983 7.68051 -1.42876e-10)
(490.594 7.50773 -1.71127e-10)
(490.528 7.89898 1.36686e-10)
(489.942 8.59239 2.75889e-10)
(492.97 0.234913 -6.67644e-09)
(492.956 0.690619 1.96574e-09)
(492.937 0.961541 -6.50216e-10)
(492.89 1.49522 1.98518e-11)
(492.847 1.77093 -1.57309e-10)
(492.776 2.27543 -6.10468e-10)
(492.702 2.60685 -3.83919e-10)
(492.615 3.019 2.98513e-10)
(492.504 3.46723 7.17839e-10)
(492.407 3.71878 7.24271e-10)
(492.255 4.35075 4.72574e-10)
(492.149 4.3717 3.4652e-10)
(491.958 5.25178 8.22064e-11)
(491.841 4.98218 -2.78086e-10)
(491.615 6.15524 -3.99946e-10)
(491.483 5.56814 -2.61429e-10)
(491.229 7.02654 -2.10766e-10)
(491.068 6.17945 -2.45516e-11)
(490.813 7.76293 2.75719e-10)
(490.579 6.97268 1.52398e-10)
(490.387 8.22389 -1.30038e-10)
(490.012 7.96911 -1.46819e-10)
(489.944 8.49598 1.37122e-10)
(489.37 9.08297 2.50872e-10)
(492.283 0.250925 -6.67414e-09)
(492.269 0.730244 2.01842e-09)
(492.25 1.02269 -6.58267e-10)
(492.204 1.58428 -3.99648e-11)
(492.162 1.88029 -1.85193e-10)
(492.092 2.4142 -6.11675e-10)
(492.02 2.76444 -3.55859e-10)
(491.934 3.20707 3.52943e-10)
(491.825 3.67288 7.23202e-10)
(491.731 3.95526 6.84262e-10)
(491.58 4.60437 4.58587e-10)
(491.477 4.65509 3.60204e-10)
(491.289 5.55357 1.26237e-10)
(491.175 5.31017 -2.82056e-10)
(490.952 6.50621 -4.56707e-10)
(490.825 5.93715 -2.86821e-10)
(490.573 7.42985 -2.11009e-10)
(490.419 6.58186 4.75135e-13)
(490.164 8.2321 3.31795e-10)
(489.941 7.39368 1.58822e-10)
(489.745 8.75682 -1.69144e-10)
(489.384 8.4184 -1.59985e-10)
(489.312 9.08109 1.50795e-10)
(488.753 9.56188 2.88742e-10)
(491.546 0.266585 -6.70251e-09)
(491.533 0.768969 1.98445e-09)
(491.514 1.08244 -6.77668e-10)
(491.468 1.67133 -4.3884e-11)
(491.427 1.98711 -1.75031e-10)
(491.358 2.54982 -5.85933e-10)
(491.288 2.91833 -3.52194e-10)
(491.204 3.39086 3.35652e-10)
(491.097 3.8737 7.21397e-10)
(491.005 4.1864 6.96513e-10)
(490.857 4.85206 4.47688e-10)
(490.757 4.93219 3.28583e-10)
(490.572 5.84835 1.06417e-10)
(490.461 5.63101 -2.51933e-10)
(490.241 6.84898 -4.06445e-10)
(490.119 6.29821 -2.63441e-10)
(489.869 7.82334 -2.07297e-10)
(489.722 6.97624 -1.57963e-11)
(489.467 8.68897 2.89761e-10)
(489.256 7.8055 1.35583e-10)
(489.057 9.27782 -1.80904e-10)
(488.71 8.8563 -1.56711e-10)
(488.635 9.65473 1.6904e-10)
(488.091 10.0278 2.85829e-10)
(490.76 0.281868 -6.70922e-09)
(490.746 0.806743 2.01283e-09)
(490.728 1.14069 -6.45234e-10)
(490.683 1.75624 1.0625e-11)
(490.643 2.09122 -1.52202e-10)
(490.576 2.68209 -5.91289e-10)
(490.507 3.06827 -3.44525e-10)
(490.425 3.57009 3.61065e-10)
(490.32 4.06934 7.63497e-10)
(490.231 4.41181 7.09494e-10)
(490.086 5.09339 4.32005e-10)
(489.988 5.20253 3.25099e-10)
(489.806 6.13564 7.32132e-11)
(489.7 5.9442 -3.0424e-10)
(489.483 7.18309 -4.4898e-10)
(489.365 6.6509 -2.887e-10)
(489.118 8.20678 -2.2426e-10)
(488.978 7.36187 -1.90877e-11)
(488.724 9.13288 3.03074e-10)
(488.524 8.20788 1.63906e-10)
(488.322 9.78644 -1.37568e-10)
(487.99 9.28234 -1.42355e-10)
(487.91 10.2161 1.58241e-10)
(487.382 10.4803 2.90233e-10)
(489.924 0.296746 -6.73119e-09)
(489.91 0.843501 2.00367e-09)
(489.893 1.19735 -6.67275e-10)
(489.848 1.83888 -1.57332e-11)
(489.81 2.19244 -1.8547e-10)
(489.743 2.8108 -6.35528e-10)
(489.677 3.21401 -3.90577e-10)
(489.596 3.74446 3.12325e-10)
(489.494 4.25946 7.06633e-10)
(489.407 4.63112 6.86322e-10)
(489.265 5.32792 4.45403e-10)
(489.171 5.4656 3.29486e-10)
(488.992 6.41492 6.86411e-11)
(488.89 6.24918 -3.13051e-10)
(488.676 7.50803 -4.67521e-10)
(488.563 6.99465 -3.11664e-10)
(488.32 8.57969 -2.11551e-10)
(488.186 7.73821 2.19747e-11)
(487.934 9.56338 3.43228e-10)
(487.745 8.6004 1.90094e-10)
(487.54 10.2822 -1.16953e-10)
(487.224 9.69624 -1.31096e-10)
(487.14 10.7645 1.66818e-10)
(486.628 10.9189 2.94843e-10)
(489.037 0.311185 -6.76324e-09)
(489.024 0.879166 2.01944e-09)
(489.007 1.25229 -6.39695e-10)
(488.963 1.91908 -1.09238e-11)
(488.926 2.29058 -1.6021e-10)
(488.861 2.93571 -5.87371e-10)
(488.796 3.35529 -3.69089e-10)
(488.718 3.91369 3.09536e-10)
(488.618 4.44373 7.26345e-10)
(488.534 4.84395 7.26531e-10)
(488.395 5.55524 4.59556e-10)
(488.305 5.72095 3.59365e-10)
(488.13 6.68567 1.18318e-10)
(488.031 6.54536 -2.93704e-10)
(487.822 7.82322 -4.2296e-10)
(487.714 7.32883 -2.52111e-10)
(487.474 8.94156 -2.16484e-10)
(487.347 8.10471 -4.02638e-11)
(487.097 9.98008 2.93928e-10)
(486.919 8.98264 1.63057e-10)
(486.712 10.7646 -1.7053e-10)
(486.411 10.0977 -1.5915e-10)
(486.322 11.2994 1.54796e-10)
(485.828 11.343 2.5863e-10)
(488.1 0.325144 -6.76009e-09)
(488.087 0.91365 2.03594e-09)
(488.071 1.30537 -6.41761e-10)
(488.028 1.99665 2.3465e-11)
(487.992 2.38541 -1.4254e-10)
(487.929 3.05658 -6.26599e-10)
(487.866 3.49183 -4.15152e-10)
(487.79 4.07748 3.01944e-10)
(487.693 4.62183 7.09959e-10)
(487.611 5.04995 6.96624e-10)
(487.476 5.77495 4.6029e-10)
(487.389 5.96814 3.55408e-10)
(487.218 6.94743 1.08751e-10)
(487.124 6.8322 -2.6904e-10)
(486.918 8.12807 -4.0506e-10)
(486.816 7.65278 -2.48131e-10)
(486.58 9.29179 -1.78409e-10)
(486.46 8.46068 -1.55303e-11)
(486.212 10.3826 2.66144e-10)
(486.046 9.35424 1.30619e-10)
(485.836 11.2328 -1.71095e-10)
(485.551 10.4863 -1.71854e-10)
(485.458 11.8202 1.28742e-10)
(484.981 11.7523 2.6788e-10)
(487.113 0.338585 -6.79719e-09)
(487.1 0.946861 1.99375e-09)
(487.084 1.35644 -6.67075e-10)
(487.042 2.07141 2.37373e-11)
(487.008 2.47669 -1.66556e-10)
(486.946 3.17313 -6.28223e-10)
(486.886 3.62332 -3.91796e-10)
(486.812 4.2355 3.47008e-10)
(486.718 4.79342 7.75097e-10)
(486.639 5.24877 7.36043e-10)
(486.507 5.98669 4.75734e-10)
(486.424 6.20677 3.42162e-10)
(486.257 7.19973 6.42334e-11)
(486.167 7.10918 -2.92606e-10)
(485.966 8.42203 -4.11098e-10)
(485.87 7.96583 -2.70257e-10)
(485.638 9.62972 -2.2361e-10)
(485.525 8.8053 -3.68631e-11)
(485.28 10.7706 3.11732e-10)
(485.125 9.71485 1.86109e-10)
(484.914 11.6862 -1.37637e-10)
(484.644 10.8617 -1.63468e-10)
(484.548 12.3265 1.15338e-10)
(484.089 12.1464 2.73064e-10)
(486.075 0.351469 -6.81956e-09)
(486.062 0.978714 2.00036e-09)
(486.047 1.40537 -6.69347e-10)
(486.006 2.14316 2.92988e-11)
(485.973 2.56418 -1.57161e-10)
(485.913 3.28509 -6.24531e-10)
(485.855 3.74945 -3.92214e-10)
(485.784 4.38742 2.98642e-10)
(485.692 4.95814 7.27488e-10)
(485.617 5.44006 7.42783e-10)
(485.489 6.19007 4.86754e-10)
(485.41 6.43645 3.52305e-10)
(485.246 7.44219 7.42417e-11)
(485.162 7.37586 -2.84483e-10)
(484.965 8.70462 -4.01806e-10)
(484.875 8.26739 -2.65949e-10)
(484.647 9.95474 -2.18757e-10)
(484.542 9.13771 -2.77232e-11)
(484.301 11.1437 3.22889e-10)
(484.156 10.0641 1.95269e-10)
(483.944 12.1236 -1.27974e-10)
(483.691 11.2232 -1.54781e-10)
(483.59 12.8176 1.30514e-10)
(483.15 12.5249 2.46348e-10)
(484.985 0.363766 -6.84751e-09)
(484.973 1.00914 2.04735e-09)
(484.958 1.45204 -6.46318e-10)
(484.919 2.21173 -1.42535e-11)
(484.888 2.64766 -2.13572e-10)
(484.829 3.39219 -6.42346e-10)
(484.774 3.86991 -3.66954e-10)
(484.705 4.53291 3.16095e-10)
(484.617 5.11563 7.35026e-10)
(484.545 5.62344 7.34567e-10)
(484.421 6.38472 4.61442e-10)
(484.345 6.65681 3.67827e-10)
(484.187 7.6744 1.32349e-10)
(484.107 7.63184 -2.90542e-10)
(483.915 8.97541 -4.72341e-10)
(483.831 8.55698 -2.90084e-10)
(483.608 10.2663 -2.02965e-10)
(483.51 9.45723 -2.28604e-11)
(483.273 11.5015 3.18399e-10)
(483.139 10.4013 1.81745e-10)
(482.926 12.544 -1.5477e-10)
(482.69 11.5702 -1.41053e-10)
(482.586 13.2927 1.81968e-10)
(482.164 12.8873 2.80347e-10)
(483.845 0.375453 -6.83761e-09)
(483.833 1.03808 2.07804e-09)
(483.819 1.49635 -6.33111e-10)
(483.78 2.27701 -2.9508e-12)
(483.751 2.72697 -2.09037e-10)
(483.695 3.49421 -6.44449e-10)
(483.642 3.98443 -3.72664e-10)
(483.576 4.67164 3.61156e-10)
(483.491 5.26552 7.75318e-10)
(483.422 5.79852 7.15666e-10)
(483.302 6.57022 4.35131e-10)
(483.231 6.86744 3.37463e-10)
(483.077 7.89597 9.3912e-11)
(483.002 7.8767 -2.81759e-10)
(482.815 9.23399 -4.12898e-10)
(482.737 8.83415 -2.41087e-10)
(482.519 10.564 -2.14168e-10)
(482.43 9.76334 -4.1953e-11)
(482.196 11.8434 2.91632e-10)
(482.073 10.7257 1.53428e-10)
(481.861 12.9469 -1.39005e-10)
(481.641 11.9016 -1.31586e-10)
(481.534 13.7504 1.88043e-10)
(481.132 13.2329 2.81107e-10)
(482.653 0.386515 -6.85421e-09)
(482.641 1.0655 2.05462e-09)
(482.629 1.53826 -6.94788e-10)
(482.591 2.33889 8.93149e-12)
(482.563 2.80197 -1.82801e-10)
(482.509 3.59097 -6.5215e-10)
(482.459 4.09278 -3.56665e-10)
(482.395 4.80334 3.40968e-10)
(482.314 5.40748 7.1708e-10)
(482.249 5.96492 7.34124e-10)
(482.133 6.74616 4.75204e-10)
(482.067 7.06791 3.38094e-10)
(481.917 8.10645 1.16269e-10)
(481.848 8.11006 -2.93405e-10)
(481.666 9.47998 -4.65596e-10)
(481.594 9.09851 -2.7196e-10)
(481.381 10.8475 -2.25692e-10)
(481.3 10.0555 -3.18095e-11)
(481.071 12.1689 3.21402e-10)
(480.958 11.0369 1.48691e-10)
(480.747 13.3317 -1.79331e-10)
(480.543 12.2166 -1.51585e-10)
(480.434 14.1895 1.28748e-10)
(480.052 13.5613 2.46631e-10)
(481.411 0.396941 -6.93541e-09)
(481.399 1.09139 2.0368e-09)
(481.387 1.57771 -6.97423e-10)
(481.351 2.3973 -2.06403e-11)
(481.325 2.87256 -1.83252e-10)
(481.272 3.68233 -6.31006e-10)
(481.224 4.19478 -3.68358e-10)
(481.164 4.92776 3.60349e-10)
(481.086 5.54121 7.65469e-10)
(481.025 6.12231 7.47546e-10)
(480.913 6.91215 5.10918e-10)
(480.852 7.2578 3.4431e-10)
(480.707 8.30542 8.69996e-11)
(480.644 8.33146 -3.0027e-10)
(480.467 9.71295 -4.43749e-10)
(480.402 9.34965 -2.77554e-10)
(480.194 11.1163 -2.0845e-10)
(480.121 10.3334 4.51181e-12)
(479.896 12.4777 3.3436e-10)
(479.794 11.3339 1.79271e-10)
(479.585 13.6976 -1.80102e-10)
(479.398 12.5151 -1.77242e-10)
(479.286 14.6095 1.29662e-10)
(478.924 13.8724 2.63053e-10)
(480.117 0.406722 -6.91761e-09)
(480.105 1.1157 2.09698e-09)
(480.094 1.61466 -6.43003e-10)
(480.059 2.4522 -8.15842e-12)
(480.035 2.93867 -2.1818e-10)
(479.984 3.76821 -6.63092e-10)
(479.939 4.29029 -3.86128e-10)
(479.882 5.04475 3.56411e-10)
(479.808 5.66649 7.68233e-10)
(479.75 6.2704 7.61357e-10)
(479.643 7.06784 4.76676e-10)
(479.586 7.43672 3.22158e-10)
(479.446 8.49242 7.47974e-11)
(479.389 8.54045 -3.07212e-10)
(479.217 9.93246 -4.39321e-10)
(479.159 9.58713 -2.61667e-10)
(478.957 11.3701 -1.78747e-10)
(478.892 10.5965 4.20366e-11)
(478.672 12.7696 3.23781e-10)
(478.581 11.6159 1.2728e-10)
(478.374 14.0435 -1.6871e-10)
(478.204 12.7972 -1.56522e-10)
(478.089 15.0112 1.65514e-10)
(477.747 14.1664 3.11786e-10)
(478.771 0.415844 -6.92867e-09)
(478.76 1.13842 2.07222e-09)
(478.75 1.64908 -7.21362e-10)
(478.716 2.50352 -1.45339e-11)
(478.693 3.00022 -1.48265e-10)
(478.645 3.84851 -6.28136e-10)
(478.603 4.37921 -3.98608e-10)
(478.548 5.15417 3.58556e-10)
(478.478 5.78316 7.35191e-10)
(478.424 6.40899 6.86285e-10)
(478.322 7.21296 4.77753e-10)
(478.269 7.60435 3.92767e-10)
(478.135 8.66707 9.92102e-11)
(478.083 8.73658 -3.20073e-10)
(477.917 10.138 -4.34702e-10)
(477.866 9.81048 -2.39673e-10)
(477.67 11.6085 -2.03732e-10)
(477.613 10.8444 -2.30397e-11)
(477.399 13.0443 3.3781e-10)
(477.318 11.8822 1.54236e-10)
(477.114 14.3684 -1.88087e-10)
(476.961 13.0629 -1.6215e-10)
(476.843 15.3935 1.78273e-10)
(476.523 14.4422 2.8554e-10)
(477.375 0.424292 -7.01373e-09)
(477.363 1.15951 2.05311e-09)
(477.354 1.68091 -7.1198e-10)
(477.321 2.55119 -2.74024e-11)
(477.301 3.05714 -1.96878e-10)
(477.255 3.92315 -6.55456e-10)
(477.215 4.46146 -3.87175e-10)
(477.164 5.25594 3.48275e-10)
(477.097 5.89111 7.50527e-10)
(477.047 6.53795 7.24953e-10)
(476.949 7.34734 4.85045e-10)
(476.902 7.76044 3.75707e-10)
(476.773 8.82904 1.11771e-10)
(476.727 8.91947 -2.86504e-10)
(476.567 10.3292 -4.29789e-10)
(476.523 10.0192 -2.62836e-10)
(476.333 11.8309 -1.97469e-10)
(476.284 11.0767 1.09735e-11)
(476.076 13.3014 3.45772e-10)
(476.005 12.1323 1.87575e-10)
(475.805 14.6716 -1.19047e-10)
(475.668 13.3116 -1.8445e-10)
(475.549 15.7557 1.16975e-10)
(475.249 14.6988 2.58534e-10)
(475.926 0.432048 -6.96419e-09)
(475.915 1.17893 2.12471e-09)
(475.907 1.71008 -6.7248e-10)
(475.875 2.59515 1.23535e-11)
(475.856 3.10934 -1.66763e-10)
(475.812 3.99205 -6.31839e-10)
(475.776 4.53695 -3.69101e-10)
(475.727 5.34998 3.63189e-10)
(475.664 5.99027 7.59961e-10)
(475.619 6.65721 7.27264e-10)
(475.525 7.47087 4.79835e-10)
(475.483 7.90489 3.58153e-10)
(475.359 8.97813 8.60888e-11)
(475.32 9.08886 -3.11983e-10)
(475.165 10.5056 -4.70014e-10)
(475.129 10.2128 -3.10165e-10)
(474.944 12.0369 -2.50013e-10)
(474.905 11.2927 2.28901e-11)
(474.702 13.5404 3.47686e-10)
(474.642 12.3658 1.76845e-10)
(474.446 14.953 -1.32274e-10)
(474.326 13.5429 -1.45619e-10)
(474.204 16.0964 1.55835e-10)
(473.927 14.9357 2.87854e-10)
(474.426 0.439098 -7.0079e-09)
(474.416 1.19665 2.10505e-09)
(474.408 1.73657 -7.1265e-10)
(474.377 2.63531 1.23604e-11)
(474.361 3.15675 -1.79988e-10)
(474.319 4.0551 -6.60626e-10)
(474.285 4.60558 -3.57014e-10)
(474.24 5.43619 3.59059e-10)
(474.18 6.08055 7.43774e-10)
(474.139 6.76671 7.55236e-10)
(474.05 7.5835 4.87485e-10)
(474.013 8.03765 3.52682e-10)
(473.894 9.11423 1.24972e-10)
(473.861 9.24461 -2.95046e-10)
(473.712 10.6669 -4.6526e-10)
(473.683 10.391 -2.62765e-10)
(473.505 12.226 -2.17465e-10)
(473.474 11.492 -2.35571e-11)
(473.278 13.7609 3.49339e-10)
(473.229 12.5822 1.6561e-10)
(473.037 15.2126 -1.72728e-10)
(472.933 13.7569 -1.34303e-10)
(472.809 16.4147 1.57055e-10)
(472.555 15.1526 2.65901e-10)
(472.875 0.445435 -7.08635e-09)
(472.864 1.21266 2.11349e-09)
(472.857 1.76033 -6.77596e-10)
(472.828 2.67164 -2.83662e-11)
(472.813 3.1993 -1.74342e-10)
(472.774 4.11225 -6.15758e-10)
(472.742 4.66727 -3.96334e-10)
(472.7 5.51449 3.679e-10)
(472.645 6.16186 7.92581e-10)
(472.607 6.86637 7.18791e-10)
(472.523 7.68515 4.95183e-10)
(472.491 8.15868 4.04473e-10)
(472.377 9.23733 9.1794e-11)
(472.35 9.3867 -2.90316e-10)
(472.208 10.8131 -4.13244e-10)
(472.186 10.5535 -2.93751e-10)
(472.014 12.3979 -2.11294e-10)
(471.993 11.6739 2.46598e-11)
(471.802 13.9622 3.17019e-10)
(471.764 12.7805 1.71795e-10)
(471.578 15.4507 -1.19354e-10)
(471.488 13.9541 -1.63734e-10)
(471.364 16.71 1.64622e-10)
(471.132 15.3489 3.13957e-10)
(471.271 0.451057 -7.07689e-09)
(471.261 1.22694 2.1596e-09)
(471.255 1.78136 -6.48272e-10)
(471.227 2.70413 6.76381e-12)
(471.214 3.23698 -2.13788e-10)
(471.176 4.16344 -6.59199e-10)
(471.148 4.72198 -3.642e-10)
(471.109 5.58481 3.97066e-10)
(471.058 6.23412 8.22479e-10)
(471.024 6.95613 7.54449e-10)
(470.944 7.77577 4.56118e-10)
(470.917 8.26794 3.60226e-10)
(470.809 9.34738 1.18693e-10)
(470.788 9.51516 -2.66324e-10)
(470.652 10.9442 -3.94334e-10)
(470.637 10.7005 -2.75723e-10)
(470.472 12.5524 -2.60239e-10)
(470.459 11.8382 -1.76518e-11)
(470.275 14.1438 3.3243e-10)
(470.249 12.9598 1.84325e-10)
(470.067 15.6668 -9.92534e-11)
(469.993 14.1346 -1.52526e-10)
(469.868 16.9816 1.10813e-10)
(469.659 15.5239 2.67192e-10)
(469.616 0.455971 -7.16518e-09)
(469.606 1.23953 2.0939e-09)
(469.601 1.79969 -7.35861e-10)
(469.574 2.73279 -4.2421e-11)
(469.563 3.26981 -2.14691e-10)
(469.528 4.2087 -6.82552e-10)
(469.502 4.76968 -4.1148e-10)
(469.466 5.64712 3.31052e-10)
(469.418 6.29728 7.38422e-10)
(469.389 7.03589 7.0989e-10)
(469.314 7.85525 4.57302e-10)
(469.292 8.36536 3.41326e-10)
(469.189 9.44432 7.07434e-11)
(469.174 9.62998 -3.32568e-10)
(469.044 11.0601 -4.85826e-10)
(469.037 10.8319 -3.14366e-10)
(468.878 12.6895 -2.53934e-10)
(468.874 11.985 -3.59231e-11)
(468.696 14.3058 2.92106e-10)
(468.681 13.1198 1.29953e-10)
(468.505 15.8602 -1.90949e-10)
(468.446 14.2978 -1.89239e-10)
(468.32 17.2289 1.18553e-10)
(468.135 15.6775 2.56178e-10)
(467.909 0.460189 -7.12924e-09)
(467.899 1.25043 2.1418e-09)
(467.894 1.81536 -7.26076e-10)
(467.869 2.75768 2.20778e-11)
(467.86 3.29784 -1.75409e-10)
(467.827 4.24807 -6.64055e-10)
(467.804 4.81043 -3.44682e-10)
(467.771 5.70145 3.81919e-10)
(467.727 6.35134 7.68949e-10)
(467.702 7.10563 7.87455e-10)
(467.631 7.92351 5.13819e-10)
(467.614 8.45083 3.69038e-10)
(467.517 9.52803 1.47078e-10)
(467.509 9.73107 -2.81679e-10)
(467.384 11.1608 -4.52489e-10)
(467.384 10.9479 -3.02097e-10)
(467.231 12.8094 -2.61699e-10)
(467.237 12.1143 2.22179e-12)
(467.065 14.448 3.15359e-10)
(467.061 13.2602 1.30383e-10)
(466.891 16.0308 -1.41887e-10)
(466.846 14.4425 -1.65275e-10)
(466.722 17.4509 1.19387e-10)
(466.559 15.8096 3.00444e-10)
(466.149 0.463721 -7.15246e-09)
(466.14 1.25969 2.15917e-09)
(466.136 1.82841 -7.22837e-10)
(466.112 2.77886 2.9616e-11)
(466.104 3.32114 -1.69409e-10)
(466.074 4.28163 -6.59675e-10)
(466.054 4.84429 -3.38457e-10)
(466.024 5.74785 3.91447e-10)
(465.984 6.39632 7.79033e-10)
(465.962 7.16535 7.28138e-10)
(465.896 7.98054 4.5253e-10)
(465.885 8.52428 3.8362e-10)
(465.793 9.59838 9.09095e-11)
(465.791 9.81829 -3.36411e-10)
(465.672 11.2462 -4.40209e-10)
(465.68 11.0483 -2.89778e-10)
(465.533 12.9121 -2.48428e-10)
(465.548 12.2264 1.54991e-11)
(465.382 14.5709 3.3184e-10)
(465.389 13.3814 1.43341e-10)
(465.225 16.1788 -1.28486e-10)
(465.194 14.5673 -1.53652e-10)
(465.073 17.6459 1.41373e-10)
(464.933 15.9201 3.2049e-10)
(464.338 0.46658 -7.20201e-09)
(464.329 1.26732 2.21566e-09)
(464.326 1.83888 -6.98858e-10)
(464.303 2.79638 -2.89845e-11)
(464.297 3.33979 -1.70357e-10)
(464.268 4.30947 -6.04547e-10)
(464.251 4.87138 -3.6668e-10)
(464.224 5.78643 3.44282e-10)
(464.188 6.43233 7.89348e-10)
(464.17 7.21513 7.9376e-10)
(464.109 8.02634 5.03241e-10)
(464.102 8.5857 3.50286e-10)
(464.016 9.65529 1.12143e-10)
(464.02 9.8915 -2.63912e-10)
(463.907 11.3161 -4.56083e-10)
(463.923 11.1329 -3.16883e-10)
(463.782 12.9973 -2.2033e-10)
(463.806 12.3212 2.89759e-11)
(463.647 14.6744 3.34039e-10)
(463.664 13.4837 1.31096e-10)
(463.506 16.3052 -1.58647e-10)
(463.489 14.6715 -1.35325e-10)
(463.371 17.8125 1.49621e-10)
(463.254 16.0089 2.52752e-10)
(462.475 0.468768 -7.26109e-09)
(462.465 1.27333 2.15494e-09)
(462.463 1.84681 -7.35825e-10)
(462.442 2.81027 -4.3996e-11)
(462.437 3.35383 -2.33258e-10)
(462.411 4.33164 -7.16258e-10)
(462.396 4.89175 -3.74552e-10)
(462.372 5.81728 4.39924e-10)
(462.339 6.45946 8.42205e-10)
(462.326 7.25507 8.0378e-10)
(462.269 8.06102 5.33247e-10)
(462.267 8.63514 3.99839e-10)
(462.186 9.69875 1.19387e-10)
(462.197 9.95065 -2.99363e-10)
(462.09 11.3702 -4.65007e-10)
(462.113 11.2016 -3.04274e-10)
(461.979 13.0647 -2.5029e-10)
(462.012 12.3984 -3.60974e-11)
(461.859 14.7584 2.84379e-10)
(461.888 13.5671 1.12132e-10)
(461.735 16.4099 -1.52523e-10)
(461.732 14.7557 -1.03799e-10)
(461.617 17.9508 2.09803e-10)
(461.522 16.0754 3.29928e-10)
(460.558 0.470289 -7.32106e-09)
(460.549 1.27774 2.17268e-09)
(460.548 1.85219 -7.04867e-10)
(460.527 2.82054 -5.1394e-11)
(460.525 3.3633 -2.13755e-10)
(460.5 4.34818 -6.67419e-10)
(460.488 4.90546 -3.68425e-10)
(460.468 5.84046 4.06528e-10)
(460.438 6.4778 7.60776e-10)
(460.429 7.28528 7.4969e-10)
(460.376 8.08467 5.13434e-10)
(460.38 8.67274 3.3793e-10)
(460.304 9.72885 8.30873e-11)
(460.321 9.99582 -3.07783e-10)
(460.22 11.4086 -4.44997e-10)
(460.251 11.2542 -2.57804e-10)
(460.123 13.1141 -2.43554e-10)
(460.166 12.4577 -2.75846e-12)
(460.019 14.8225 3.5305e-10)
(460.059 13.6312 1.25279e-10)
(459.912 16.4931 -1.83815e-10)
(459.922 14.8202 -1.61839e-10)
(459.811 18.0615 1.73386e-10)
(459.737 16.12 3.1827e-10)
(458.589 0.471138 -7.28337e-09)
(458.581 1.28053 2.2066e-09)
(458.58 1.85503 -7.28811e-10)
(458.561 2.8272 -3.64186e-11)