/*--------------------------------*- C++ -*----------------------------------*\
  =========                 |
  \\      /  F ield         | OpenFOAM: The Open Source CFD Toolbox
   \\    /   O peration     | Website:  https://openfoam.org
    \\  /    A nd           | Version:  10
     \\/     M anipulation  |
\*---------------------------------------------------------------------------*/
FoamFile
{
    format      ascii;
    class       volScalarField;
    location    "0.09";
    object      Ma;
}
// * * * * * * * * * * * * * * * * * * * * * * * * * * * * * * * * * * * * * //

dimensions      [0 0 0 0 0 0 0];

internalField   nonuniform List<scalar> 
4176
(
1.81734
1.81733
1.81713
1.81689
1.81646
1.81607
1.81541
1.81488
1.81398
1.81333
1.8122
1.81142
1.81008
1.80915
1.80767
1.8065
1.805
1.80346
1.8021
1.80001
1.79902
1.79612
1.79591
1.7922
1.81747
1.81746
1.81726
1.81701
1.81657
1.81617
1.81549
1.81495
1.81402
1.81335
1.81217
1.81137
1.80999
1.80904
1.80752
1.80632
1.8048
1.80321
1.80185
1.79967
1.79871
1.79566
1.79543
1.79134
1.8181
1.81809
1.8179
1.81765
1.81723
1.81683
1.81617
1.81564
1.81473
1.81408
1.81294
1.81216
1.8108
1.80987
1.80837
1.80721
1.80572
1.80414
1.80284
1.80067
1.79981
1.79679
1.79656
1.79233
1.81814
1.81813
1.81793
1.81769
1.81727
1.81688
1.81621
1.81569
1.81478
1.81414
1.81299
1.81222
1.81086
1.80994
1.80843
1.80727
1.80579
1.80417
1.80292
1.80071
1.79986
1.79689
1.7967
1.79265
1.81803
1.81801
1.81782
1.81758
1.81716
1.81677
1.81612
1.81559
1.8147
1.81406
1.81293
1.81217
1.81082
1.80991
1.80841
1.80727
1.80577
1.80416
1.80296
1.80074
1.79989
1.79696
1.79676
1.79285
1.81749
1.81747
1.81728
1.81704
1.81663
1.81623
1.8156
1.81507
1.8142
1.81355
1.81245
1.81168
1.81036
1.80945
1.80796
1.80685
1.80532
1.80378
1.80253
1.80036
1.79949
1.79658
1.79636
1.79244
1.81668
1.81665
1.81647
1.81623
1.81583
1.81543
1.81481
1.81428
1.81343
1.81277
1.81169
1.81092
1.80962
1.80871
1.80724
1.80615
1.80461
1.80314
1.80183
1.79973
1.79884
1.79598
1.79573
1.79183
1.81549
1.81546
1.81528
1.81504
1.81465
1.81426
1.81364
1.81312
1.81228
1.81164
1.81058
1.80981
1.80854
1.80764
1.80619
1.80511
1.80358
1.80216
1.80082
1.79877
1.79788
1.79506
1.79479
1.79094
1.81402
1.81399
1.81381
1.81357
1.81318
1.81279
1.81219
1.81167
1.81085
1.8102
1.80916
1.80839
1.80714
1.80625
1.80482
1.80376
1.80223
1.80087
1.7995
1.79753
1.79661
1.79384
1.79356
1.78976
1.81218
1.81215
1.81198
1.81174
1.81136
1.81098
1.81039
1.80987
1.80907
1.80843
1.80741
1.80666
1.80543
1.80455
1.80314
1.8021
1.80059
1.79926
1.79789
1.79598
1.79504
1.79233
1.79203
1.7883
1.81006
1.81003
1.80985
1.80962
1.80925
1.80887
1.80828
1.80777
1.80698
1.80635
1.80535
1.8046
1.80339
1.80253
1.80114
1.80012
1.79863
1.79735
1.79596
1.79413
1.79316
1.79053
1.79021
1.78655
1.80759
1.80756
1.80739
1.80716
1.80679
1.80642
1.80585
1.80535
1.80458
1.80396
1.80298
1.80224
1.80106
1.80021
1.79885
1.79785
1.79638
1.79513
1.79375
1.79197
1.791
1.78843
1.78811
1.78451
1.80483
1.8048
1.80463
1.8044
1.80404
1.80367
1.80311
1.80262
1.80186
1.80125
1.80028
1.79956
1.7984
1.79757
1.79623
1.79526
1.79381
1.79261
1.79123
1.78952
1.78853
1.78604
1.78571
1.78219
1.80175
1.80171
1.80155
1.80132
1.80097
1.80061
1.80007
1.79958
1.79884
1.79824
1.7973
1.7966
1.79546
1.79465
1.79334
1.79238
1.79097
1.78979
1.78842
1.78678
1.78579
1.78337
1.78303
1.77958
1.79834
1.79831
1.79815
1.79793
1.79758
1.79723
1.7967
1.79622
1.7955
1.79491
1.79399
1.7933
1.79219
1.7914
1.79012
1.7892
1.7878
1.78667
1.7853
1.78373
1.78273
1.7804
1.78006
1.7767
1.79465
1.79461
1.79446
1.79424
1.79391
1.79356
1.79304
1.79258
1.79187
1.7913
1.7904
1.78973
1.78865
1.78787
1.78662
1.78572
1.78436
1.78326
1.78192
1.7804
1.77941
1.77714
1.77682
1.77353
1.79062
1.79059
1.79044
1.79023
1.7899
1.78956
1.78906
1.7886
1.78792
1.78736
1.78649
1.78584
1.78478
1.78403
1.78281
1.78194
1.7806
1.77956
1.77822
1.77678
1.77578
1.77361
1.77327
1.77008
1.78633
1.78629
1.78614
1.78594
1.78562
1.78529
1.7848
1.78436
1.78369
1.78316
1.7823
1.78167
1.78064
1.77992
1.77873
1.77789
1.77658
1.77557
1.77426
1.77288
1.77189
1.76979
1.76946
1.76635
1.78169
1.78165
1.78151
1.78131
1.781
1.78068
1.78021
1.77978
1.77914
1.77862
1.77779
1.77718
1.77618
1.77549
1.77433
1.77353
1.77225
1.77128
1.77
1.76869
1.7677
1.76569
1.76535
1.76234
1.7768
1.77676
1.77662
1.77642
1.77613
1.77582
1.77536
1.77495
1.77432
1.77382
1.77302
1.77244
1.77147
1.7708
1.76967
1.7689
1.76766
1.76673
1.76548
1.76423
1.76325
1.76132
1.76098
1.75806
1.77155
1.77151
1.77138
1.77119
1.77091
1.77061
1.77017
1.76978
1.76917
1.76869
1.76792
1.76736
1.76642
1.76579
1.76469
1.76397
1.76276
1.76188
1.76066
1.75948
1.7585
1.75667
1.75633
1.75351
1.76607
1.76603
1.7659
1.76572
1.76545
1.76516
1.76474
1.76436
1.76378
1.76332
1.76257
1.76204
1.76113
1.76053
1.75947
1.75878
1.7576
1.75677
1.75558
1.75446
1.7535
1.75175
1.75141
1.74868
1.76023
1.7602
1.76008
1.7599
1.75964
1.75937
1.75896
1.7586
1.75804
1.75761
1.75689
1.75639
1.75551
1.75495
1.75392
1.75328
1.75214
1.75136
1.75021
1.74915
1.74821
1.74655
1.74621
1.74359
1.75418
1.75414
1.75402
1.75386
1.7536
1.75335
1.75295
1.75261
1.75208
1.75167
1.75097
1.7505
1.74966
1.74912
1.74814
1.74753
1.74643
1.74569
1.74458
1.74358
1.74266
1.74109
1.74076
1.73824
1.74776
1.74773
1.74762
1.74746
1.74722
1.74698
1.74661
1.74629
1.74577
1.74539
1.74473
1.74429
1.74348
1.74298
1.74203
1.74147
1.74042
1.73973
1.73866
1.73772
1.73683
1.73535
1.73503
1.73261
1.74114
1.7411
1.74099
1.74085
1.74062
1.74039
1.74003
1.73974
1.73924
1.73889
1.73825
1.73785
1.73707
1.73661
1.73569
1.73517
1.73416
1.73352
1.73249
1.73161
1.73074
1.72935
1.72905
1.72673
1.73416
1.73413
1.73403
1.73389
1.73367
1.73346
1.73313
1.73285
1.73238
1.73205
1.73145
1.73108
1.73034
1.72992
1.72904
1.72857
1.7276
1.72701
1.72602
1.72521
1.72437
1.72307
1.72278
1.72057
1.72699
1.72695
1.72686
1.72672
1.72652
1.72632
1.726
1.72575
1.72531
1.725
1.72443
1.72409
1.72338
1.723
1.72216
1.72173
1.7208
1.72026
1.71931
1.71857
1.71776
1.71655
1.71627
1.71416
1.71947
1.71943
1.71934
1.71922
1.71903
1.71885
1.71855
1.71831
1.7179
1.71763
1.71708
1.71678
1.71611
1.71577
1.71497
1.71459
1.7137
1.71322
1.71232
1.71164
1.71087
1.70975
1.70949
1.70748
1.71175
1.71172
1.71163
1.71152
1.71134
1.71117
1.71089
1.71068
1.71028
1.71004
1.70952
1.70925
1.70861
1.70832
1.70756
1.70722
1.70638
1.70594
1.70509
1.70446
1.70374
1.7027
1.70245
1.70056
1.70371
1.70367
1.7036
1.70349
1.70333
1.70317
1.70291
1.70272
1.70235
1.70213
1.70165
1.70142
1.70082
1.70056
1.69984
1.69956
1.69875
1.69838
1.69757
1.69701
1.69632
1.69538
1.69515
1.69337
1.69547
1.69544
1.69536
1.69527
1.69511
1.69497
1.69473
1.69456
1.69421
1.69402
1.69357
1.69337
1.6928
1.69258
1.6919
1.69166
1.69091
1.69058
1.68982
1.68932
1.68867
1.6878
1.6876
1.68593
1.68692
1.68688
1.68682
1.68673
1.68659
1.68646
1.68624
1.68609
1.68577
1.68561
1.68519
1.68502
1.68449
1.68431
1.68368
1.68348
1.68277
1.68251
1.68178
1.68135
1.68075
1.67997
1.67978
1.67822
1.67816
1.67814
1.67807
1.67799
1.67786
1.67775
1.67755
1.67742
1.67712
1.67699
1.67659
1.67646
1.67595
1.67582
1.67522
1.67507
1.6744
1.67419
1.67352
1.67314
1.67259
1.67188
1.67172
1.67027
1.66913
1.6691
1.66904
1.66897
1.66885
1.66876
1.66857
1.66846
1.66819
1.66808
1.66772
1.66762
1.66715
1.66706
1.6665
1.6664
1.66576
1.66562
1.66498
1.66468
1.66417
1.66354
1.66339
1.66207
1.65988
1.65985
1.6598
1.65974
1.65963
1.65955
1.65938
1.65929
1.65904
1.65896
1.65862
1.65855
1.65812
1.65807
1.65754
1.65748
1.6569
1.65679
1.65621
1.65596
1.6555
1.65495
1.65483
1.65362
1.65038
1.65035
1.6503
1.65025
1.65015
1.65008
1.64993
1.64986
1.64964
1.64958
1.64927
1.64924
1.64884
1.64882
1.64833
1.64833
1.64777
1.64773
1.64718
1.647
1.64658
1.64611
1.64603
1.64492
1.64065
1.64063
1.64059
1.64054
1.64045
1.6404
1.64026
1.64021
1.64
1.63997
1.63969
1.63969
1.63932
1.63934
1.63889
1.63892
1.63842
1.63842
1.63792
1.63779
1.63742
1.63701
1.63697
1.63598
1.6307
1.63067
1.63063
1.63059
1.63052
1.63048
1.63035
1.63032
1.63014
1.63014
1.62988
1.62991
1.62957
1.62964
1.62922
1.6293
1.62882
1.62889
1.62842
1.62836
1.62803
1.62769
1.62768
1.6268
1.62051
1.62049
1.62045
1.62042
1.62035
1.62032
1.62022
1.6202
1.62004
1.62006
1.61983
1.61989
1.61958
1.61968
1.61929
1.61942
1.61899
1.6191
1.61868
1.61868
1.61839
1.61812
1.61815
1.61736
1.61012
1.61009
1.61007
1.61004
1.60998
1.60996
1.60987
1.60988
1.60974
1.60978
1.60957
1.60966
1.60938
1.60952
1.60917
1.60935
1.60894
1.60911
1.60872
1.60879
1.60853
1.60834
1.6084
1.6077
1.59948
1.59946
1.59944
1.59941
1.59937
1.59936
1.59929
1.59931
1.59919
1.59925
1.59907
1.59919
1.59893
1.59911
1.59879
1.59901
1.59865
1.59886
1.59852
1.59864
1.59843
1.59831
1.5984
1.5978
1.58867
1.58864
1.58862
1.58861
1.58857
1.58858
1.58852
1.58856
1.58845
1.58854
1.58838
1.58853
1.58831
1.58852
1.58823
1.58849
1.58815
1.58843
1.58811
1.5883
1.58811
1.58807
1.5882
1.58769
1.5776
1.57758
1.57756
1.57755
1.57753
1.57755
1.5775
1.57756
1.57747
1.57758
1.57745
1.57762
1.57742
1.57767
1.57741
1.57771
1.57742
1.57774
1.57745
1.57771
1.57755
1.57759
1.57774
1.57734
1.56637
1.56635
1.56634
1.56633
1.56632
1.56635
1.56631
1.56639
1.56632
1.56645
1.56634
1.56655
1.56637
1.56665
1.56642
1.56677
1.5665
1.56687
1.56661
1.56693
1.5668
1.56691
1.56708
1.56677
1.55489
1.55487
1.55486
1.55487
1.55486
1.5549
1.55488
1.55497
1.55493
1.55508
1.55499
1.55522
1.55508
1.55539
1.55519
1.55558
1.55534
1.55577
1.55554
1.55592
1.55581
1.55601
1.55619
1.55598
1.54326
1.54324
1.54324
1.54325
1.54325
1.5433
1.5433
1.5434
1.54337
1.54355
1.54348
1.54374
1.54362
1.54396
1.54379
1.54422
1.54401
1.54448
1.54428
1.54472
1.54463
1.54491
1.54509
1.54499
1.53139
1.53137
1.53137
1.53139
1.5314
1.53146
1.53147
1.53159
1.53159
1.53178
1.53174
1.53202
1.53193
1.53231
1.53216
1.53263
1.53245
1.53298
1.5328
1.53331
1.53323
1.5336
1.53378
1.53379
1.51937
1.51936
1.51936
1.51939
1.51941
1.51948
1.5195
1.51964
1.51964
1.51986
1.51984
1.52014
1.52008
1.52048
1.52037
1.52087
1.52071
1.52128
1.52113
1.52171
1.52164
1.5221
1.52227
1.52238
1.50714
1.50712
1.50713
1.50716
1.50719
1.50727
1.50731
1.50746
1.50749
1.50772
1.50772
1.50805
1.50801
1.50845
1.50836
1.50891
1.50878
1.50941
1.50926
1.50992
1.50985
1.5104
1.51057
1.51078
1.49476
1.49474
1.49476
1.49479
1.49483
1.49492
1.49497
1.49513
1.49517
1.49543
1.49545
1.4958
1.49578
1.49625
1.49618
1.49677
1.49666
1.49733
1.49721
1.49792
1.49786
1.4985
1.49867
1.49898
1.48218
1.48217
1.48218
1.48222
1.48227
1.48237
1.48243
1.48261
1.48267
1.48294
1.48298
1.48336
1.48337
1.48387
1.48382
1.48445
1.48435
1.4851
1.48497
1.48577
1.48569
1.48643
1.4866
1.487
1.46946
1.46944
1.46946
1.4695
1.46956
1.46967
1.46974
1.46993
1.47001
1.4703
1.47035
1.47076
1.47078
1.47131
1.47128
1.47195
1.47186
1.47266
1.47254
1.47342
1.47334
1.47414
1.47433
1.47481
1.45657
1.45655
1.45658
1.45663
1.45669
1.4568
1.45689
1.45709
1.45719
1.45749
1.45757
1.458
1.45803
1.4586
1.45858
1.45931
1.45921
1.46009
1.45995
1.4609
1.46084
1.46171
1.46189
1.46246
1.44353
1.44351
1.44354
1.44359
1.44366
1.44378
1.44388
1.44409
1.4442
1.44452
1.44461
1.44506
1.4451
1.44572
1.44569
1.44647
1.44637
1.44731
1.44718
1.44818
1.44813
1.44906
1.44926
1.4499
1.43036
1.43034
1.43037
1.43043
1.4305
1.43063
1.43074
1.43096
1.43108
1.43142
1.43152
1.432
1.43205
1.43271
1.43267
1.43351
1.43341
1.43439
1.43428
1.43532
1.4353
1.43627
1.43649
1.4372
1.41703
1.41702
1.41705
1.4171
1.41719
1.41732
1.41744
1.41767
1.4178
1.41816
1.41825
1.41878
1.41881
1.41951
1.41948
1.42035
1.42027
1.42128
1.42119
1.42227
1.42227
1.42329
1.42352
1.4243
1.4036
1.40359
1.40362
1.40368
1.40377
1.40391
1.40404
1.40428
1.4044
1.40479
1.40488
1.40544
1.40547
1.4062
1.40618
1.40708
1.40702
1.40805
1.40799
1.4091
1.40911
1.41018
1.41042
1.41126
1.39002
1.39001
1.39005
1.3901
1.39021
1.39034
1.39048
1.39073
1.39086
1.39126
1.39135
1.39193
1.39198
1.39272
1.39272
1.39363
1.39359
1.39465
1.3946
1.39574
1.39578
1.39689
1.39714
1.39805
1.37636
1.37635
1.37639
1.37644
1.37655
1.37669
1.37684
1.37709
1.37723
1.37764
1.37774
1.37832
1.37839
1.37914
1.37916
1.38008
1.38006
1.38113
1.38111
1.38227
1.38232
1.38347
1.38373
1.38469
1.36257
1.36255
1.36259
1.36265
1.36276
1.36289
1.36305
1.36329
1.36346
1.36386
1.36398
1.36457
1.36465
1.36541
1.36544
1.36638
1.36638
1.36747
1.36746
1.36865
1.36871
1.3699
1.37016
1.37118
1.34869
1.34867
1.34872
1.34878
1.34889
1.34903
1.34919
1.34943
1.34962
1.35
1.35015
1.35073
1.35082
1.35158
1.35164
1.35257
1.35259
1.35369
1.3537
1.35491
1.35498
1.3562
1.35647
1.35754
1.3347
1.33468
1.33472
1.33478
1.33489
1.33503
1.3352
1.33544
1.33564
1.33601
1.33619
1.33675
1.33687
1.33763
1.3377
1.33864
1.33868
1.33979
1.33981
1.34104
1.34113
1.34238
1.34264
1.34376
1.32063
1.32061
1.32065
1.32071
1.32082
1.32096
1.32113
1.32137
1.32158
1.32194
1.32214
1.32269
1.32283
1.32358
1.32367
1.32461
1.32466
1.32578
1.32582
1.32705
1.32716
1.32843
1.3287
1.32986
1.30645
1.30643
1.30647
1.30653
1.30664
1.30678
1.30696
1.30719
1.30741
1.30777
1.30799
1.30852
1.30869
1.30943
1.30953
1.31048
1.31054
1.31167
1.31172
1.31297
1.31308
1.31438
1.31465
1.31585
1.29219
1.29216
1.29221
1.29227
1.29238
1.29252
1.2927
1.29293
1.29316
1.29351
1.29374
1.29426
1.29445
1.29519
1.2953
1.29626
1.29633
1.29746
1.29752
1.29878
1.2989
1.30022
1.30049
1.30172
1.27783
1.27781
1.27785
1.27791
1.27803
1.27817
1.27835
1.27858
1.27882
1.27916
1.27941
1.27993
1.28013
1.28087
1.281
1.28195
1.28203
1.28317
1.28325
1.28452
1.28465
1.28598
1.28625
1.28751
1.26338
1.26335
1.2634
1.26346
1.26358
1.26372
1.26391
1.26414
1.26438
1.26472
1.26499
1.2655
1.26572
1.26645
1.2666
1.26756
1.26765
1.26879
1.26888
1.27016
1.27029
1.27163
1.27192
1.2732
1.24885
1.24882
1.24887
1.24893
1.24906
1.2492
1.24939
1.24963
1.24988
1.25022
1.25051
1.25101
1.25125
1.25198
1.25214
1.2531
1.2532
1.25435
1.25445
1.25573
1.25588
1.25723
1.25751
1.25882
1.23422
1.23419
1.23425
1.23431
1.23444
1.23459
1.23479
1.23503
1.23529
1.23564
1.23593
1.23643
1.2367
1.23742
1.2376
1.23856
1.23867
1.23983
1.23993
1.24123
1.24138
1.24274
1.24302
1.24435
1.21954
1.21951
1.21957
1.21963
1.21977
1.21992
1.22013
1.22038
1.22065
1.221
1.22132
1.22181
1.2221
1.22281
1.22302
1.22397
1.2241
1.22526
1.22537
1.22666
1.22682
1.22819
1.22847
1.2298
1.20478
1.20476
1.20481
1.20488
1.20502
1.20518
1.2054
1.20565
1.20594
1.20629
1.20663
1.20711
1.20744
1.20813
1.20837
1.2093
1.20945
1.21062
1.21073
1.21203
1.21219
1.21356
1.21384
1.21519
1.19002
1.19
1.19005
1.19013
1.19026
1.19043
1.19065
1.19091
1.1912
1.19156
1.1919
1.19239
1.19273
1.1934
1.19368
1.19459
1.19477
1.19591
1.19604
1.19733
1.1975
1.19886
1.19914
1.20049
1.17525
1.17523
1.17528
1.17535
1.17549
1.17566
1.17587
1.17613
1.17642
1.17678
1.17713
1.17761
1.17797
1.17862
1.17893
1.1798
1.18002
1.18113
1.18128
1.18256
1.18273
1.18409
1.18437
1.18572
1.16053
1.16051
1.16055
1.16062
1.16075
1.16091
1.16112
1.16137
1.16165
1.162
1.16234
1.1628
1.16317
1.16379
1.16412
1.16496
1.16521
1.16628
1.16645
1.16772
1.16788
1.16924
1.1695
1.17085
1.14587
1.14584
1.14588
1.14594
1.14605
1.1462
1.14639
1.14662
1.14688
1.14721
1.14753
1.14797
1.14832
1.14892
1.14925
1.15005
1.15032
1.15136
1.15154
1.15279
1.15295
1.1543
1.15456
1.15591
1.13127
1.13123
1.13126
1.13131
1.13141
1.13153
1.1317
1.1319
1.13213
1.13243
1.13272
1.13312
1.13345
1.13401
1.13433
1.13508
1.13535
1.13634
1.13654
1.13776
1.13791
1.13927
1.1395
1.14085
1.11669
1.11665
1.11668
1.11671
1.11679
1.11688
1.11702
1.1172
1.1174
1.11765
1.11791
1.11827
1.11856
1.11907
1.11936
1.12006
1.12031
1.12125
1.12144
1.12262
1.12277
1.12412
1.12435
1.1257
1.10208
1.10203
1.10205
1.10206
1.10213
1.1022
1.10232
1.10246
1.10263
1.10285
1.10307
1.10339
1.10364
1.10411
1.10434
1.10501
1.1052
1.1061
1.10624
1.1074
1.1075
1.10885
1.10905
1.11043
1.08732
1.08727
1.08729
1.08728
1.08735
1.0874
1.08752
1.08763
1.0878
1.08797
1.08818
1.08845
1.08868
1.08911
1.08928
1.08994
1.09003
1.09095
1.09097
1.09213
1.09215
1.09347
1.09363
1.09498
1.07228
1.07222
1.07224
1.07224
1.07231
1.07236
1.07248
1.07259
1.07276
1.07293
1.07313
1.07339
1.07362
1.07401
1.07416
1.07482
1.07483
1.07577
1.07569
1.07685
1.07678
1.07807
1.07815
1.07941
1.05681
1.05676
1.05678
1.0568
1.05687
1.05695
1.05708
1.05722
1.0574
1.05761
1.05783
1.05811
1.05835
1.05873
1.05894
1.05955
1.0596
1.0605
1.06041
1.06156
1.06143
1.06271
1.06272
1.06391
1.0408
1.04075
1.04078
1.04081
1.04091
1.04102
1.04119
1.04137
1.0416
1.04186
1.04213
1.04246
1.04277
1.04319
1.04348
1.04407
1.04423
1.0451
1.04506
1.04623
1.04607
1.0474
1.04736
1.04856
1.02414
1.02409
1.02414
1.02419
1.02433
1.02447
1.02469
1.02493
1.02522
1.02555
1.0259
1.02631
1.02671
1.02721
1.02761
1.02827
1.02855
1.02947
1.02952
1.03077
1.03062
1.03205
1.03197
1.03327
1.00681
1.00676
1.00683
1.00689
1.00706
1.00725
1.00752
1.00781
1.00818
1.00857
1.00903
1.00952
1.01005
1.01066
1.01119
1.01197
1.01238
1.01346
1.01361
1.01503
1.01494
1.01654
1.01646
1.01793
0.988805
0.988756
0.988835
0.988924
0.989118
0.989338
0.989653
0.989995
0.990431
0.990889
0.99144
0.992021
0.992661
0.993382
0.994068
0.994966
0.995575
0.996805
0.997142
0.998759
0.998831
1.00067
1.00065
1.00241
0.970207
0.970163
0.97024
0.970352
0.970556
0.970809
0.971145
0.971537
0.972004
0.972536
0.97313
0.973805
0.974517
0.975344
0.976154
0.97715
0.977992
0.979275
0.979949
0.981666
0.982037
0.984165
0.98431
0.986494
0.951104
0.951064
0.95114
0.95126
0.951472
0.951739
0.952091
0.952503
0.952995
0.953558
0.954189
0.954907
0.955672
0.956558
0.957448
0.958519
0.959507
0.960823
0.961813
0.963515
0.964307
0.966583
0.967032
0.969778
0.931629
0.93159
0.931663
0.931784
0.931996
0.932264
0.93262
0.933035
0.933535
0.934103
0.934746
0.935474
0.936259
0.93716
0.938084
0.939178
0.940222
0.941561
0.942681
0.944354
0.945449
0.947683
0.948459
0.951651
0.911899
0.911858
0.911926
0.912042
0.912249
0.912509
0.912858
0.913263
0.913755
0.914309
0.914946
0.915657
0.916436
0.917317
0.918236
0.919306
0.920351
0.921662
0.922783
0.924429
0.925535
0.927723
0.928547
0.931736
0.892044
0.891998
0.892062
0.892168
0.892366
0.892611
0.892947
0.893331
0.893806
0.894333
0.894949
0.895626
0.896381
0.897219
0.898109
0.899126
0.900139
0.901386
0.902453
0.904042
0.905038
0.907179
0.907874
0.910802
0.872162
0.872111
0.872169
0.872264
0.872449
0.872675
0.872994
0.873351
0.873804
0.874295
0.874883
0.875514
0.876236
0.877018
0.877867
0.878817
0.879782
0.880944
0.881954
0.883443
0.88436
0.886377
0.887014
0.889725
0.85235
0.852293
0.852345
0.852425
0.852599
0.852803
0.853103
0.853428
0.853857
0.854305
0.854863
0.855441
0.856126
0.856843
0.857648
0.858521
0.859433
0.8605
0.861452
0.862833
0.863681
0.865549
0.866146
0.86865
0.832679
0.832614
0.832666
0.832725
0.832893
0.833066
0.833353
0.833637
0.834047
0.834443
0.834979
0.835488
0.836147
0.836783
0.837554
0.838338
0.8392
0.840167
0.84106
0.842331
0.843115
0.844828
0.845392
0.847688
0.813213
0.813142
0.813194
0.813231
0.813394
0.813533
0.813811
0.814049
0.814448
0.81478
0.815304
0.815732
0.816379
0.816916
0.81767
0.818344
0.819174
0.820034
0.820868
0.822027
0.82276
0.824311
0.824847
0.826936
0.794
0.793926
0.79397
0.793996
0.794142
0.794263
0.794515
0.794725
0.795091
0.795383
0.795871
0.796244
0.796854
0.797315
0.798035
0.798611
0.799405
0.800156
0.800945
0.801981
0.802669
0.804057
0.804569
0.806453
0.775085
0.775009
0.775041
0.775064
0.775183
0.775298
0.775511
0.775711
0.776026
0.776302
0.776727
0.777076
0.777616
0.77804
0.778689
0.779206
0.779937
0.780591
0.781346
0.782242
0.782895
0.784125
0.784615
0.786298
0.756493
0.756416
0.756438
0.756455
0.756554
0.756657
0.75684
0.75702
0.757294
0.757546
0.757919
0.758238
0.758714
0.759101
0.759678
0.760143
0.760807
0.761378
0.76209
0.76284
0.763473
0.764548
0.765019
0.766505
0.738257
0.73818
0.738193
0.738203
0.738285
0.738372
0.73853
0.738687
0.738928
0.73915
0.739479
0.739762
0.740184
0.740526
0.741043
0.741449
0.742052
0.742542
0.743205
0.743827
0.744446
0.745361
0.745813
0.747107
0.720392
0.720314
0.72032
0.720321
0.720389
0.720459
0.720595
0.720729
0.720939
0.72113
0.72142
0.721664
0.722039
0.722333
0.722796
0.723143
0.723689
0.724101
0.72471
0.725223
0.725826
0.726579
0.727017
0.728124
0.702918
0.70284
0.702839
0.702833
0.702887
0.702942
0.703057
0.703167
0.703349
0.703509
0.703763
0.703969
0.7043
0.704547
0.70496
0.705248
0.70574
0.706078
0.706634
0.707049
0.707624
0.708225
0.708652
0.709578
0.685844
0.685766
0.685759
0.685745
0.685787
0.685826
0.685922
0.68601
0.686165
0.686295
0.686516
0.686684
0.686975
0.687176
0.687541
0.687774
0.688214
0.688483
0.688988
0.689312
0.689849
0.690308
0.690728
0.691483
0.669182
0.669104
0.669093
0.669072
0.669101
0.669127
0.669205
0.66927
0.669401
0.669503
0.669692
0.669823
0.670076
0.670233
0.670554
0.670733
0.671124
0.671327
0.671782
0.672024
0.672517
0.672849
0.67326
0.673855
0.652936
0.652858
0.652842
0.652814
0.652833
0.652845
0.652906
0.652951
0.653059
0.653133
0.653292
0.653389
0.653606
0.65372
0.654
0.654127
0.654473
0.654612
0.65502
0.655182
0.655632
0.655853
0.656253
0.656694
0.637113
0.637036
0.637015
0.636982
0.636991
0.63699
0.637035
0.637061
0.637147
0.637195
0.637326
0.637391
0.637573
0.637648
0.637888
0.637966
0.638268
0.638348
0.63871
0.638798
0.639204
0.639329
0.639717
0.640008
0.621712
0.621636
0.621611
0.621572
0.621572
0.621559
0.621589
0.621597
0.621662
0.621686
0.621791
0.621824
0.621975
0.622012
0.622215
0.622247
0.622509
0.622532
0.622852
0.62287
0.623236
0.623272
0.623639
0.623791
0.606738
0.606663
0.606635
0.606591
0.606582
0.606558
0.606574
0.606565
0.606611
0.606612
0.606692
0.606696
0.606817
0.606817
0.606986
0.606974
0.607198
0.607168
0.607449
0.607402
0.60773
0.607685
0.608025
0.608049
0.592186
0.592112
0.592081
0.592032
0.592015
0.591981
0.591984
0.591959
0.591987
0.591966
0.592023
0.592
0.592092
0.59206
0.592195
0.592143
0.59233
0.59225
0.592493
0.592384
0.592676
0.592553
0.592865
0.592776
0.578058
0.577986
0.577952
0.577899
0.577874
0.577831
0.577822
0.577782
0.577793
0.577752
0.577787
0.577739
0.577805
0.57774
0.577845
0.577754
0.577907
0.57778
0.577987
0.57782
0.578077
0.577879
0.578163
0.577973
0.564346
0.564276
0.56424
0.564183
0.564152
0.5641
0.56408
0.564027
0.564022
0.563962
0.563977
0.563905
0.563946
0.563852
0.563928
0.563801
0.563922
0.563751
0.563925
0.563703
0.563929
0.56366
0.56392
0.563633
0.551052
0.550984
0.550946
0.550886
0.550849
0.550788
0.550758
0.550692
0.550673
0.550596
0.550592
0.550498
0.550516
0.550395
0.550444
0.550284
0.550376
0.550164
0.550307
0.550034
0.550232
0.549896
0.550137
0.54976
0.538165
0.538099
0.538059
0.537997
0.537954
0.537886
0.537847
0.537769
0.537737
0.537644
0.537623
0.537508
0.537505
0.537359
0.537384
0.537193
0.537257
0.537008
0.537124
0.536803
0.536976
0.53658
0.536804
0.536342
0.525685
0.525621
0.525579
0.525514
0.525467
0.525393
0.525344
0.525257
0.525211
0.525104
0.525067
0.524934
0.524912
0.524742
0.524745
0.524525
0.524565
0.524281
0.524371
0.524008
0.524158
0.523705
0.523914
0.523377
0.5136
0.513537
0.513495
0.513428
0.513376
0.513296
0.51324
0.513142
0.513086
0.512966
0.512914
0.512763
0.512723
0.512532
0.512515
0.512269
0.512287
0.511971
0.512038
0.511635
0.511764
0.511261
0.511457
0.510851
0.501907
0.501847
0.501803
0.501735
0.501679
0.501593
0.50153
0.501424
0.501358
0.501225
0.50116
0.500993
0.500937
0.500727
0.50069
0.500421
0.500418
0.500073
0.500119
0.499679
0.49979
0.49924
0.499424
0.498755
0.490594
0.490537
0.490493
0.490422
0.490363
0.490273
0.490203
0.490089
0.490013
0.489869
0.489792
0.489611
0.48954
0.489312
0.489258
0.488967
0.488945
0.488574
0.488601
0.488128
0.488222
0.487629
0.487802
0.487075
0.479659
0.479604
0.479559
0.479487
0.479425
0.479331
0.479255
0.479134
0.47905
0.478895
0.478807
0.478613
0.478529
0.478284
0.478214
0.477904
0.477864
0.477468
0.477477
0.476974
0.477052
0.47642
0.476583
0.475805
0.469088
0.469035
0.46899
0.468917
0.468852
0.468754
0.468674
0.468545
0.468453
0.46829
0.468192
0.467986
0.467888
0.467629
0.467544
0.467216
0.46716
0.466742
0.466735
0.466205
0.466268
0.4656
0.465753
0.464928
0.458878
0.458827
0.458782
0.458708
0.458641
0.458539
0.458454
0.45832
0.458221
0.458049
0.457941
0.457724
0.457615
0.457342
0.457244
0.456899
0.456828
0.456391
0.456367
0.455813
0.455861
0.455162
0.455305
0.454438
0.449015
0.448966
0.448921
0.448847
0.448777
0.448672
0.448583
0.448443
0.448338
0.448159
0.448042
0.447815
0.447696
0.447411
0.4473
0.44694
0.446855
0.4464
0.446361
0.445785
0.44582
0.445092
0.445225
0.444319
0.439496
0.439449
0.439403
0.439329
0.439257
0.43915
0.439057
0.438912
0.438801
0.438615
0.438491
0.438255
0.438126
0.437829
0.437707
0.437334
0.437235
0.436765
0.436712
0.436116
0.436137
0.435383
0.435507
0.434565
0.430307
0.430262
0.430216
0.430142
0.430068
0.429959
0.429862
0.429713
0.429597
0.429405
0.429273
0.429029
0.428892
0.428585
0.428452
0.428067
0.427956
0.427471
0.427405
0.426792
0.426799
0.426023
0.426137
0.425162
0.421444
0.421401
0.421356
0.421281
0.421206
0.421094
0.420995
0.420842
0.420721
0.420523
0.420386
0.420134
0.419989
0.419673
0.419531
0.419135
0.419013
0.418515
0.418436
0.417808
0.417802
0.417007
0.41711
0.416106
0.412894
0.412853
0.412808
0.412733
0.412657
0.412544
0.412442
0.412285
0.412161
0.411957
0.411815
0.411557
0.411405
0.41108
0.41093
0.410524
0.410393
0.409884
0.409795
0.409153
0.409136
0.408324
0.408416
0.407389
0.404652
0.404614
0.404569
0.404493
0.404417
0.404302
0.404198
0.404038
0.40391
0.403702
0.403555
0.403291
0.403133
0.402801
0.402645
0.402229
0.402092
0.40157
0.401475
0.400818
0.400795
0.399967
0.400052
0.399006
0.396708
0.39667
0.396626
0.396551
0.396474
0.396357
0.396251
0.396089
0.395958
0.395746
0.395596
0.395325
0.395163
0.394824
0.394663
0.394238
0.394096
0.393563
0.393463
0.392793
0.392766
0.391923
0.392005
0.390946
0.389053
0.389018
0.388974
0.388898
0.388821
0.388703
0.388596
0.388431
0.388298
0.388082
0.387928
0.387653
0.387487
0.387142
0.386976
0.386544
0.386397
0.385854
0.38575
0.385069
0.385039
0.384183
0.384262
0.383192
0.381679
0.381646
0.381602
0.381527
0.381449
0.38133
0.381222
0.381055
0.38092
0.380701
0.380544
0.380265
0.380095
0.379745
0.379575
0.379136
0.378984
0.378435
0.378326
0.377637
0.377601
0.376737
0.376811
0.375731
0.374578
0.374546
0.374503
0.374428
0.37435
0.37423
0.374121
0.373953
0.373816
0.373594
0.373434
0.373152
0.372979
0.372624
0.37245
0.372006
0.37185
0.371294
0.37118
0.370485
0.370444
0.369572
0.369641
0.368553
0.367743
0.367712
0.367669
0.367595
0.367517
0.367396
0.367286
0.367116
0.366978
0.366753
0.366592
0.366306
0.36613
0.365772
0.365594
0.365146
0.364985
0.364425
0.364306
0.363605
0.363559
0.362681
0.362744
0.36165
0.361164
0.361134
0.361092
0.361018
0.360939
0.360818
0.360707
0.360536
0.360396
0.36017
0.360007
0.359718
0.35954
0.359178
0.358997
0.358546
0.35838
0.357817
0.357692
0.356988
0.356935
0.356053
0.356111
0.35501
0.354835
0.354807
0.354765
0.354691
0.354613
0.354491
0.35438
0.354207
0.354067
0.353838
0.353674
0.353383
0.353202
0.352838
0.352654
0.3522
0.35203
0.351464
0.351334
0.350627
0.350569
0.349683
0.349735
0.348629
0.348747
0.34872
0.348678
0.348605
0.348527
0.348404
0.348293
0.348119
0.347978
0.347748
0.347583
0.347289
0.347107
0.34674
0.346553
0.346097
0.345924
0.345355
0.345221
0.344511
0.344448
0.343559
0.343607
0.342498
0.342895
0.342869
0.342828
0.342755
0.342677
0.342554
0.342443
0.342268
0.342127
0.341895
0.341729
0.341433
0.34125
0.34088
0.340693
0.340233
0.340058
0.339487
0.339349
0.338637
0.33857
0.337679
0.337722
0.33661
0.33727
0.337245
0.337204
0.337131
0.337053
0.33693
0.336819
0.336643
0.336502
0.336268
0.336102
0.335804
0.335621
0.335248
0.33506
0.334598
0.334422
0.333848
0.333709
0.332994
0.332924
0.332031
0.33207
0.330958
0.331867
0.331842
0.331802
0.331729
0.331652
0.331528
0.331418
0.33124
0.3311
0.330864
0.330699
0.330398
0.330216
0.32984
0.329653
0.329187
0.329012
0.328434
0.328295
0.327578
0.327506
0.326611
0.326647
0.325536
0.326676
0.326653
0.326613
0.32654
0.326464
0.326339
0.32623
0.326051
0.325911
0.325673
0.32551
0.325206
0.325026
0.324646
0.324462
0.32399
0.323818
0.323236
0.323099
0.322378
0.322308
0.321409
0.321444
0.320335
0.321695
0.321672
0.321633
0.32156
0.321484
0.321359
0.321251
0.32107
0.320933
0.320692
0.320531
0.320223
0.320047
0.319662
0.319481
0.319005
0.318838
0.318249
0.318117
0.317389
0.317325
0.316422
0.316457
0.31535
0.316913
0.316891
0.316853
0.31678
0.316705
0.316579
0.316472
0.31629
0.316154
0.315911
0.315753
0.315441
0.315268
0.314879
0.314703
0.314221
0.31406
0.313464
0.31334
0.312604
0.312547
0.31164
0.311676
0.310574
0.312329
0.312308
0.31227
0.312196
0.312123
0.311996
0.31189
0.311707
0.311573
0.311327
0.311172
0.310857
0.310688
0.310293
0.310124
0.309634
0.30948
0.308877
0.308761
0.308018
0.307967
0.307059
0.307094
0.305998
0.307933
0.307912
0.307875
0.307801
0.307729
0.307601
0.307497
0.307312
0.30718
0.306933
0.30678
0.306462
0.306297
0.305898
0.305733
0.305239
0.30509
0.304482
0.304371
0.303624
0.303577
0.302669
0.302704
0.301613
0.303722
0.303702
0.303665
0.303591
0.303519
0.303392
0.303288
0.303103
0.302973
0.302723
0.302573
0.302253
0.30209
0.301689
0.301527
0.30103
0.300885
0.300274
0.300168
0.299417
0.299373
0.298465
0.298499
0.297413
0.299689
0.299669
0.299632
0.299559
0.299488
0.299359
0.299258
0.299071
0.298943
0.298691
0.298544
0.298221
0.298063
0.297658
0.297501
0.296999
0.29686
0.296243
0.296145
0.29539
0.295349
0.294441
0.294474
0.293392
0.29583
0.29581
0.295775
0.295701
0.295631
0.295501
0.295402
0.295213
0.295088
0.294834
0.294691
0.294363
0.294211
0.2938
0.293651
0.293141
0.293013
0.292387
0.292297
0.291537
0.2915
0.290594
0.290625
0.28955
0.292139
0.29212
0.292085
0.29201
0.291942
0.291811
0.291714
0.291522
0.291402
0.291143
0.291006
0.290673
0.290528
0.290109
0.28997
0.289451
0.289334
0.2887
0.288618
0.287855
0.28782
0.286916
0.286946
0.285878
0.288613
0.288593
0.288559
0.288484
0.288417
0.288284
0.288191
0.287996
0.28788
0.287616
0.287486
0.287146
0.287011
0.286582
0.286456
0.285926
0.28582
0.285179
0.285103
0.284339
0.284306
0.283405
0.283433
0.282372
0.285245
0.285225
0.285192
0.285116
0.285051
0.284916
0.284826
0.284627
0.284518
0.284248
0.284126
0.283777
0.283654
0.283215
0.2831
0.282562
0.282464
0.281818
0.281746
0.280983
0.28095
0.280054
0.280079
0.279026
0.282033