/*--------------------------------*- C++ -*----------------------------------*\
  =========                 |
  \\      /  F ield         | OpenFOAM: The Open Source CFD Toolbox
   \\    /   O peration     | Website:  https://openfoam.org
    \\  /    A nd           | Version:  10
     \\/     M anipulation  |
\*---------------------------------------------------------------------------*/
FoamFile
{
    format      ascii;
    class       volScalarField;
    location    "0.09";
    object      p;
}
// * * * * * * * * * * * * * * * * * * * * * * * * * * * * * * * * * * * * * //

dimensions      [1 -1 -2 0 0 0 0];

internalField   nonuniform List<scalar> 
4176
(
1636.76
1636.96
1637.46
1638.1
1639.14
1640.18
1641.76
1643.2
1645.31
1647.13
1649.73
1651.99
1655.02
1657.8
1661.1
1664.6
1667.87
1672.39
1675.39
1681.22
1683.63
1691.1
1692.28
1700.89
1634.21
1634.4
1634.86
1635.46
1636.43
1637.41
1638.9
1640.23
1642.25
1643.95
1646.45
1648.54
1651.44
1654.02
1657.18
1660.43
1663.51
1667.79
1670.5
1676.13
1678.12
1685.55
1686.77
1696.45
1635.04
1635.23
1635.7
1636.31
1637.29
1638.29
1639.8
1641.16
1643.2
1644.93
1647.48
1649.61
1652.58
1655.18
1658.44
1661.71
1664.88
1669.28
1672
1677.72
1679.72
1687.01
1688.15
1697.53
1635.47
1635.65
1636.12
1636.71
1637.68
1638.65
1640.14
1641.45
1643.48
1645.13
1647.68
1649.69
1652.69
1655.16
1658.44
1661.61
1664.73
1669.2
1671.68
1677.48
1679.41
1686.59
1687.64
1696.42
1637.17
1637.36
1637.82
1638.42
1639.37
1640.35
1641.82
1643.15
1645.14
1646.83
1649.32
1651.37
1654.33
1656.82
1660.1
1663.21
1666.49
1670.77
1673.37
1679.1
1681.12
1688.25
1689.37
1698.13
1639.48
1639.66
1640.11
1640.71
1641.65
1642.63
1644.06
1645.4
1647.34
1649.03
1651.47
1653.53
1656.42
1658.9
1662.15
1665.19
1668.54
1672.59
1675.4
1680.95
1683
1690.05
1691.24
1700.1
1642.69
1642.87
1643.32
1643.91
1644.84
1645.81
1647.23
1648.56
1650.48
1652.16
1654.57
1656.61
1659.48
1661.93
1665.17
1668.16
1671.54
1675.45
1678.37
1683.78
1685.88
1692.83
1694.06
1702.81
1646.66
1646.85
1647.29
1647.88
1648.79
1649.76
1651.15
1652.48
1654.37
1656.03
1658.41
1660.44
1663.28
1665.69
1668.91
1671.84
1675.23
1679
1682.02
1687.25
1689.43
1696.27
1697.54
1706.2
1651.47
1651.65
1652.09
1652.67
1653.58
1654.53
1655.91
1657.22
1659.09
1660.74
1663.09
1665.09
1667.9
1670.28
1673.47
1676.34
1679.74
1683.39
1686.47
1691.53
1693.78
1700.5
1701.81
1710.34
1657.07
1657.26
1657.69
1658.27
1659.16
1660.11
1661.47
1662.76
1664.61
1666.23
1668.56
1670.53
1673.3
1675.65
1678.81
1681.62
1685.01
1688.54
1691.69
1696.57
1698.9
1705.47
1706.81
1715.22
1663.5
1663.68
1664.1
1664.68
1665.56
1666.49
1667.84
1669.12
1670.93
1672.54
1674.83
1676.77
1679.52
1681.82
1684.95
1687.7
1691.08
1694.5
1697.69
1702.4
1704.79
1711.21
1712.58
1720.85
1670.73
1670.91
1671.33
1671.9
1672.77
1673.69
1675.02
1676.28
1678.07
1679.65
1681.91
1683.82
1686.53
1688.78
1691.89
1694.57
1697.93
1701.25
1704.47
1709.01
1711.47
1717.69
1719.11
1727.23
1678.79
1678.97
1679.38
1679.95
1680.8
1681.71
1683.01
1684.25
1686.02
1687.58
1689.81
1691.68
1694.35
1696.56
1699.63
1702.24
1705.58
1708.79
1712.04
1716.41
1718.91
1724.96
1726.4
1734.36
1687.68
1687.85
1688.26
1688.81
1689.65
1690.55
1691.83
1693.05
1694.79
1696.32
1698.51
1700.35
1702.98
1705.14
1708.17
1710.72
1714.02
1717.14
1720.4
1724.6
1727.14
1733.01
1734.46
1742.26
1697.4
1697.57
1697.97
1698.52
1699.34
1700.22
1701.48
1702.68
1704.38
1705.88
1708.04
1709.83
1712.43
1714.53
1717.52
1720
1723.26
1726.28
1729.55
1733.59
1736.16
1741.85
1743.29
1750.92
1707.96
1708.13
1708.52
1709.06
1709.87
1710.73
1711.96
1713.13
1714.81
1716.27
1718.39
1720.14
1722.69
1724.75
1727.69
1730.09
1733.32
1736.23
1739.49
1743.36
1745.97
1751.47
1752.92
1760.37
1719.37
1719.54
1719.93
1720.45
1721.24
1722.08
1723.29
1724.44
1726.08
1727.51
1729.58
1731.29
1733.79
1735.78
1738.67
1741.01
1744.19
1747
1750.24
1753.95
1756.58
1761.87
1763.36
1770.6
1731.64
1731.81
1732.19
1732.7
1733.48
1734.3
1735.48
1736.6
1738.2
1739.59
1741.62
1743.27
1745.72
1747.66
1750.49
1752.75
1755.88
1758.6
1761.8
1765.34
1768
1773.09
1774.6
1781.63
1744.79
1744.96
1745.33
1745.83
1746.58
1747.38
1748.53
1749.62
1751.18
1752.53
1754.51
1756.11
1758.51
1760.37
1763.15
1765.33
1768.41
1771.01
1774.18
1777.56
1780.24
1785.11
1786.65
1793.47
1758.82
1758.99
1759.35
1759.83
1760.57
1761.34
1762.46
1763.51
1765.03
1766.34
1768.27
1769.81
1772.15
1773.95
1776.66
1778.76
1781.77
1784.27
1787.4
1790.61
1793.3
1797.96
1799.52
1806.12
1773.75
1773.91
1774.26
1774.73
1775.44
1776.2
1777.28
1778.3
1779.77
1781.03
1782.9
1784.39
1786.67
1788.39
1791.04
1793.04
1795.99
1798.38
1801.46
1804.5
1807.2
1811.64
1813.22
1819.59
1789.59
1789.75
1790.08
1790.54
1791.23
1791.95
1793.01
1793.98
1795.41
1796.61
1798.43
1799.85
1802.06
1803.71
1806.29
1808.2
1811.08
1813.35
1816.37
1819.25
1821.94
1826.16
1827.75
1833.89
1806.35
1806.51
1806.83
1807.27
1807.93
1808.63
1809.64
1810.57
1811.95
1813.1
1814.86
1816.22
1818.36
1819.93
1822.43
1824.24
1827.04
1829.2
1832.15
1834.88
1837.55
1841.53
1843.14
1849.03
1824.04
1824.2
1824.51
1824.93
1825.57
1826.23
1827.2
1828.09
1829.42
1830.51
1832.21
1833.5
1835.57
1837.05
1839.48
1841.19
1843.91
1845.94
1848.81
1851.38
1854.03
1857.78
1859.39
1865.03
1842.68
1842.84
1843.13
1843.54
1844.15
1844.78
1845.71
1846.55
1847.83
1848.86
1850.49
1851.7
1853.7
1855.1
1857.44
1859.05
1861.68
1863.58
1866.38
1868.79
1871.4
1874.92
1876.52
1881.89
1862.29
1862.43
1862.72
1863.11
1863.68
1864.28
1865.17
1865.96
1867.18
1868.15
1869.72
1870.85
1872.77
1874.07
1876.33
1877.83
1880.38
1882.15
1884.87
1887.11
1889.68
1892.96
1894.55
1899.65
1882.86
1883.01
1883.28
1883.65
1884.2
1884.76
1885.61
1886.35
1887.51
1888.41
1889.91
1890.96
1892.8
1894.01
1896.18
1897.56
1900.02
1901.66
1904.29
1906.36
1908.87
1911.92
1913.49
1918.34
1904.42
1904.57
1904.82
1905.17
1905.69
1906.22
1907.02
1907.71
1908.81
1909.65
1911.07
1912.04
1913.8
1914.9
1916.98
1918.25
1920.62
1922.12
1924.65
1926.56
1929
1931.8
1933.37
1937.94
1926.99
1927.13
1927.37
1927.7
1928.19
1928.68
1929.44
1930.08
1931.12
1931.89
1933.23
1934.12
1935.79
1936.79
1938.77
1939.92
1942.19
1943.55
1945.99
1947.73
1950.09
1952.64
1954.2
1958.47
1950.57
1950.71
1950.94
1951.24
1951.7
1952.16
1952.87
1953.45
1954.43
1955.13
1956.41
1957.2
1958.78
1959.68
1961.57
1962.59
1964.75
1965.97
1968.3
1969.87
1972.16
1974.45
1975.99
1979.97
1975.19
1975.32
1975.53
1975.82
1976.25
1976.67
1977.33
1977.86
1978.78
1979.41
1980.6
1981.31
1982.8
1983.59
1985.38
1986.27
1988.33
1989.4
1991.62
1993.01
1995.21
1997.26
1998.78
2002.43
2000.85
2000.98
2001.18
2001.44
2001.84
2002.22
2002.83
2003.31
2004.17
2004.72
2005.84
2006.46
2007.86
2008.54
2010.23
2010.99
2012.94
2013.85
2015.97
2017.18
2019.28
2021.09
2022.59
2025.91
2027.58
2027.71
2027.89
2028.13
2028.5
2028.84
2029.4
2029.83
2030.62
2031.1
2032.14
2032.67
2033.98
2034.55
2036.14
2036.77
2038.61
2039.36
2041.36
2042.38
2044.38
2045.96
2047.43
2050.42
2055.39
2055.51
2055.68
2055.9
2056.23
2056.54
2057.05
2057.42
2058.14
2058.55
2059.52
2059.95
2061.18
2061.64
2063.12
2063.62
2065.35
2065.94
2067.83
2068.66
2070.54
2071.88
2073.32
2075.97
2084.3
2084.41
2084.57
2084.77
2085.07
2085.33
2085.8
2086.11
2086.77
2087.11
2087.99
2088.33
2089.46
2089.81
2091.2
2091.56
2093.18
2093.61
2095.39
2096.02
2097.79
2098.89
2100.28
2102.59
2114.32
2114.43
2114.57
2114.75
2115.02
2115.25
2115.66
2115.92
2116.51
2116.77
2117.58
2117.83
2118.87
2119.1
2120.38
2120.61
2122.12
2122.39
2124.06
2124.5
2126.16
2127.01
2128.33
2130.29
2145.47
2145.58
2145.71
2145.87
2146.11
2146.3
2146.66
2146.86
2147.39
2147.58
2148.3
2148.46
2149.4
2149.52
2150.7
2150.78
2152.19
2152.29
2153.85
2154.1
2155.65
2156.27
2157.49
2159.1
2177.78
2177.89
2178
2178.14
2178.34
2178.5
2178.82
2178.96
2179.43
2179.54
2180.18
2180.24
2181.09
2181.09
2182.17
2182.11
2183.4
2183.34
2184.78
2184.83
2186.28
2186.67
2187.8
2189.04
2211.26
2211.37
2211.46
2211.58
2211.76
2211.87
2212.15
2212.24
2212.64
2212.68
2213.24
2213.21
2213.96
2213.84
2214.81
2214.61
2215.79
2215.55
2216.88
2216.73
2218.07
2218.22
2219.27
2220.16
2245.94
2246.04
2246.12
2246.22
2246.36
2246.44
2246.67
2246.7
2247.04
2247.01
2247.49
2247.36
2248.03
2247.79
2248.65
2248.3
2249.37
2248.95
2250.17
2249.81
2251.03
2250.94
2251.9
2252.47
2281.83
2281.93
2282
2282.08
2282.19
2282.23
2282.41
2282.39
2282.66
2282.55
2282.96
2282.73
2283.31
2282.95
2283.71
2283.21
2284.17
2283.57
2284.68
2284.09
2285.21
2284.85
2285.72
2285.99
2318.97
2319.06
2319.12
2319.18
2319.25
2319.26
2319.38
2319.31
2319.52
2319.33
2319.66
2319.34
2319.82
2319.34
2320.01
2319.36
2320.21
2319.42
2320.43
2319.61
2320.62
2319.99
2320.77
2320.71
2357.36
2357.46
2357.5
2357.53
2357.58
2357.55
2357.62
2357.49
2357.63
2357.37
2357.62
2357.2
2357.59
2356.99
2357.55
2356.75
2357.5
2356.53
2357.43
2356.38
2357.31
2356.38
2357.08
2356.66
2397.05
2397.14
2397.16
2397.18
2397.19
2397.12
2397.14
2396.95
2397.03
2396.69
2396.85
2396.34
2396.63
2395.91
2396.37
2395.42
2396.07
2394.9
2395.72
2394.42
2395.27
2394.05
2394.68
2393.9
2438.04
2438.13
2438.13
2438.13
2438.11
2437.99
2437.97
2437.72
2437.72
2437.31
2437.39
2436.78
2436.97
2436.12
2436.48
2435.37
2435.92
2434.56
2435.28
2433.75
2434.52
2433.01
2433.58
2432.44
2480.36
2480.44
2480.43
2480.41
2480.35
2480.2
2480.12
2479.81
2479.75
2479.26
2479.25
2478.53
2478.63
2477.66
2477.91
2476.65
2477.09
2475.54
2476.16
2474.38
2475.09
2473.26
2473.81
2472.27
2524.02
2524.1
2524.08
2524.03
2523.94
2523.75
2523.61
2523.25
2523.11
2522.54
2522.45
2521.63
2521.63
2520.53
2520.68
2519.25
2519.59
2517.83
2518.37
2516.33
2516.98
2514.82
2515.39
2513.4
2569.05
2569.13
2569.09
2569.02
2568.89
2568.66
2568.47
2568.05
2567.84
2567.19
2567.01
2566.08
2565.99
2564.75
2564.8
2563.21
2563.45
2561.48
2561.93
2559.62
2560.22
2557.7
2558.31
2555.9
2615.46
2615.54
2615.48
2615.39
2615.23
2614.96
2614.71
2614.23
2613.94
2613.21
2612.94
2611.92
2611.72
2610.35
2610.3
2608.54
2608.68
2606.5
2606.88
2604.28
2604.85
2601.95
2602.59
2599.76
2663.27
2663.34
2663.27
2663.16
2662.96
2662.65
2662.35
2661.8
2661.45
2660.63
2660.28
2659.14
2658.85
2657.34
2657.19
2655.25
2655.31
2652.9
2653.22
2650.31
2650.9
2647.58
2648.24
2645.01
2712.48
2712.55
2712.47
2712.33
2712.09
2711.74
2711.39
2710.78
2710.36
2709.46
2709.02
2707.77
2707.4
2705.74
2705.5
2703.37
2703.36
2700.7
2700.98
2697.73
2698.38
2694.64
2695.29
2691.66
2763.11
2763.18
2763.08
2762.93
2762.65
2762.26
2761.85
2761.18
2760.69
2759.7
2759.19
2757.83
2757.36
2755.56
2755.24
2752.91
2752.85
2749.91
2750.18
2746.58
2747.24
2743.15
2743.77
2739.75
2815.17
2815.23
2815.12
2814.94
2814.63
2814.2
2813.74
2813.01
2812.45
2811.38
2810.79
2809.31
2808.77
2806.8
2806.43
2803.88
2803.79
2800.55
2800.87
2796.88
2797.53
2793.11
2793.68
2789.29
2868.65
2868.71
2868.58
2868.39
2868.04
2867.58
2867.06
2866.28
2865.65
2864.49
2863.83
2862.23
2861.63
2859.48
2859.08
2856.28
2856.2
2852.62
2852.98
2848.69
2849.26
2844.55
2845.07
2840.31
2923.56
2923.62
2923.48
2923.26
2922.88
2922.39
2921.82
2920.98
2920.29
2919.04
2918.33
2916.58
2915.96
2913.6
2913.22
2910.12
2910.1
2906.21
2906.51
2901.98
2902.46
2897.47
2897.93
2892.81
2979.9
2979.96
2979.8
2979.57
2979.16
2978.63
2978.01
2977.11
2976.38
2975.02
2974.3
2972.37
2971.78
2969.15
2968.84
2965.44
2965.4
2961.31
2961.51
2956.77
2957.15
2951.89
2952.29
2946.81
3037.66
3037.73
3037.55
3037.31
3036.86
3036.31
3035.64
3034.68
3033.93
3032.44
3031.74
3029.59
3029.05
3026.21
3025.85
3022.31
3022.16
3017.91
3018
3013.05
3013.35
3007.82
3008.15
3002.33
3096.84
3096.92
3096.71
3096.49
3095.99
3095.42
3094.7
3093.68
3092.93
3091.3
3090.6
3088.33
3087.72
3084.78
3084.32
3080.66
3080.4
3076
3075.98
3070.85
3071.04
3065.27
3065.54
3059.38
3157.44
3157.53
3157.3
3157.08
3156.52
3155.97
3155.19
3154.13
3153.33
3151.65
3150.88
3148.54
3147.85
3144.82
3144.26
3140.49
3140.14
3135.59
3135.47
3130.15
3130.26
3124.24
3124.45
3117.97
3219.46
3219.55
3219.31
3219.07
3218.5
3217.93
3217.08
3216.06
3215.16
3213.44
3212.61
3210.2
3209.44
3206.32
3205.68
3201.81
3201.35
3196.68
3196.46
3190.96
3190.98
3184.74
3184.89
3178.09
3282.88
3282.98
3282.74
3282.49
3281.91
3281.31
3280.42
3279.42
3278.37
3276.71
3275.77
3273.31
3272.49
3269.3
3268.57
3264.61
3264.06
3259.26
3258.95
3253.29
3253.23
3246.76
3246.85
3239.76
3347.72
3347.81
3347.58
3347.31
3346.72
3346.1
3345.19
3344.18
3343.03
3341.43
3340.32
3337.91
3336.98
3333.73
3332.92
3328.88
3328.24
3323.33
3322.93
3317.12
3316.97
3310.3
3310.34
3302.96
3413.97
3414.06
3413.83
3413.55
3412.95
3412.32
3411.38
3410.36
3409.14
3407.57
3406.34
3403.97
3402.9
3399.62
3398.74
3394.62
3393.9
3388.87
3388.39
3382.43
3382.21
3375.34
3375.33
3367.68
3481.63
3481.73
3481.49
3481.22
3480.6
3479.97
3479
3477.96
3476.69
3475.13
3473.8
3471.45
3470.25
3466.98
3466
3461.81
3461.01
3455.88
3455.32
3449.23
3448.93
3441.88
3441.82
3433.91
3550.72
3550.83
3550.59
3550.31
3549.69
3549.04
3548.04
3547
3545.68
3544.12
3542.7
3540.36
3539.06
3535.78
3534.7
3530.43
3529.56
3524.34
3523.71
3517.48
3517.11
3509.9
3509.78
3501.64
3621.26
3621.37
3621.12
3620.85
3620.21
3619.55
3618.53
3617.47
3616.1
3614.55
3613.03
3610.7
3609.3
3605.99
3604.82
3600.49
3599.55
3594.22
3593.52
3587.18
3586.74
3579.36
3579.19
3570.83
3693.25
3693.37
3693.12
3692.84
3692.17
3691.51
3690.45
3689.37
3687.96
3686.39
3684.79
3682.45
3680.95
3677.6
3676.36
3671.95
3670.94
3665.52
3664.74
3658.28
3657.77
3650.25
3650.03
3641.47
3766.71
3766.84
3766.57
3766.28
3765.6
3764.91
3763.82
3762.71
3761.24
3759.65
3757.94
3755.6
3753.99
3750.61
3749.28
3744.79
3743.73
3738.2
3737.35
3730.78
3730.2
3722.55
3722.27
3713.53
3841.63
3841.77
3841.48
3841.18
3840.46
3839.75
3838.61
3837.46
3835.93
3834.3
3832.48
3830.14
3828.39
3825
3823.56
3818.99
3817.88
3812.24
3811.32
3804.65
3804
3796.23
3795.9
3787
3917.99
3918.13
3917.82
3917.5
3916.75
3915.99
3914.8
3913.6
3911.99
3910.32
3908.39
3906.04
3904.13
3900.75
3899.17
3894.56
3893.37
3887.63
3886.64
3879.88
3879.16
3871.29
3870.91
3861.86
3995.7
3995.84
3995.52
3995.17
3994.38
3993.58
3992.33
3991.07
3989.39
3987.66
3985.62
3983.27
3981.18
3977.84
3976.07
3971.48
3970.15
3964.35
3963.3
3956.46
3955.67
3947.71
3947.28
3938.12
4074.64
4074.78
4074.46
4074.08
4073.27
4072.42
4071.13
4069.81
4068.07
4066.28
4064.15
4061.78
4059.53
4056.24
4054.25
4049.73
4048.22
4042.42
4041.31
4034.4
4033.54
4025.51
4025.04
4015.77
4154.65
4154.79
4154.47
4154.07
4153.26
4152.38
4151.07
4149.71
4147.93
4146.1
4143.91
4141.53
4139.15
4135.91
4133.72
4129.31
4127.6
4121.85
4120.64
4113.7
4112.79
4104.71
4104.21
4094.86
4235.52
4235.66
4235.36
4234.97
4234.17
4233.3
4232
4230.66
4228.88
4227.05
4224.85
4222.48
4220.02
4216.86
4214.5
4210.22
4208.29
4202.67
4201.31
4194.4
4193.43
4185.32
4184.81
4175.4
4317.06
4317.22
4316.95
4316.59
4315.85
4315.02
4313.79
4312.51
4310.79
4309.03
4306.87
4304.57
4302.12
4299.05
4296.6
4292.47
4290.37
4284.89
4283.38
4276.52
4275.53
4267.4
4266.89
4257.44
4399.18
4399.36
4399.13
4398.84
4398.17
4397.45
4396.33
4395.16
4393.57
4391.94
4389.9
4387.74
4385.37
4382.45
4380.02
4376.06
4373.87
4368.58
4366.95
4360.13
4359.15
4350.97
4350.49
4341
4481.91
4482.11
4481.95
4481.74
4481.18
4480.58
4479.6
4478.6
4477.18
4475.74
4473.88
4471.92
4469.72
4467.01
4464.7
4460.97
4458.8
4453.74
4452.05
4445.36
4444.35
4436.11
4435.65
4426.1
4565.52
4565.76
4565.64
4565.52
4565.06
4564.6
4563.76
4562.93
4561.7
4560.47
4558.82
4557.11
4555.12
4552.66
4550.57
4547.1
4545.09
4540.29
4538.69
4532.16
4531.24
4522.94
4522.51
4512.8
4650.5
4650.79
4650.68
4650.66
4650.24
4649.91
4649.15
4648.5
4647.39
4646.36
4644.88
4643.41
4641.61
4639.41
4637.61
4634.3
4632.69
4627.97
4626.81
4620.33
4619.76
4611.48
4611.16
4601.31
4737.58
4737.93
4737.76
4737.86
4737.35
4737.19
4736.32
4735.88
4734.66
4733.87
4732.38
4731.1
4729.4
4727.34
4725.93
4722.42
4721.65
4716.47
4716.23
4709.53
4709.59
4701.45
4701.47
4691.99
4827.65
4827.97
4827.86
4827.82
4827.39
4827.02
4826.24
4825.57
4824.44
4823.45
4821.99
4820.65
4818.9
4817.02
4815.43
4812.12
4811.45
4806.35
4806.37
4799.77
4800.22
4792.22
4792.69
4783.84
4921.58
4921.88
4921.74
4921.59
4921.04
4920.51
4919.56
4918.66
4917.33
4916.08
4914.39
4912.81
4910.82
4908.82
4906.8
4903.78
4902.5
4897.69
4897.59
4890.93
4891.63
4883.46
4884.3
4875.53
5020.13
5020.4
5020.17
5019.9
5019.17
5018.4
5017.17
5015.95
5014.25
5012.61
5010.49
5008.46
5006
5003.57
5000.99
4997.74
4995.79
4990.98
4990.35
4983.4
4984.16
4975.51
4976.61
4967.46
5123.74
5124.04
5123.67
5123.29
5122.32
5121.32
5119.73
5118.16
5115.97
5113.88
5111.15
5108.56
5105.4
5102.33
5098.95
5095.07
5092.32
5086.85
5085.63
5077.86
5078.44
5068.93
5070.15
5060.19
5232.59
5232.93
5232.4
5231.96
5230.73
5229.53
5227.56
5225.7
5222.93
5220.52
5216.97
5213.97
5209.84
5206.1
5201.78
5196.96
5193.35
5186.5
5184.59
5175.5
5175.43
5164.61
5165.66
5154.35
5346.5
5346.79
5346.29
5345.63
5344.35
5342.85
5340.73
5338.43
5335.46
5332.38
5328.58
5324.74
5320.15
5315.53
5310.28
5304.79
5299.52
5292.03
5288.49
5278.06
5276.67
5264
5264.36
5250.9
5464.93
5465.2
5464.69
5463.95
5462.59
5460.94
5458.67
5456.14
5452.94
5449.55
5445.41
5441.13
5436.08
5430.88
5424.96
5418.76
5412.22
5404.53
5398.35
5387.83
5383.97
5369.45
5368.31
5351.59
5587.18
5587.43
5586.94
5586.16
5584.77
5583.06
5580.72
5578.1
5574.78
5571.24
5566.94
5562.44
5557.15
5551.65
5545.37
5538.75
5531.61
5523.51
5515.96
5505.53
5498.72
5484.05
5480.38
5459.8
5712.42
5712.67
5712.2
5711.43
5710.05
5708.35
5706.02
5703.4
5700.08
5696.53
5692.22
5687.7
5682.37
5676.84
5670.48
5663.81
5656.53
5648.34
5640.47
5630.12
5622.28
5608.19
5602.61
5580.22
5839.77
5840.05
5839.61
5838.88
5837.55
5835.91
5833.64
5831.11
5827.87
5824.42
5820.2
5815.82
5810.59
5805.21
5798.99
5792.5
5785.37
5777.4
5769.83
5759.56
5752.53
5738.3
5733.83
5713.3
5968.41
5968.73
5968.32
5967.66
5966.39
5964.86
5962.68
5960.29
5957.18
5953.92
5949.85
5945.7
5940.67
5935.57
5929.59
5923.43
5916.59
5909.04
5901.86
5892.06
5885.61
5871.95
5867.89
5848.78
6097.59
6097.94
6097.57
6096.99
6095.8
6094.4
6092.34
6090.12
6087.17
6084.14
6080.28
6076.41
6071.63
6066.87
6061.2
6055.44
6048.96
6041.93
6035.15
6025.98
6019.96
6007.18
6003.38
5985.58
6226.61
6227.02
6226.67
6226.2
6225.08
6223.83
6221.89
6219.88
6217.1
6214.34
6210.68
6207.16
6202.62
6198.27
6192.91
6187.62
6181.53
6175.06
6168.69
6160.14
6154.64
6142.76
6139.18
6122.7
6354.92
6355.37
6355.01
6354.7
6353.6
6352.57
6350.7
6348.98
6346.29
6343.91
6340.36
6337.32
6332.92
6329.13
6323.97
6319.27
6313.51
6307.64
6301.71
6293.83
6288.71
6277.82
6274.46
6259.31
6481.99
6482.47
6482.13
6481.95
6480.89
6480.08
6478.26
6476.86
6474.23
6472.28
6468.79
6466.3
6461.96
6458.85
6453.75
6449.83
6444.23
6439.04
6433.56
6426.34
6421.6
6411.72
6408.55
6394.73
6607.38
6607.88
6607.63
6607.45
6606.59
6605.79
6604.28
6602.91
6600.66
6598.78
6595.74
6593.39
6589.52
6586.68
6582.03
6578.53
6573.35
6568.81
6563.59
6557.17
6552.78
6543.91
6540.94
6528.43
6730.74
6731.25
6731.07
6730.93
6730.22
6729.49
6728.2
6726.93
6725
6723.24
6720.61
6718.39
6715.03
6712.36
6708.28
6705.06
6700.4
6696.37
6691.48
6685.99
6681.84
6673.95
6671.16
6659.94
6851.75
6852.26
6852.14
6852.05
6851.46
6850.83
6849.71
6848.59
6846.91
6845.33
6843.03
6841.04
6838.08
6835.67
6832.05
6829.18
6824.99
6821.46
6816.94
6812.34
6808.35
6801.42
6798.83
6788.88
6970.13
6970.64
6970.58
6970.54
6970.06
6969.53
6968.58
6967.61
6966.15
6964.78
6962.76
6961.01
6958.41
6956.29
6953.09
6950.58
6946.83
6943.8
6939.69
6935.8
6931.98
6926.1
6923.68
6914.96
7085.67
7086.19
7086.17
7086.18
7085.79
7085.37
7084.57
7083.76
7082.5
7081.33
7079.57
7078.07
7075.79
7073.98
7071.16
7069.01
7065.69
7063.12
7059.44
7056.19
7052.57
7047.68
7045.44
7037.9
7198.19
7198.7
7198.72
7198.78
7198.49
7198.17
7197.5
7196.84
7195.77
7194.8
7193.29
7192.03
7190.06
7188.54
7186.07
7184.28
7181.36
7179.22
7175.95
7173.27
7169.96
7166.01
7163.87
7157.48
7307.53
7308.04
7308.1
7308.21
7307.99
7307.77
7307.23
7306.71
7305.82
7305.04
7303.76
7302.74
7301.04
7299.81
7297.68
7296.23
7293.68
7291.96
7289.08
7286.92
7283.97
7280.86
7278.84
7273.51
7413.59
7414.09
7414.18
7414.33
7414.19
7414.06
7413.64
7413.26
7412.53
7411.93
7410.86
7410.07
7408.64
7407.67
7405.86
7404.73
7402.53
7401.21
7398.7
7397.04
7394.44
7392.08
7390.2
7385.83
7516.27
7516.76
7516.88
7517.07
7517
7516.95
7516.64
7516.39
7515.82
7515.38
7514.52
7513.94
7512.75
7512.05
7510.52
7509.7
7507.84
7506.89
7504.74
7503.53
7501.3
7499.54
7497.8
7494.41
7615.52
7616
7616.15
7616.37
7616.36
7616.39
7616.19
7616.05
7615.62
7615.34
7614.67
7614.28
7613.33
7612.86
7611.61
7611.08
7609.52
7608.92
7607.1
7606.33
7604.43
7603.23
7601.65
7599.15
7711.29
7711.77
7711.94
7712.19
7712.24
7712.34
7712.23
7712.2
7711.9
7711.78
7711.27
7711.07
7710.33
7710.09
7709.09
7708.83
7707.56
7707.28
7705.77
7705.38
7703.79
7703.08
7701.74
7700.05
7803.59
7804.05
7804.23
7804.52
7804.62
7804.78
7804.76
7804.83
7804.66
7804.66
7804.32
7804.29
7803.75
7803.72
7802.95
7802.94
7801.93
7801.95
7800.73
7800.72
7799.4
7799.15
7798.04
7797.09
7892.4
7892.84
7893.05
7893.35
7893.5
7893.72
7893.78
7893.94
7893.88
7894.02
7893.82
7893.95
7893.59
7893.75
7893.2
7893.42
7892.66
7892.96
7892
7892.33
7891.28
7891.48
7890.6
7890.26
7977.75
7978.18
7978.4
7978.72
7978.91
7979.18
7979.31
7979.56
7979.6
7979.85
7979.79
7980.06
7979.87
7980.21
7979.86
7980.29
7979.76
7980.31
7979.6
7980.25
7979.44
7980.05
7979.38
7979.62
8059.67
8060.09
8060.32
8060.66
8060.89
8061.21
8061.4
8061.72
8061.86
8062.21
8062.27
8062.67
8062.63
8063.13
8062.96
8063.59
8063.26
8064.05
8063.55
8064.5
8063.9
8064.89
8064.39
8065.16
8138.22
8138.62
8138.86
8139.22
8139.48
8139.84
8140.08
8140.48
8140.69
8141.14
8141.31
8141.83
8141.93
8142.57
8142.56
8143.36
8143.22
8144.22
8143.92
8145.13
8144.72
8146.06
8145.7
8146.95
8213.46
8213.84
8214.09
8214.46
8214.74
8215.14
8215.44
8215.89
8216.18
8216.71
8216.97
8217.61
8217.82
8218.6
8218.73
8219.69
8219.71
8220.9
8220.77
8222.22
8221.97
8223.62
8223.38
8225.07
8285.46
8285.82
8286.07
8286.45
8286.76
8287.19
8287.53
8288.03
8288.39
8288.99
8289.34
8290.07
8290.39
8291.29
8291.55
8292.65
8292.81
8294.17
8294.2
8295.86
8295.75
8297.68
8297.53
8299.61
8354.3
8354.64
8354.9
8355.28
8355.61
8356.06
8356.44
8357
8357.41
8358.08
8358.5
8359.32
8359.73
8360.73
8361.1
8362.33
8362.61
8364.13
8364.29
8366.13
8366.15
8368.33
8368.26
8370.68
8420.06
8420.39
8420.64
8421.03
8421.38
8421.85
8422.27
8422.86
8423.32
8424.05
8424.54
8425.43
8425.93
8427.01
8427.49
8428.82
8429.22
8430.87
8431.14
8433.16
8433.28
8435.67
8435.68
8438.4
8482.84
8483.15
8483.41
8483.79
8484.15
8484.65
8485.09
8485.72
8486.22
8487
8487.55
8488.5
8489.08
8490.25
8490.8
8492.24
8492.73
8494.5
8494.87
8497.03
8497.25
8499.84
8499.92
8502.88
8542.73
8543.03
8543.28
8543.67
8544.04
8544.55
8545.02
8545.68
8546.22
8547.04
8547.64
8548.65
8549.29
8550.52
8551.16
8552.68
8553.26
8555.13
8555.59
8557.88
8558.18
8560.93
8561.04
8564.28
8599.83
8600.11
8600.36
8600.75
8601.13
8601.66
8602.14
8602.83
8603.4
8604.26
8604.9
8605.96
8606.66
8607.95
8608.66
8610.25
8610.91
8612.86
8613.41
8615.8
8616.17
8619.07
8619.23
8622.67
8654.24
8654.51
8654.76
8655.15
8655.53
8656.07
8656.57
8657.27
8657.87
8658.76
8659.45
8660.55
8661.29
8662.64
8663.4
8665.05
8665.78
8667.81
8668.43
8670.92
8671.36
8674.38
8674.59
8678.19
8706.07
8706.32
8706.56
8706.95
8707.34
8707.89
8708.4
8709.12
8709.74
8710.66
8711.38
8712.51
8713.3
8714.69
8715.5
8717.21
8717.99
8720.08
8720.77
8723.33
8723.83
8726.96
8727.21
8730.96
8755.4
8755.63
8755.88
8756.26
8756.65
8757.21
8757.73
8758.47
8759.11
8760.05
8760.79
8761.95
8762.77
8764.2
8765.06
8766.81
8767.65
8769.79
8770.53
8773.16
8773.72
8776.94
8777.22
8781.11
8802.34
8802.56
8802.8
8803.18
8803.58
8804.13
8804.66
8805.41
8806.07
8807.03
8807.79
8808.98
8809.83
8811.29
8812.18
8813.97
8814.85
8817.03
8817.83
8820.51
8821.12
8824.41
8824.73
8828.73
8847
8847.2
8847.44
8847.81
8848.21
8848.77
8849.3
8850.06
8850.73
8851.7
8852.48
8853.69
8854.56
8856.05
8856.96
8858.78
8859.7
8861.92
8862.75
8865.47
8866.12
8869.47
8869.83
8873.92
8889.45
8889.65
8889.88
8890.25
8890.64
8891.2
8891.74
8892.51
8893.18
8894.16
8894.95
8896.18
8897.07
8898.58
8899.51
8901.36
8902.29
8904.55
8905.4
8908.16
8908.84
8912.22
8912.61
8916.76
8929.82
8930
8930.22
8930.59
8930.98
8931.54
8932.08
8932.85
8933.53
8934.52
8935.32
8936.56
8937.45
8938.98
8939.92
8941.8
8942.73
8945.03
8945.88
8948.68
8949.35
8952.79
8953.17
8957.35
8968.17
8968.34
8968.56
8968.93
8969.31
8969.87
8970.41
8971.18
8971.86
8972.86
8973.66
8974.91
8975.81
8977.35
8978.3
8980.19
8981.13
8983.45
8984.3
8987.13
8987.79
8991.26
8991.63
8995.83
9004.62
9004.78
9004.99
9005.35
9005.73
9006.29
9006.82
9007.6
9008.27
9009.28
9010.08
9011.34
9012.23
9013.79
9014.74
9016.64
9017.58
9019.91
9020.76
9023.61
9024.27
9027.75
9028.11
9032.32
9039.23
9039.39
9039.6
9039.95
9040.32
9040.88
9041.41
9042.18
9042.86
9043.86
9044.66
9045.93
9046.82
9048.38
9049.33
9051.24
9052.18
9054.52
9055.36
9058.22
9058.88
9062.36
9062.73
9066.94
9072.11
9072.26
9072.46
9072.81
9073.18
9073.73
9074.26
9075.03
9075.7
9076.7
9077.5
9078.76
9079.66
9081.22
9082.17
9084.07
9085.02
9087.35
9088.2
9091.05
9091.71
9095.2
9095.56
9099.77
9103.33
9103.47
9103.67
9104.01
9104.37
9104.92
9105.44
9106.21
9106.88
9107.88
9108.67
9109.94
9110.83
9112.38
9113.33
9115.23
9116.17
9118.5
9119.35
9122.2
9122.86
9126.33
9126.7
9130.9
9132.98
9133.11
9133.3
9133.63
9133.99
9134.54
9135.05
9135.82
9136.48
9137.48
9138.26
9139.52
9140.41
9141.96
9142.9
9144.8
9145.74
9148.06
9148.91
9151.74
9152.4
9155.87
9156.23
9160.41
9161.12
9161.24
9161.43
9161.75
9162.11
9162.65
9163.16
9163.92
9164.57
9165.57
9166.34
9167.6
9168.48
9170.03
9170.96
9172.85
9173.78
9176.09
9176.94
9179.76
9180.42
9183.87
9184.22
9188.39
9187.83
9187.94
9188.13
9188.45
9188.8
9189.33
9189.83
9190.59
9191.23
9192.23
9192.99
9194.25
9195.11
9196.65
9197.58
9199.46
9200.38
9202.68
9203.52
9206.33
9206.98
9210.42
9210.76
9214.91
9213.17
9213.28
9213.46
9213.78
9214.12
9214.65
9215.15
9215.9
9216.53
9217.52
9218.27
9219.52
9220.37
9221.92
9222.82
9224.7
9225.61
9227.9
9228.73
9231.52
9232.15
9235.58
9235.92
9240.03
9237.23
9237.33
9237.51
9237.82
9238.15
9238.68
9239.16
9239.91
9240.53
9241.52
9242.26
9243.51
9244.34
9245.88
9246.76
9248.64
9249.53
9251.81
9252.62
9255.39
9256.02
9259.42
9259.75
9263.83
9260.05
9260.15
9260.32
9260.63
9260.95
9261.48
9261.95
9262.7
9263.3
9264.29
9265.01
9266.26
9267.07
9268.6
9269.46
9271.34
9272.2
9274.48
9275.26
9278.03
9278.63
9282.01
9282.32
9286.37
9281.7
9281.79
9281.96
9282.26
9282.58
9283.1
9283.57
9284.31
9284.9
9285.88
9286.59
9287.83
9288.62
9290.16
9290.99
9292.87
9293.69
9295.97
9296.72
9299.48
9300.05
9303.41
9303.71
9307.71
9302.24
9302.33
9302.49
9302.79
9303.1
9303.62
9304.07
9304.81
9305.38
9306.37
9307.05
9308.29
9309.05
9310.6
9311.39
9313.28
9314.06
9316.35
9317.05
9319.82
9320.34
9323.69
9323.96
9327.92
9321.71
9321.8
9321.96
9322.25
9322.56
9323.07
9323.51
9324.25
9324.81
9325.79
9326.45
9327.7
9328.42
9329.97
9330.73
9332.63
9333.36
9335.67
9336.32
9339.08
9339.56
9342.89
9343.14
9347.05
9340.18
9340.26
9340.42
9340.71
9341.01
9341.52
9341.94
9342.68
9343.22
9344.2
9344.84
9346.09
9346.79
9348.34
9349.06
9350.97
9351.66
9353.97
9354.55
9357.35
9357.77
9361.08
9361.31
9365.17
9357.69
9357.77
9357.92
9358.21
9358.5
9359
9359.42
9360.15
9360.68
9361.66
9362.27
9363.52
9364.19
9365.75
9366.44
9368.34
9369
9371.3
9371.86
9374.64
9375.03
9378.32
9378.53
9382.34
9374.28
9374.36
9374.51
9374.8
9375.08
9375.58
9375.98
9376.71
9377.22
9378.2
9378.8
9380.04
9380.69
9382.24
9382.9
9384.8
9385.43
9387.73
9388.25
9391.01
9391.39
9394.64
9394.85
9398.61
9390.01
9390.09
9390.23
9390.51
9390.79
9391.29
9391.68
9392.41
9392.9
9393.88
9394.45
9395.7
9396.32
9397.87
9398.5
9400.4
9400.97
9403.3
9403.76
9406.53
9406.87
9410.1
9410.29
9414.01
9404.91
9404.98
9405.12
9405.41
9405.67
9406.17
9406.55
9407.28
9407.75
9408.73
9409.27
9410.53
9411.11
9412.68
9413.26
9415.18
9415.71
9418.03
9418.46
9421.22
9421.53
9424.73
9424.91
9428.58
9419.02
9419.09
9419.22
9419.51
9419.76
9420.27
9420.63
9421.36
9421.81
9422.8
9423.31
9424.58
9425.12
9426.7
9427.22
9429.18
9429.64
9431.98
9432.37
9435.11
9435.4
9438.57
9438.74
9442.36
9432.38
9432.45
9432.58
9432.86
9433.11
9433.61
9433.95
9434.7
9435.12
9436.12
9436.59
9437.88
9438.36
9439.99
9440.45
9442.42
9442.84
9445.18
9445.53
9448.26
9448.53
9451.67
9451.82
9455.39
9445.02
9445.09
9445.21
9445.5
9445.73
9446.24
9446.56
9447.31
9447.71
9448.72
9449.16
9450.46
9450.9
9452.54
9452.96
9454.94
9455.33
9457.65
9457.99
9460.69
9460.95
9464.05
9464.2
9467.72
9456.97
9457.05
9457.16
9457.45
9457.67
9458.19
9458.49
9459.25
9459.61
9460.65
9461.04
9462.37
9462.77
9464.41
9464.8
9466.77
9467.14
9469.45
9469.77
9472.44
9472.69
9475.75
9475.9
9479.37
9468.28
9468.35
9468.46
9468.75
9468.96
9469.48
9469.76
9470.53
9470.87
9471.91
9472.28
9473.61
9473.99
9475.62
9476
9477.95
9478.3
9480.59
9480.9
9483.55
9483.78
9486.81
9486.95
9490.38
9478.95
9479.03
9479.13
9479.43
9479.62
9480.15
9480.42
9481.19
9481.51
9482.55
9482.9
9484.22
9484.59
9486.21
9486.57
9488.51
9488.85
9491.12
9491.41
9494.03
9494.26
9497.25
9497.38
9500.77
9489.04
9489.11
9489.21
9489.51
9489.7
9490.22
9490.48
9491.25
9491.55
9492.59
9492.92
9494.24
9494.59
9496.2
9496.55
9498.47
9498.8
9501.04
9501.33
9503.92
9504.14
9507.1
9507.22
9510.57
9498.55
9498.62
9498.72
9499.01
9499.2
9499.72
9499.97
9500.73
9501.03
9502.06
9502.38
9503.69
9504.03
9505.63
9505.96
9507.86
9508.18
9510.4
9510.68
9513.24
9513.46
9516.38
9516.5
9519.81
9507.51
9507.58
9507.68
9507.97
9508.15
9508.66
9508.91
9509.67
9509.96
9510.98
9511.29
9512.59
9512.92
9514.5
9514.82
9516.71
9517.01
9519.22
9519.48
9522.02
9522.23
9525.12
9525.24
9528.5
9515.95
9516.02
9516.13
9516.39
9516.6
9517.08
9517.34
9518.07
9518.37
9519.37
9519.68
9520.96
9521.28
9522.85
9523.16
9525.04
9525.33
9527.51
9527.77
9530.28
9530.48
9533.33
9533.45
9536.68
9523.89
9523.95
9524.08
9524.32
9524.54
9524.99
9525.28
9525.96
9526.29
9527.25
9527.57
9528.83
9529.14
9530.7
9531
9532.86
9533.14
9535.3
9535.55
9538.03
9538.22
9541.05
9541.16
9544.36
9531.35
9531.41