/*--------------------------------*- C++ -*----------------------------------*\
  =========                 |
  \\      /  F ield         | OpenFOAM: The Open Source CFD Toolbox
   \\    /   O peration     | Website:  https://openfoam.org
    \\  /    A nd           | Version:  10
     \\/     M anipulation  |
\*---------------------------------------------------------------------------*/
FoamFile
{
    format      ascii;
    class       surfaceScalarField;
    location    "0.09";
    object      phi;
}
// * * * * * * * * * * * * * * * * * * * * * * * * * * * * * * * * * * * * * //

dimensions      [1 0 -1 0 0 0 0];

internalField   nonuniform List<scalar> 
8154
(
-1.50087e-08
-5.72878e-08
-1.28365e-07
-2.28949e-07
-3.60875e-07
-5.27089e-07
-7.21582e-07
-9.559e-07
-1.20281e-06
-1.51197e-06
-1.80908e-06
-2.20056e-06
-2.5359e-06
-2.96131e-06
-3.33496e-06
-3.7985e-06
-4.33653e-06
-4.81284e-06
-5.67618e-06
-6.08281e-06
-7.54099e-06
-7.79757e-06
-7.03303e-06
-0.000277549
-0.000832767
1.53843e-08
-0.00138814
6.34951e-08
-0.00194376
1.42639e-07
-0.00249976
2.53912e-07
-0.00305621
3.89617e-07
-0.00361327
5.5416e-07
-0.00417095
7.32019e-07
-0.00472945
9.31492e-07
-0.00528878
1.14879e-06
-0.00584903
1.38211e-06
-0.00641056
1.65933e-06
-0.00697279
1.91418e-06
-0.00753722
2.24455e-06
-0.00810137
2.50284e-06
-0.0086696
2.90592e-06
-0.00923514
3.16774e-06
-0.00980851
3.56029e-06
-0.0103751
3.9508e-06
-0.0109548
4.24717e-06
-0.0115223
4.4684e-06
-0.0121096
4.40046e-06
-0.0126795
3.48225e-06
-0.0132753
2.13606e-06
-0.000277531
-0.000832711
1.72168e-08
-0.00138804
7.31561e-08
-0.00194363
1.66628e-07
-0.00249958
2.93364e-07
-0.00305598
4.56726e-07
-0.00361298
6.40319e-07
-0.0041706
8.62527e-07
-0.00472905
1.07604e-06
-0.00528831
1.34708e-06
-0.00584854
1.57004e-06
-0.00640994
1.8975e-06
-0.00697219
2.10873e-06
-0.00753642
2.46804e-06
-0.00810069
2.63474e-06
-0.00866862
2.99258e-06
-0.00923429
3.2183e-06
-0.0098075
3.36558e-06
-0.010374
4.0201e-06
-0.0109535
3.96323e-06
-0.0115207
4.32991e-06
-0.0121069
4.67577e-06
-0.0126765
4.5514e-06
-0.0132713
3.9308e-06
-0.000277516
-0.000832664
1.30182e-08
-0.00138796
5.47103e-08
-0.00194351
1.22221e-07
-0.00249943
2.17379e-07
-0.00305577
3.28037e-07
-0.00361274
4.66659e-07
-0.00417027
6.00568e-07
-0.00472871
7.67079e-07
-0.00528783
8.98305e-07
-0.00584811
1.06881e-06
-0.00640928
1.17151e-06
-0.00697164
1.30926e-06
-0.00753552
1.36846e-06
-0.00809994
1.40763e-06
-0.00866759
1.42791e-06
-0.00923317
1.24782e-06
-0.00980672
1.52032e-06
-0.0103726
1.12378e-06
-0.0109523
9.6461e-07
-0.0115194
6.6234e-07
-0.0121051
5.45051e-07
-0.0126741
3.20583e-07
-0.0132655
2.67584e-07
-0.000277499
-0.000832608
1.72123e-08
-0.00138786
7.22548e-08
-0.00194337
1.61774e-07
-0.00249924
2.87945e-07
-0.00305554
4.36421e-07
-0.00361244
6.22252e-07
-0.00416992
8.05455e-07
-0.00472827
1.03222e-06
-0.00528733
1.2174e-06
-0.00584749
1.45952e-06
-0.0064086
1.61146e-06
-0.00697084
1.82971e-06
-0.00753458
1.9205e-06
-0.00809896
2.04085e-06
-0.00866626
2.0778e-06
-0.00923222
1.94471e-06
-0.0098051
2.09754e-06
-0.0103711
1.43868e-06
-0.0109505
1.58926e-06
-0.0115179
1.02897e-06
-0.0121033
6.44506e-07
-0.0126724
-3.59895e-09
-0.0132636
-4.03057e-07
-0.000277486
-0.000832568
2.559e-08
-0.00138779
1.05336e-07
-0.00194327
2.36803e-07
-0.0024991
4.18682e-07
-0.00305536
6.43902e-07
-0.0036122
9.12176e-07
-0.00416965
1.20864e-06
-0.0047279
1.53717e-06
-0.00528693
1.87269e-06
-0.00584696
2.22455e-06
-0.00640802
2.56045e-06
-0.00697012
2.88766e-06
-0.00753375
3.18306e-06
-0.00809804
3.42457e-06
-0.00866501
3.63671e-06
-0.0092313
3.70399e-06
-0.00980317
3.82306e-06
-0.01037
3.5321e-06
-0.0109486
3.55414e-06
-0.0115161
3.09139e-06
-0.0121011
2.66593e-06
-0.0126705
1.86002e-06
-0.0132623
1.08731e-06
-0.000277484
-0.000832557
2.96899e-08
-0.00138777
1.21588e-07
-0.00194323
2.73278e-07
-0.00249905
4.82947e-07
-0.00305528
7.43802e-07
-0.0036121
1.05374e-06
-0.0041695
1.39927e-06
-0.0047277
1.77994e-06
-0.00528666
2.17426e-06
-0.00584663
2.58374e-06
-0.00640758
2.98162e-06
-0.00696961
3.36526e-06
-0.00753307
3.7164e-06
-0.00809732
4.00514e-06
-0.00866402
4.2588e-06
-0.00923035
4.36928e-06
-0.00980168
4.47028e-06
-0.0103688
4.20147e-06
-0.0109468
4.13727e-06
-0.0115144
3.50398e-06
-0.0120989
3.07315e-06
-0.0126683
2.18726e-06
-0.0132596
1.32677e-06
-0.000277486
-0.00083256
3.36567e-08
-0.00138778
1.37349e-07
-0.00194323
3.0849e-07
-0.00249904
5.45115e-07
-0.00305526
8.39854e-07
-0.00361205
1.1905e-06
-0.00416941
1.58224e-06
-0.00472759
2.0148e-06
-0.00528647
2.46385e-06
-0.0058464
2.93191e-06
-0.00640723
3.38683e-06
-0.00696921
3.82916e-06
-0.00753249
4.23091e-06
-0.0080967
4.57096e-06
-0.00866311
4.85883e-06
-0.00922945
4.99917e-06
-0.00980025
5.11762e-06
-0.0103676
4.85558e-06
-0.0109449
4.76321e-06
-0.0115126
4.05769e-06
-0.0120966
3.53378e-06
-0.012666
2.52388e-06
-0.0132568
1.50759e-06
-0.000277493
-0.000832578
3.74585e-08
-0.0013878
1.52432e-07
-0.00194326
3.42165e-07
-0.00249907
6.04363e-07
-0.00305528
9.31336e-07
-0.00361206
1.32013e-06
-0.00416939
1.75569e-06
-0.00472753
2.23633e-06
-0.00528636
2.73764e-06
-0.00584623
3.25979e-06
-0.00640695
3.77008e-06
-0.00696886
4.2662e-06
-0.00753197
4.71785e-06
-0.00809612
5.10297e-06
-0.00866226
5.42413e-06
-0.00922859
5.59386e-06
-0.00979887
5.7212e-06
-0.0103664
5.49035e-06
-0.0109429
5.36687e-06
-0.0115109
4.64278e-06
-0.0120943
4.0607e-06
-0.0126636
2.90135e-06
-0.0132538
1.7406e-06
-0.000277505
-0.000832611
4.11934e-08
-0.00138786
1.67215e-07
-0.00194333
3.7511e-07
-0.00249915
6.62217e-07
-0.00305536
1.02038e-06
-0.00361214
1.44598e-06
-0.00416944
1.92343e-06
-0.00472756
2.45004e-06
-0.00528633
3.00082e-06
-0.00584616
3.57445e-06
-0.00640676
4.13729e-06
-0.00696862
4.68525e-06
-0.00753154
5.18497e-06
-0.00809562
5.61423e-06
-0.00866149
5.96752e-06
-0.00922777
6.16507e-06
-0.00979757
6.29451e-06
-0.0103653
6.08722e-06
-0.010941
5.94016e-06
-0.0115091
5.19565e-06
-0.0120918
4.49796e-06
-0.0126612
3.25868e-06
-0.0132507
1.94706e-06
-0.00027752
-0.000832656
4.48611e-08
-0.00138793
1.81767e-07
-0.00194342
4.07511e-07
-0.00249926
7.19056e-07
-0.00305548
1.10764e-06
-0.00361226
1.56904e-06
-0.00416954
2.0868e-06
-0.00472764
2.65755e-06
-0.00528635
3.25519e-06
-0.00584613
3.87776e-06
-0.00640663
4.48982e-06
-0.00696842
5.08675e-06
-0.00753117
5.6318e-06
-0.00809518
6.10315e-06
-0.00866076
6.48743e-06
-0.00922699
6.70979e-06
-0.00979632
6.83834e-06
-0.0103641
6.65067e-06
-0.0109391
6.47811e-06
-0.0115074
5.72141e-06
-0.0120893
5.32118e-06
-0.0126586
3.60517e-06
-0.0132473
2.13928e-06
-0.000277542
-0.000832717
4.85041e-08
-0.00138803
1.96191e-07
-0.00194356
4.39612e-07
-0.00249942
7.75334e-07
-0.00305565
1.19396e-06
-0.00361244
1.69057e-06
-0.00416971
2.24778e-06
-0.0047278
2.86134e-06
-0.00528645
3.50404e-06
-0.0058462
4.17314e-06
-0.0064066
4.83169e-06
-0.00696831
5.47479e-06
-0.00753088
6.0625e-06
-0.00809479
6.57391e-06
-0.0086601
6.98851e-06
-0.00922625
7.23538e-06
-0.00979514
7.36648e-06
-0.0103629
7.18797e-06
-0.0109373
6.99112e-06
-0.0115056
6.19699e-06
-0.0120867
5.46546e-06
-0.012656
3.91711e-06
-0.0132439
2.32597e-06
-0.000277566
-0.000832787
5.21073e-08
-0.00138814
2.10487e-07
-0.00194371
4.71452e-07
-0.0024996
8.31211e-07
-0.00305585
1.27968e-06
-0.00361266
1.8113e-06
-0.00416992
2.40751e-06
-0.004728
3.06327e-06
-0.0052866
3.74979e-06
-0.00584631
4.46372e-06
-0.0064066
5.16612e-06
-0.00696825
5.85223e-06
-0.00753065
6.47911e-06
-0.00809446
7.02735e-06
-0.00865949
7.47027e-06
-0.00922553
7.74141e-06
-0.009794
7.88069e-06
-0.0103618
7.70023e-06
-0.0109354
7.47313e-06
-0.0115038
6.64904e-06
-0.012084
5.81653e-06
-0.0126532
4.22868e-06
-0.0132403
2.50532e-06
-0.000277596
-0.000832874
5.56788e-08
-0.00138828
2.24656e-07
-0.0019439
5.03032e-07
-0.00249983
8.86674e-07
-0.00305611
1.36486e-06
-0.00361294
1.93135e-06
-0.0041702
2.56645e-06
-0.00472827
3.26417e-06
-0.00528683
3.99406e-06
-0.0058465
4.75193e-06
-0.00640669
5.49664e-06
-0.00696826
6.22346e-06
-0.00753048
6.88628e-06
-0.00809419
7.46761e-06
-0.00865894
7.93503e-06
-0.00922485
8.227e-06
-0.0097929
8.37067e-06
-0.0103606
8.18882e-06
-0.0109336
7.92464e-06
-0.0115019
7.06084e-06
-0.0120813
6.16985e-06
-0.0126504
4.51185e-06
-0.0132366
2.66927e-06
-0.000277628
-0.00083297
5.92166e-08
-0.00138844
2.38693e-07
-0.00194411
5.34329e-07
-0.00250009
9.41688e-07
-0.0030564
1.44941e-06
-0.00361325
2.05065e-06
-0.00417052
2.72452e-06
-0.00472859
3.46412e-06
-0.0052871
4.23721e-06
-0.00584673
5.03857e-06
-0.00640683
5.82477e-06
-0.00696832
6.59066e-06
-0.00753037
7.28713e-06
-0.00809395
7.89821e-06
-0.00865843
8.38672e-06
-0.00922419
8.69583e-06
-0.00979182
8.84192e-06
-0.0103595
8.66059e-06
-0.0109317
8.35313e-06
-0.0115
7.44093e-06
-0.0120786
6.48914e-06
-0.0126474
4.74305e-06
-0.0132328
2.81027e-06
-0.000277667
-0.000833083
6.27196e-08
-0.00138862
2.52598e-07
-0.00194435
5.65327e-07
-0.00250039
9.96159e-07
-0.00305675
1.53313e-06
-0.00361363
2.16881e-06
-0.0041709
2.88121e-06
-0.00472897
3.66253e-06
-0.00528745
4.4788e-06
-0.00584703
5.3237e-06
-0.00640703
6.1513e-06
-0.00696844
6.95577e-06
-0.00753031
7.68461e-06
-0.00809377
8.32303e-06
-0.00865798
8.82897e-06
-0.00922357
9.15091e-06
-0.00979078
9.29702e-06
-0.0103583
9.11639e-06
-0.0109299
8.7643e-06
-0.0114981
7.80462e-06
-0.0120759
6.78407e-06
-0.0126445
4.89713e-06
-0.0132288
2.93173e-06
-0.000277708
-0.000833203
6.61941e-08
-0.00138882
2.66373e-07
-0.00194462
5.95995e-07
-0.00250072
1.04998e-06
-0.00305712
1.61573e-06
-0.00361404
2.28526e-06
-0.00417132
3.03554e-06
-0.00472939
3.85793e-06
-0.00528783
4.71693e-06
-0.00584738
5.60506e-06
-0.00640728
6.47419e-06
-0.0069686
7.31733e-06
-0.0075303
8.07878e-06
-0.00809361
8.74376e-06
-0.00865755
9.26552e-06
-0.00922297
9.59618e-06
-0.00978976
9.73688e-06
-0.0103571
9.54737e-06
-0.010928
9.15877e-06
-0.0114962
8.16004e-06
-0.012073
7.07693e-06
-0.0126415
5.11753e-06
-0.0132248
3.06064e-06
-0.000277754
-0.00083334
6.96234e-08
-0.00138904
2.79978e-07
-0.00194492
6.26247e-07
-0.00250109
1.10297e-06
-0.00305755
1.69689e-06
-0.00361451
2.39946e-06
-0.00417181
3.18663e-06
-0.00472988
4.04907e-06
-0.00528829
4.94981e-06
-0.00584779
5.88049e-06
-0.00640759
6.79084e-06
-0.00696881
7.67278e-06
-0.00753034
8.46746e-06
-0.0080935
9.15972e-06
-0.00865717
9.69774e-06
-0.00922239
1.00364e-05
-0.00978878
1.01682e-05
-0.0103559
9.96152e-06
-0.0109261
9.53929e-06
-0.0114942
8.50241e-06
-0.0120701
7.35642e-06
-0.0126385
5.33175e-06
-0.0132207
3.18052e-06
-0.000277803
-0.000833485
7.2993e-08
-0.00138928
2.93313e-07
-0.00194524
6.55851e-07
-0.00250149
1.15471e-06
-0.00305801
1.77596e-06
-0.00361502
2.51041e-06
-0.00417234
3.33308e-06
-0.00473042
4.23391e-06
-0.00528879
5.17479e-06
-0.00584825
6.14644e-06
-0.00640796
7.09702e-06
-0.00696907
8.01726e-06
-0.00753042
8.84577e-06
-0.00809342
9.56631e-06
-0.00865681
1.01228e-05
-0.00922182
1.04711e-05
-0.0097878
1.05961e-05
-0.0103547
1.03742e-05
-0.0109243
9.91452e-06
-0.0114922
8.84159e-06
-0.0120672
7.63188e-06
-0.0126354
5.5317e-06
-0.0132165
3.29463e-06
-0.000277857
-0.000833644
7.62457e-08
-0.00138954
3.06202e-07
-0.0019456
6.84451e-07
-0.00250193
1.20465e-06
-0.00305851
1.85216e-06
-0.00361557
2.61714e-06
-0.00417292
3.47366e-06
-0.00473101
4.41096e-06
-0.00528936
5.3898e-06
-0.00584877
6.40023e-06
-0.00640838
7.38902e-06
-0.00696938
8.34605e-06
-0.00753056
9.20782e-06
-0.00809338
9.95714e-06
-0.0086565
1.05339e-05
-0.00922127
1.08944e-05
-0.00978683
1.10159e-05
-0.0103535
1.07816e-05
-0.0109224
1.02828e-05
-0.0114902
9.18059e-06
-0.0120642
7.90936e-06
-0.0126323
5.73153e-06
-0.0132122
3.40674e-06
-0.000277914
-0.000833813
7.93165e-08
-0.00138981
3.18347e-07
-0.00194597
7.11403e-07
-0.00250239
1.25172e-06
-0.00305904
1.92401e-06
-0.00361616
2.71774e-06
-0.00417354
3.60606e-06
-0.00473164
4.57745e-06
-0.00528996
5.59168e-06
-0.00584933
6.63803e-06
-0.00640885
7.66226e-06
-0.00696974
8.65345e-06
-0.00753074
9.54671e-06
-0.00809337
1.03239e-05
-0.00865621
1.09221e-05
-0.00922072
1.12973e-05
-0.00978588
1.14199e-05
-0.0103523
1.11767e-05
-0.0109205
1.06421e-05
-0.0114881
9.51902e-06
-0.0120612
8.19161e-06
-0.0126291
5.93703e-06
-0.0132079
3.52177e-06
-0.000277975
-0.000833994
8.21161e-08
-0.00139011
3.2945e-07
-0.00194637
7.36094e-07
-0.00250289
1.29493e-06
-0.00305962
1.9901e-06
-0.0036168
2.81046e-06
-0.00417421
3.72827e-06
-0.00473232
4.73117e-06
-0.00529063
5.77796e-06
-0.00584994
6.85705e-06
-0.00640937
7.91336e-06
-0.00697014
8.9352e-06
-0.00753097
9.85678e-06
-0.0080934
1.06593e-05
-0.00865597
1.12779e-05
-0.00922021
1.16685e-05
-0.00978495
1.17963e-05
-0.010351
1.15501e-05
-0.0109186
1.09901e-05
-0.011486
9.84941e-06
-0.0120581
8.47212e-06
-0.0126258
6.15094e-06
-0.0132035
3.6432e-06
-0.000278039
-0.000834183
8.45631e-08
-0.00139042
3.39142e-07
-0.0019468
7.57692e-07
-0.00250341
1.33286e-06
-0.00306022
2.04837e-06
-0.00361746
2.89253e-06
-0.00417491
3.83687e-06
-0.00473304
4.86818e-06
-0.00529133
5.94431e-06
-0.00585059
7.0527e-06
-0.00640994
8.13741e-06
-0.00697058
9.18589e-06
-0.00753124
1.01318e-05
-0.00809347
1.09556e-05
-0.00865575
1.15918e-05
-0.00921971
1.19959e-05
-0.00978403
1.213e-05
-0.0103498
1.18857e-05
-0.0109167
1.13146e-05
-0.0114839
1.01528e-05
-0.012055
8.73226e-06
-0.0126225
6.36403e-06
-0.013199
3.76819e-06
-0.000278107
-0.000834382
8.65819e-08
-0.00139075
3.47165e-07
-0.00194724
7.75635e-07
-0.00250396
1.36451e-06
-0.00306086
2.09724e-06
-0.00361817
2.96176e-06
-0.00417566
3.92905e-06
-0.0047338
4.98508e-06
-0.00529207
6.08692e-06
-0.00585129
7.2208e-06
-0.00641055
8.33008e-06
-0.00697107
9.40094e-06
-0.00753155
1.03668e-05
-0.00809357
1.12072e-05
-0.00865558
1.18566e-05
-0.00921924
1.22701e-05
-0.00978315
1.24078e-05
-0.0103485
1.21637e-05
-0.0109149
1.15806e-05
-0.0114817
1.04037e-05
-0.0120519
8.94556e-06
-0.0126191
6.54925e-06
-0.0131943
3.87799e-06
-0.000278176
-0.000834588
8.81204e-08
-0.00139108
3.53262e-07
-0.0019477
7.89297e-07
-0.00250452
1.38871e-06
-0.00306152
2.13482e-06
-0.00361889
3.01538e-06
-0.00417643
4.00098e-06
-0.00473459
5.07706e-06
-0.00529285
6.19999e-06
-0.00585202
7.35494e-06
-0.00641119
8.48447e-06
-0.00697158
9.57334e-06
-0.00753189
1.05547e-05
-0.0080937
1.14068e-05
-0.00865543
1.20645e-05
-0.00921879
1.24823e-05
-0.00978228
1.26202e-05
-0.0103473
1.23732e-05
-0.010913
1.17766e-05
-0.0114795
1.0588e-05
-0.0120487
9.08747e-06
-0.0126157
6.66109e-06
-0.0131896
3.93448e-06
-0.000278247
-0.000834801
8.91638e-08
-0.00139143
3.57398e-07
-0.00194817
7.98581e-07
-0.00250511
1.40519e-06
-0.0030622
2.16053e-06
-0.00361965
3.05228e-06
-0.00417724
4.05093e-06
-0.00473541
5.14157e-06
-0.00529366
6.28021e-06
-0.00585278
7.45119e-06
-0.00641187
8.59625e-06
-0.00697213
9.699e-06
-0.00753227
1.06915e-05
-0.00809385
1.15514e-05
-0.00865531
1.22122e-05
-0.00921836
1.26303e-05
-0.00978144
1.27624e-05
-0.0103461
1.25103e-05
-0.0109112
1.18994e-05
-0.0114774
1.07036e-05
-0.0120456
9.14968e-06
-0.0126122
6.66167e-06
-0.0131849
3.90285e-06
-0.00027832
-0.000835017
9.00841e-08
-0.00139178
3.61025e-07
-0.00194866
8.06699e-07
-0.00250571
1.41959e-06
-0.0030629
2.18302e-06
-0.00362042
3.08471e-06
-0.00417806
4.09518e-06
-0.00473626
5.19949e-06
-0.0052945
6.3536e-06
-0.00585356
7.54136e-06
-0.00641257
8.70424e-06
-0.00697269
9.8244e-06
-0.00753266
1.08336e-05
-0.00809402
1.17073e-05
-0.0086552
1.2379e-05
-0.00921794
1.28039e-05
-0.00978061
1.29389e-05
-0.0103449
1.26879e-05
-0.0109094
1.20736e-05
-0.0114751
1.08804e-05
-0.0120424
9.29439e-06
-0.0126087
6.76597e-06
-0.0131803
3.98446e-06
-0.000278395
-0.000835238
9.06185e-08
-0.00139215
3.63111e-07
-0.00194915
8.11344e-07
-0.00250632
1.42776e-06
-0.00306361
2.19576e-06
-0.00362121
3.10303e-06
-0.00417891
4.12042e-06
-0.00473713
5.23286e-06
-0.00529536
6.39698e-06
-0.00585437
7.59599e-06
-0.0064133
8.77233e-06
-0.00697329
9.90626e-06
-0.00753309
1.09305e-05
-0.00809422
1.18172e-05
-0.00865512
1.25007e-05
-0.00921754
1.2933e-05
-0.00977981
1.30716e-05
-0.0103437
1.28213e-05
-0.0109076
1.22018e-05
-0.0114729
1.10046e-05
-0.0120393
9.41065e-06
-0.0126053
6.87047e-06
-0.0131756
4.14606e-06
-0.00027847
-0.000835461
9.06486e-08
-0.00139251
3.63173e-07
-0.00194965
8.11425e-07
-0.00250694
1.42783e-06
-0.00306433
2.1958e-06
-0.00362202
3.10309e-06
-0.00417977
4.12077e-06
-0.00473801
5.23396e-06
-0.00529625
6.39986e-06
-0.00585521
7.60177e-06
-0.00641406
8.78315e-06
-0.00697391
9.92346e-06
-0.00753354
1.09566e-05
-0.00809444
1.18519e-05
-0.00865507
1.2545e-05
-0.00921716
1.29833e-05
-0.00977902
1.31256e-05
-0.0103425
1.28741e-05
-0.0109058
1.22486e-05
-0.0114707
1.10492e-05
-0.0120361
9.4484e-06
-0.0126018
6.90573e-06
-0.0131708
3.87122e-06
-0.000278545
-0.000835685
9.02197e-08
-0.00139288
3.61407e-07
-0.00195015
8.07434e-07
-0.00250756
1.4207e-06
-0.00306506
2.18473e-06
-0.00362283
3.08723e-06
-0.00418064
4.09966e-06
-0.00473891
5.20711e-06
-0.00529714
6.36768e-06
-0.00585606
7.56461e-06
-0.00641483
8.74306e-06
-0.00697455
9.88189e-06
-0.00753402
1.09172e-05
-0.00809468
1.18164e-05
-0.00865504
1.25165e-05
-0.0092168
1.29615e-05
-0.00977825
1.31092e-05
-0.0103413
1.28598e-05
-0.010904
1.22292e-05
-0.0114685
1.10277e-05
-0.0120329
9.41201e-06
-0.0125983
6.91153e-06
-0.013166
4.35257e-06
-0.000278621
-0.000835911
8.93458e-08
-0.00139325
3.57878e-07
-0.00195066
7.9953e-07
-0.00250819
1.40677e-06
-0.00306579
2.16327e-06
-0.00362364
3.05684e-06
-0.00418152
4.0592e-06
-0.00473981
5.15556e-06
-0.00529805
6.30471e-06
-0.00585692
7.49004e-06
-0.00641562
8.65814e-06
-0.0069752
9.78803e-06
-0.00753452
1.08181e-05
-0.00809495
1.17151e-05
-0.00865504
1.2419e-05
-0.00921646
1.287e-05
-0.00977752
1.30281e-05
-0.0103401
1.27869e-05
-0.0109023
1.21602e-05
-0.0114663
1.09583e-05
-0.0120299
9.32109e-06
-0.0125949
6.8491e-06
-0.0131613
4.08838e-06
-0.000278696
-0.000836133
8.80612e-08
-0.00139361
3.52721e-07
-0.00195116
7.88056e-07
-0.00250881
1.38667e-06
-0.00306652
2.13255e-06
-0.00362444
3.01361e-06
-0.00418238
4.00209e-06
-0.0047407
5.0831e-06
-0.00529894
6.21638e-06
-0.00585776
7.38493e-06
-0.00641641
8.5371e-06
-0.00697586
9.65154e-06
-0.00753502
1.06695e-05
-0.00809522
1.15575e-05
-0.00865505
1.22589e-05
-0.00921614
1.27133e-05
-0.00977679
1.28824e-05
-0.010339
1.26572e-05
-0.0109006
1.20481e-05
-0.0114641
1.08629e-05
-0.0120268
9.226e-06
-0.0125915
6.78494e-06
-0.0131566
4.02287e-06
-0.000278771
-0.000836354
8.63886e-08
-0.00139398
3.46039e-07
-0.00195165
7.73215e-07
-0.00250942
1.36078e-06
-0.00306724
2.09312e-06
-0.00362524
2.9585e-06
-0.00418325
3.9297e-06
-0.00474159
4.99202e-06
-0.00529984
6.10588e-06
-0.00585862
7.25423e-06
-0.0064172
8.38646e-06
-0.00697653
9.48116e-06
-0.00753554
1.04816e-05
-0.00809552
1.13545e-05
-0.00865509
1.20469e-05
-0.00921586
1.24984e-05
-0.00977612
1.26761e-05
-0.0103379
1.24677e-05
-0.0108989
1.18864e-05
-0.011462
1.07362e-05
-0.0120238
9.13314e-06
-0.0125882
6.71539e-06
-0.013152
3.98233e-06
-0.000278843
-0.00083657
8.4395e-08
-0.00139433
3.3807e-07
-0.00195214
7.55531e-07
-0.00251002
1.32994e-06
-0.00306794
2.04625e-06
-0.00362602
2.89311e-06
-0.00418409
3.84417e-06
-0.00474245
4.88485e-06
-0.00530071
5.97678e-06
-0.00585944
7.10242e-06
-0.00641797
8.2127e-06
-0.00697716
9.28526e-06
-0.00753604
1.02653e-05
-0.0080958
1.11193e-05
-0.00865512
1.17969e-05
-0.00921558
1.22394e-05
-0.00977545
1.24175e-05
-0.0103368
1.22221e-05
-0.0108973
1.16688e-05
-0.0114598
1.05618e-05
-0.0120209
9.00553e-06
-0.0125849
6.6438e-06
-0.0131474
3.93362e-06
-0.000278915
-0.000836783
8.2135e-08
-0.00139468
3.29058e-07
-0.00195262
7.35511e-07
-0.00251061
1.29501e-06
-0.00306864
1.99308e-06
-0.0036268
2.81892e-06
-0.00418493
3.74709e-06
-0.00474331
4.76354e-06
-0.00530159
5.831e-06
-0.00586028
6.93211e-06
-0.00641875
8.01894e-06
-0.00697782
9.06873e-06
-0.00753656
1.00278e-05
-0.00809611
1.0862e-05
-0.0086552
1.1523e-05
-0.00921534
1.19521e-05
-0.00977485
1.21246e-05
-0.0103358
1.1933e-05
-0.0108957
1.14013e-05
-0.0114578
1.03356e-05
-0.012018
8.84007e-06
-0.0125817
6.57181e-06
-0.0131429
3.88e-06
-0.000278983
-0.000836987
7.97058e-08
-0.00139501
3.19338e-07
-0.00195307
7.13883e-07
-0.00251118
1.25716e-06
-0.00306931
1.93534e-06
-0.00362754
2.73808e-06
-0.00418573
3.64107e-06
-0.00474414
4.63071e-06
-0.00530243
5.67136e-06
-0.00586107
6.74576e-06
-0.00641948
7.80784e-06
-0.00697843
8.8343e-06
-0.00753703
9.77308e-06
-0.00809638
1.05889e-05
-0.00865523
1.12344e-05
-0.00921509
1.16507e-05
-0.00977423
1.18139e-05
-0.0103348
1.16204e-05
-0.0108942
1.10979e-05
-0.0114558
1.00604e-05
-0.0120153
8.62249e-06
-0.0125784
6.45966e-06
-0.0131385
3.81017e-06
-0.000279051
-0.000837189
7.71636e-08
-0.00139535
3.0919e-07
-0.00195353
6.91261e-07
-0.00251175
1.21749e-06
-0.00306997
1.87456e-06
-0.00362828
2.65271e-06
-0.00418654
3.52854e-06
-0.00474497
4.48919e-06
-0.00530327
5.50044e-06
-0.00586187
6.54578e-06
-0.00642024
7.58094e-06
-0.00697907
8.58291e-06
-0.00753754
9.50144e-06
-0.00809668
1.03006e-05
-0.00865531
1.09343e-05
-0.00921486
1.13417e-05
-0.00977366
1.15003e-05
-0.0103339
1.13048e-05
-0.0108927
1.07857e-05
-0.0114539
9.76165e-06
-0.0120126
8.3544e-06
-0.0125753
6.24335e-06
-0.0131341
3.70677e-06
-0.000279115
-0.00083738
7.45877e-08
-0.00139566
2.98859e-07
-0.00195396
6.68192e-07
-0.00251228
1.17691e-06
-0.0030706
1.81223e-06
-0.00362898
2.56473e-06
-0.00418729
3.41206e-06
-0.00474575
4.3418e-06
-0.00530406
5.32147e-06
-0.00586263
6.33499e-06
-0.00642095
7.34046e-06
-0.00697966
8.31536e-06
-0.00753801
9.21192e-06
-0.00809694
9.99431e-06
-0.00865534
1.06182e-05
-0.00921462
1.10219e-05
-0.00977307
1.11826e-05
-0.0103329
1.09935e-05
-0.0108913
1.04839e-05
-0.011452
9.474e-06
-0.0120101
8.08764e-06
-0.0125723
6.01985e-06
-0.0131299
3.5712e-06
-0.000279179
-0.000837569
7.19899e-08
-0.00139597
2.88474e-07
-0.00195438
6.44976e-07
-0.00251281
1.13601e-06
-0.00307122
1.74923e-06
-0.00362967
2.47556e-06
-0.00418805
3.29347e-06
-0.00474653
4.19107e-06
-0.00530486
5.13718e-06
-0.00586339
6.11654e-06
-0.00642167
7.08913e-06
-0.00698028
8.03355e-06
-0.00753851
8.90462e-06
-0.00809725
9.66736e-06
-0.00865543
1.02808e-05
-0.00921442
1.06818e-05
-0.00977253
1.08517e-05
-0.010332
1.06776e-05
-0.0108899
1.01916e-05
-0.0114502
9.20555e-06
-0.0120076
7.84419e-06
-0.0125694
5.81085e-06
-0.0131259
3.39214e-06
-0.000279238
-0.000837747
6.93931e-08
-0.00139626
2.78046e-07
-0.00195478
6.21642e-07
-0.00251331
1.09484e-06
-0.00307181
1.68572e-06
-0.00363032
2.38545e-06
-0.00418876
3.17334e-06
-0.00474726
4.03775e-06
-0.00530561
4.94889e-06
-0.0058641
5.89189e-06
-0.00642234
6.82877e-06
-0.00698084
7.73884e-06
-0.00753896
8.57981e-06
-0.00809751
9.31776e-06
-0.00865549
9.91566e-06
-0.00921421
1.03107e-05
-0.00977199
1.04897e-05
-0.0103311
1.03352e-05
-0.0108885
9.88701e-06
-0.0114484
8.94242e-06
-0.0120051
7.63191e-06
-0.0125665
5.63724e-06
-0.013122
3.22158e-06
-0.000279297
-0.000837922
6.67557e-08
-0.00139655
2.67496e-07
-0.00195518
5.98036e-07
-0.0025138
1.05318e-06
-0.00307238
1.62139e-06
-0.00363097
2.2941e-06
-0.00418946
3.0513e-06
-0.00474799
3.88173e-06
-0.00530635
4.75664e-06
-0.00586481
5.66165e-06
-0.00642301
6.56039e-06
-0.00698142
7.43283e-06
-0.00753943
8.2392e-06
-0.00809781
8.94639e-06
-0.00865559
9.52192e-06
-0.00921406
9.90266e-06
-0.00977151
1.00845e-05
-0.0103303
9.94397e-06
-0.0108872
9.53742e-06
-0.0114468
8.64285e-06
-0.0120027
7.41557e-06
-0.0125637
5.49829e-06
-0.0131183
3.20041e-06
-0.000279352
-0.000838086
6.40486e-08
-0.00139682
2.56632e-07
-0.00195555
5.73714e-07
-0.00251425
1.01022e-06
-0.00307292
1.55503e-06
-0.00363156
2.19979e-06
-0.00419011
2.92525e-06
-0.00474866
3.72034e-06
-0.00530704
4.55758e-06
-0.00586547
5.42264e-06
-0.00642363
6.28107e-06
-0.00698194
7.11274e-06
-0.00753985
7.8807e-06
-0.00809807
8.55163e-06
-0.00865566
9.09763e-06
-0.00921389
9.45498e-06
-0.00977104
9.62807e-06
-0.0103295
9.48923e-06
-0.010886
9.11416e-06
-0.0114451
8.26061e-06
-0.0120004
7.1224e-06
-0.012561
5.29444e-06
-0.0131147
3.13963e-06
-0.000279407
-0.000838247
6.11877e-08
-0.00139708
2.45183e-07
-0.00195591
5.4809e-07
-0.0025147
9.64967e-07
-0.00307345
1.48508e-06
-0.00363215
2.10039e-06
-0.00419075
2.79226e-06
-0.00474932
3.55007e-06
-0.00530771
4.34721e-06
-0.00586611
5.17006e-06
-0.00642424
5.98506e-06
-0.00698246
6.77334e-06
-0.00754027
7.49856e-06
-0.00809833
8.12967e-06
-0.00865574
8.63855e-06
-0.00921376
8.96616e-06
-0.00977059
9.11612e-06
-0.0103288
8.96874e-06
-0.0108848
8.60138e-06
-0.0114436
7.77707e-06
-0.0119982
6.70542e-06
-0.0125585
4.96864e-06
-0.0131111
2.96137e-06
-0.000279457
-0.000838397
5.84423e-08
-0.00139733
2.34153e-07
-0.00195625
5.23402e-07
-0.00251512
9.21391e-07
-0.00307394
1.41781e-06
-0.0036327
2.0049e-06
-0.00419135
2.66471e-06
-0.00474993
3.38711e-06
-0.00530833
4.1463e-06
-0.0058667
4.92963e-06
-0.0064248
5.7041e-06
-0.00698292
6.4529e-06
-0.00754064
7.13884e-06
-0.00809855
7.73557e-06
-0.00865579
8.21053e-06
-0.00921359
8.51466e-06
-0.00977015
8.6406e-06
-0.0103281
8.48825e-06
-0.0108836
8.1171e-06
-0.0114422
7.32039e-06
-0.0119962
6.29086e-06
-0.0125561
4.63549e-06
-0.0131078
2.73969e-06
-0.000279506
-0.000838542
5.60139e-08
-0.00139756
2.24427e-07
-0.00195657
5.0167e-07
-0.00251552
8.83115e-07
-0.00307442
1.35886e-06
-0.00363323
1.92151e-06
-0.00419192
2.55382e-06
-0.00475052
3.24604e-06
-0.00530894
3.97365e-06
-0.00586726
4.72418e-06
-0.00642533
5.46669e-06
-0.00698337
6.18415e-06
-0.007541
6.84249e-06
-0.00809876
7.41426e-06
-0.00865582
7.87142e-06
-0.00921342
8.16197e-06
-0.00976969
8.28497e-06
-0.0103274
8.13473e-06
-0.0108825
7.78048e-06
-0.0114408
7.00788e-06
-0.0119942
6.03802e-06
-0.0125538
4.43896e-06
-0.0131047
2.6682e-06
-0.000279552
-0.000838679
5.33862e-08
-0.00139779
2.1389e-07
-0.00195688
4.78122e-07
-0.00251591
8.41644e-07
-0.00307487
1.29501e-06
-0.00363372
1.83119e-06
-0.00419247
2.43374e-06
-0.00475107
3.0933e-06
-0.00530951
3.78674e-06
-0.0058678
4.5017e-06
-0.00642584
5.20956e-06
-0.00698379
5.89284e-06
-0.00754134
6.52113e-06
-0.00809895
7.06544e-06
-0.00865587
7.50359e-06
-0.00921326
7.77958e-06
-0.00976928
7.90165e-06
-0.0103268
7.75396e-06
-0.0108815
7.41969e-06
-0.0114396
6.66841e-06
-0.0119923
5.74461e-06
-0.0125517
4.19334e-06
-0.0131016
2.59106e-06
-0.000279596
-0.00083881
5.0536e-08
-0.001398
2.02473e-07
-0.00195718
4.52624e-07
-0.00251627
7.96769e-07
-0.0030753
1.22592e-06
-0.0036342
1.73353e-06
-0.00419298
2.30394e-06
-0.0047516
2.92827e-06
-0.00531005
3.58479e-06
-0.00586831
4.26139e-06
-0.00642632
4.93179e-06
-0.00698419
5.57808e-06
-0.00754165
6.17362e-06
-0.00809913
6.68779e-06
-0.00865589
7.10452e-06
-0.00921311
7.36417e-06
-0.00976885
7.4852e-06
-0.0103261
7.34322e-06
-0.0108804
7.03783e-06
-0.0114383
6.31522e-06
-0.0119904
5.431e-06
-0.0125498
3.89358e-06
-0.0130987
2.38199e-06
-0.000279637
-0.000838934
4.74458e-08
-0.00139821
1.90103e-07
-0.00195745
4.25006e-07
-0.00251661
7.4819e-07
-0.00307571
1.15117e-06
-0.00363465
1.62794e-06
-0.00419347
2.16367e-06
-0.0047521
2.75007e-06
-0.00531056
3.36689e-06
-0.0058688
4.00225e-06
-0.00642678
4.6325e-06
-0.00698457
5.23901e-06
-0.00754196
5.79964e-06
-0.00809932
6.28105e-06
-0.00865593
6.67487e-06
-0.00921298
6.915e-06
-0.00976848
7.034e-06
-0.0103256
6.89496e-06
-0.0108794
6.62732e-06
-0.0114372
5.94067e-06
-0.0119886
5.14946e-06
-0.012548
3.89166e-06
-0.013096
2.24857e-06
-0.000279676
-0.000839048
4.41067e-08
-0.00139839
1.76736e-07
-0.00195771
3.95175e-07
-0.00251693
6.95748e-07
-0.00307608
1.07051e-06
-0.00363506
1.51405e-06
-0.00419392
2.01247e-06
-0.00475256
2.55809e-06
-0.00531103
3.13235e-06
-0.00586924
3.72346e-06
-0.00642719
4.31082e-06
-0.00698491
4.8746e-06
-0.00754222
5.39828e-06
-0.00809947
5.84443e-06
-0.00865592
6.21454e-06
-0.00921283
6.433e-06
-0.00976807
6.5488e-06
-0.010325
6.40867e-06
-0.0108785
6.16932e-06
-0.0114361
5.51541e-06
-0.0119868
4.84922e-06
-0.0125462
3.51535e-06
-0.0130934
2.10375e-06
-0.000279712
-0.000839155
4.05007e-08
-0.00139857
1.62324e-07
-0.00195795
3.63024e-07
-0.00251723
6.39243e-07
-0.00307643
9.83606e-07
-0.00363545
1.39141e-06
-0.00419435
1.84972e-06
-0.004753
2.35159e-06
-0.00531147
2.88033e-06
-0.00586966
3.42408e-06
-0.00642759
3.96585e-06
-0.00698525
4.48375e-06
-0.00754249
4.9686e-06
-0.00809963
5.37658e-06
-0.00865595
5.72333e-06
-0.00921273
5.9181e-06
-0.00976773
6.03697e-06
-0.0103245
5.89326e-06
-0.0108776
5.67869e-06
-0.0114351
5.00839e-06
-0.0119852
4.47474e-06
-0.0125445
3.24e-06
-0.013091
1.9281e-06
-0.000279743
-0.000839249
3.66473e-08
-0.00139872
1.46888e-07
-0.00195816
3.28554e-07
-0.00251749
5.78627e-07
-0.00307674
8.90371e-07
-0.00363579
1.25985e-06
-0.00419472
1.67512e-06
-0.00475337
2.13007e-06
-0.00531185
2.6102e-06
-0.00587002
3.10317e-06
-0.00642792
3.59668e-06
-0.00698553
4.06518e-06
-0.00754268
4.50944e-06
-0.00809975
4.87561e-06
-0.00865591
5.19877e-06
-0.00921259
5.36643e-06
-0.00976734
5.49396e-06
-0.0103241
5.34576e-06
-0.0108767
5.20873e-06
-0.0114343
4.85253e-06
-0.0119837
3.99921e-06
-0.0125429
2.94594e-06
-0.0130888
1.74583e-06
-0.000279773
-0.000839336
3.25501e-08
-0.00139887
1.30474e-07
-0.00195836
2.91842e-07
-0.00251773
5.14016e-07
-0.00307703
7.90902e-07
-0.00363611
1.11954e-06
-0.00419506
1.48889e-06
-0.00475373
1.89375e-06
-0.00531222
2.32206e-06
-0.00587037
2.7606e-06
-0.00642824
3.20335e-06
-0.00698581
3.61878e-06
-0.00754289
4.02179e-06
-0.00809989
4.34159e-06
-0.0086559
4.64407e-06
-0.00921253
4.77793e-06
-0.00976701
4.91707e-06
-0.0103237
4.76795e-06
-0.0108758
4.71234e-06
-0.0114335
4.21904e-06
-0.0119825
3.58245e-06
-0.0125415
2.65998e-06
-0.0130868
1.56858e-06
-0.000279797
-0.000839407
2.82378e-08
-0.00139898
1.13137e-07
-0.00195852
2.52989e-07
-0.00251793
4.4558e-07
-0.00307726
6.85432e-07
-0.00363636
9.70807e-07
-0.00419534
1.2916e-06
-0.00475402
1.64322e-06
-0.0053125
2.01642e-06
-0.00587064
2.39628e-06
-0.00642848
2.78615e-06
-0.00698601
3.14379e-06
-0.00754301
3.50687e-06
-0.00809998
3.7733e-06
-0.00865583
4.06415e-06
-0.00921244
4.16076e-06
-0.00976664
4.3165e-06
-0.0103234
3.87359e-06
-0.0108751
4.02063e-06
-0.0114326
3.66756e-06
-0.0119813
3.12846e-06
-0.0125401
2.33455e-06
-0.013085
1.37671e-06
-0.000279819
-0.000839471
2.3651e-08
-0.00139909
9.48621e-08
-0.00195866
2.12108e-07
-0.00251811
3.73675e-07
-0.00307747
5.74635e-07
-0.0036366
8.14706e-07