/*--------------------------------*- C++ -*----------------------------------*\
  =========                 |
  \\      /  F ield         | OpenFOAM: The Open Source CFD Toolbox
   \\    /   O peration     | Website:  https://openfoam.org
    \\  /    A nd           | Version:  10
     \\/     M anipulation  |
\*---------------------------------------------------------------------------*/
FoamFile
{
    format      ascii;
    class       volScalarField;
    location    "0.09";
    object      T;
}
// * * * * * * * * * * * * * * * * * * * * * * * * * * * * * * * * * * * * * //

dimensions      [0 0 0 1 0 0 0];

internalField   nonuniform List<scalar> 
4176
(
182.387
182.374
182.39
182.408
182.447
182.476
182.537
182.576
182.659
182.707
182.812
182.87
182.992
183.064
183.198
183.289
183.425
183.547
183.67
183.839
183.929
184.165
184.187
184.48
182.366
182.354
182.371
182.389
182.429
182.459
182.521
182.562
182.648
182.7
182.809
182.871
182.995
183.069
183.206
183.3
183.437
183.565
183.687
183.864
183.95
184.198
184.223
184.546
182.317
182.305
182.321
182.339
182.377
182.407
182.468
182.508
182.591
182.641
182.745
182.805
182.928
183.001
183.135
183.228
183.36
183.49
183.604
183.782
183.859
184.107
184.129
184.465
182.312
182.301
182.317
182.335
182.373
182.403
182.464
182.504
182.587
182.636
182.741
182.8
182.923
182.995
183.13
183.223
183.355
183.487
183.597
183.779
183.854
184.098
184.118
184.439
182.317
182.307
182.322
182.34
182.378
182.409
182.468
182.509
182.59
182.64
182.742
182.803
182.923
182.996
183.13
183.223
183.354
183.487
183.594
183.776
183.851
184.092
184.112
184.422
182.361
182.351
182.366
182.384
182.422
182.452
182.51
182.551
182.631
182.682
182.781
182.842
182.96
183.034
183.164
183.257
183.389
183.518
183.626
183.807
183.882
184.122
184.144
184.455
182.421
182.412
182.427
182.446
182.482
182.513
182.57
182.612
182.69
182.742
182.839
182.902
183.018
183.093
183.222
183.313
183.447
183.569
183.683
183.858
183.934
184.171
184.195
184.504
182.518
182.509
182.524
182.542
182.578
182.609
182.665
182.706
182.782
182.834
182.929
182.992
183.104
183.179
183.305
183.397
183.528
183.649
183.763
183.935
184.011
184.245
184.269
184.576
182.632
182.623
182.638
182.657
182.692
182.723
182.778
182.82
182.895
182.948
183.042
183.105
183.216
183.291
183.416
183.506
183.636
183.753
183.869
184.036
184.114
184.344
184.369
184.671
182.78
182.772
182.787
182.805
182.84
182.87
182.924
182.966
183.038
183.091
183.181
183.245
183.352
183.427
183.548
183.639
183.767
183.883
183.998
184.161
184.239
184.466
184.491
184.789
182.947
182.94
182.954
182.973
183.007
183.038
183.091
183.133
183.205
183.257
183.347
183.41
183.517
183.591
183.711
183.799
183.926
184.037
184.154
184.311
184.392
184.611
184.639
184.931
183.145
183.139
183.153
183.171
183.205
183.235
183.286
183.328
183.397
183.45
183.536
183.599
183.702
183.777
183.893
183.982
184.106
184.216
184.331
184.485
184.565
184.78
184.808
185.096
183.366
183.36
183.374
183.392
183.425
183.455
183.506
183.548
183.617
183.669
183.754
183.817
183.918
183.991
184.105
184.192
184.314
184.421
184.536
184.683
184.765
184.974
185.003
185.284
183.614
183.608
183.622
183.64
183.672
183.702
183.751
183.792
183.858
183.91
183.993
184.055
184.153
184.226
184.337
184.424
184.542
184.649
184.761
184.906
184.987
185.191
185.219
185.495
183.888
183.882
183.895
183.913
183.945
183.975
184.023
184.064
184.129
184.18
184.262
184.323
184.419
184.49
184.599
184.683
184.8
184.902
185.014
185.153
185.234
185.432
185.46
185.73
184.184
184.179
184.192
184.21
184.24
184.269
184.316
184.356
184.42
184.47
184.549
184.61
184.703
184.774
184.88
184.963
185.077
185.177
185.288
185.422
185.503
185.695
185.723
185.987
184.51
184.505
184.518
184.535
184.565
184.594
184.64
184.68
184.741
184.791
184.868
184.927
185.018
185.087
185.19
185.271
185.382
185.479
185.588
185.717
185.798
185.983
186.011
186.268
184.855
184.85
184.863
184.88
184.909
184.938
184.982
185.021
185.081
185.129
185.204
185.262
185.351
185.419
185.519
185.599
185.707
185.802
185.908
186.033
186.113
186.293
186.32
186.571
185.233
185.229
185.241
185.258
185.286
185.314
185.357
185.395
185.453
185.5
185.572
185.629
185.715
185.781
185.878
185.955
186.06
186.152
186.256
186.375
186.455
186.627
186.655
186.898
185.626
185.622
185.634
185.651
185.678
185.705
185.747
185.784
185.841
185.887
185.957
186.013
186.096
186.161
186.255
186.33
186.432
186.521
186.623
186.737
186.817
186.983
187.01
187.247
186.056
186.052
186.063
186.079
186.105
186.132
186.172
186.208
186.262
186.307
186.375
186.428
186.509
186.571
186.662
186.734
186.833
186.918
187.018
187.126
187.205
187.363
187.391
187.62
186.497
186.494
186.505
186.521
186.546
186.572
186.611
186.646
186.699
186.742
186.808
186.86
186.937
186.998
187.086
187.156
187.252
187.334
187.431
187.535
187.613
187.765
187.792
188.014
186.977
186.974
186.984
186.999
187.024
187.049
187.086
187.12
187.17
187.212
187.274
187.324
187.399
187.456
187.541
187.607
187.7
187.778
187.872
187.97
188.047
188.191
188.218
188.432
187.467
187.464
187.475
187.489
187.513
187.537
187.573
187.605
187.654
187.694
187.755
187.803
187.875
187.93
188.013
188.076
188.166
188.241
188.331
188.425
188.5
188.638
188.665
188.871
187.996
187.993
188.003
188.017
188.039
188.062
188.096
188.128
188.173
188.212
188.27
188.315
188.384
188.436
188.515
188.575
188.661
188.731
188.819
188.907
188.98
189.11
189.136
189.333
188.534
188.532
188.541
188.555
188.576
188.598
188.631
188.661
188.705
188.742
188.798
188.841
188.907
188.957
189.033
189.09
189.173
189.24
189.324
189.408
189.479
189.603
189.627
189.817
189.112
189.11
189.118
189.131
189.151
189.172
189.203
189.231
189.273
189.308
189.36
189.401
189.464
189.51
189.583
189.636
189.716
189.777
189.858
189.937
190.005
190.121
190.144
190.325
189.697
189.696
189.704
189.716
189.736
189.756
189.785
189.812
189.852
189.885
189.935
189.973
190.034
190.078
190.148
190.197
190.274
190.332
190.41
190.483
190.549
190.658
190.681
190.854
190.323
190.321
190.328
190.34
190.358
190.377
190.405
190.43
190.467
190.498
190.545
190.581
190.638
190.678
190.745
190.789
190.863
190.916
190.99
191.058
191.121
191.222
191.243
191.408
190.955
190.954
190.961
190.972
190.99
191.007
191.034
191.057
191.093
191.121
191.167
191.2
191.255
191.291
191.356
191.397
191.467
191.516
191.587
191.65
191.71
191.804
191.825
191.981
191.627
191.625
191.632
191.642
191.658
191.675
191.699
191.721
191.755
191.781
191.823
191.853
191.905
191.938
191.998
192.035
192.102
192.145
192.213
192.27
192.327
192.413
192.432
192.579
192.306
192.305
192.311
192.321
192.336
192.352
192.375
192.395
192.427
192.451
192.492
192.518
192.569
192.598
192.656
192.689
192.752
192.792
192.856
192.909
192.962
193.042
193.059
193.198
193.022
193.02
193.027
193.036
193.05
193.064
193.086
193.104
193.133
193.155
193.193
193.217
193.263
193.289
193.343
193.372
193.432
193.465
193.527
193.573
193.623
193.696
193.712
193.841
193.748
193.747
193.752
193.761
193.774
193.787
193.808
193.824
193.853
193.871
193.908
193.929
193.973
193.996
194.048
194.073
194.129
194.16
194.215
194.258
194.304
194.371
194.384
194.505
194.507
194.506
194.511
194.519
194.531
194.543
194.561
194.576
194.602
194.619
194.652
194.67
194.711
194.73
194.779
194.799
194.853
194.876
194.931
194.966
195.009
195.069
195.081
195.192
195.279
195.278
195.283
195.29
195.302
195.312
195.33
195.343
195.367
195.381
195.414
195.428
195.468
195.483
195.529
195.546
195.596
195.617
195.666
195.697
195.736
195.79
195.799
195.901
196.079
196.078
196.083
196.09
196.1
196.109
196.125
196.137
196.159
196.171
196.2
196.212
196.248
196.26
196.303
196.314
196.364
196.377
196.425
196.449
196.485
196.532
196.539
196.632
196.898
196.896
196.9
196.906
196.916
196.924
196.939
196.949
196.97
196.98
197.007
197.016
197.051
197.059
197.099
197.108
197.151
197.163
197.206
197.226
197.258
197.299
197.302
197.386
197.737
197.737
197.741
197.746
197.755
197.762
197.775
197.783
197.802
197.81
197.835
197.841
197.873
197.877
197.915
197.918
197.961
197.965
198.007
198.02
198.05
198.085
198.086
198.161
198.601
198.6
198.603
198.608
198.616
198.622
198.634
198.641
198.658
198.664
198.687
198.691
198.72
198.721
198.756
198.756
198.794
198.796
198.832
198.841
198.867
198.896
198.894
198.96
199.48
199.48
199.483
199.487
199.494
199.499
199.51
199.515
199.53
199.534
199.555
199.556
199.583
199.58
199.613
199.608
199.645
199.64
199.675
199.678
199.701
199.724
199.719
199.778
200.387
200.386
200.389
200.393
200.399
200.403
200.413
200.416
200.43
200.431
200.451
200.449
200.474
200.468
200.498
200.49
200.522
200.514
200.545
200.542
200.562
200.578
200.57
200.621
201.306
201.305
201.308
201.311
201.316
201.319
201.328
201.329
201.342
201.341
201.358
201.354
201.377
201.368
201.396
201.382
201.415
201.4
201.429
201.421
201.439
201.448
201.438
201.481
202.255
202.254
202.256
202.259
202.264
202.265
202.273
202.273
202.284
202.281
202.297
202.289
202.31
202.297
202.323
202.306
202.334
202.315
202.342
202.327
202.342
202.344
202.332
202.366
203.212
203.212
203.214
203.216
203.22
203.221
203.227
203.225
203.235
203.23
203.244
203.234
203.252
203.237
203.26
203.239
203.266
203.243
203.267
203.247
203.261
203.256
203.242
203.269
204.202
204.202
204.203
204.204
204.207
204.207
204.212
204.209
204.217
204.21
204.222
204.209
204.225
204.206
204.227
204.202
204.226
204.197
204.22
204.193
204.205
204.192
204.178
204.195
205.198
205.198
205.199
205.2
205.202
205.201
205.205
205.2
205.207
205.198
205.208
205.193
205.208
205.186
205.205
205.176
205.198
205.166
205.185
205.154
205.164
205.146
205.13
205.139
206.225
206.225
206.226
206.226
206.228
206.225
206.228
206.222
206.227
206.215
206.224
206.206
206.218
206.193
206.209
206.176
206.196
206.157
206.176
206.137
206.147
206.12
206.105
206.104
207.26
207.26
207.26
207.26
207.261
207.258
207.259
207.252
207.256
207.242
207.249
207.229
207.24
207.211
207.226
207.19
207.207
207.166
207.182
207.139
207.146
207.113
207.098
207.088
208.322
208.323
208.323
208.322
208.322
208.318
208.318
208.309
208.311
208.295
208.3
208.277
208.285
208.254
208.266
208.225
208.241
208.192
208.209
208.158
208.166
208.122
208.109
208.091
209.394
209.394
209.394
209.393
209.392
209.387
209.387
209.376
209.377
209.36
209.364
209.339
209.345
209.311
209.322
209.278
209.292
209.241
209.254
209.199
209.206
209.155
209.141
209.115
210.489
210.49
210.489
210.487
210.486
210.48
210.478
210.466
210.465
210.446
210.447
210.42
210.424
210.386
210.395
210.347
210.36
210.301
210.316
210.251
210.261
210.201
210.188
210.153
211.597
211.597
211.596
211.594
211.592
211.585
211.583
211.57
211.568
211.547
211.548
211.518
211.521
211.481
211.489
211.437
211.448
211.385
211.4
211.329
211.338
211.272
211.257
211.215
212.721
212.722
212.721
212.718
212.715
212.708
212.704
212.689
212.686
212.663
212.662
212.629
212.631
212.587
212.594
212.536
212.549
212.478
212.495
212.416
212.425
212.353
212.337
212.289
213.862
213.863
213.861
213.858
213.855
213.847
213.842
213.827
213.823
213.799
213.796
213.762
213.763
213.715
213.722
213.66
213.673
213.598
213.612
213.53
213.536
213.46
213.443
213.387
215.014
215.014
215.013
215.01
215.005
214.996
214.991
214.974
214.969
214.943
214.94
214.901
214.903
214.851
214.858
214.79
214.804
214.723
214.737
214.65
214.656
214.574
214.556
214.495
216.185
216.186
216.184
216.18
216.175
216.166
216.16
216.142
216.136
216.108
216.106
216.064
216.067
216.01
216.018
215.947
215.959
215.875
215.887
215.797
215.8
215.714
215.695
215.626
217.361
217.362
217.36
217.356
217.351
217.341
217.333
217.315
217.309
217.278
217.276
217.231
217.233
217.174
217.181
217.107
217.118
217.032
217.042
216.949
216.95
216.861
216.841
216.767
218.558
218.559
218.557
218.554
218.547
218.538
218.529
218.51
218.504
218.471
218.468
218.422
218.423
218.363
218.368
218.293
218.301
218.212
218.22
218.124
218.124
218.03
218.009
217.929
219.757
219.758
219.756
219.752
219.745
219.736
219.726
219.707
219.699
219.667
219.662
219.616
219.615
219.554
219.557
219.481
219.487
219.398
219.404
219.306
219.304
219.207
219.186
219.101
220.976
220.978
220.975
220.972
220.965
220.955
220.944
220.926
220.916
220.884
220.878
220.83
220.829
220.766
220.768
220.69
220.695
220.603
220.608
220.507
220.504
220.403
220.381
220.291
222.197
222.198
222.196
222.192
222.185
222.174
222.163
222.145
222.133
222.103
222.095
222.048
222.045
221.982
221.982
221.904
221.907
221.816
221.818
221.716
221.712
221.609
221.586
221.492
223.435
223.437
223.434
223.43
223.423
223.412
223.401
223.383
223.369
223.34
223.329
223.283
223.277
223.214
223.213
223.134
223.136
223.042
223.044
222.939
222.934
222.827
222.804
222.705
224.675
224.677
224.675
224.67
224.663
224.653
224.641
224.623
224.609
224.58
224.567
224.523
224.515
224.453
224.451
224.372
224.372
224.278
224.278
224.173
224.167
224.058
224.035
223.933
225.929
225.931
225.929
225.925
225.917
225.906
225.894
225.876
225.861
225.832
225.818
225.774
225.765
225.703
225.699
225.618
225.618
225.522
225.522
225.414
225.408
225.296
225.273
225.167
227.189
227.191
227.189
227.185
227.177
227.166
227.154
227.136
227.12
227.092
227.077
227.034
227.023
226.961
226.956
226.876
226.874
226.779
226.776
226.669
226.661
226.548
226.524
226.416
228.457
228.46
228.457
228.453
228.445
228.434
228.422
228.403
228.387
228.359
228.342
228.299
228.286
228.225
228.218
228.137
228.135
228.037
228.035
227.926
227.918
227.803
227.779
227.668
229.735
229.738
229.735
229.731
229.723
229.712
229.699
229.681
229.664
229.636
229.618
229.575
229.561
229.5
229.492
229.411
229.407
229.31
229.306
229.196
229.187
229.071
229.047
228.933
231.016
231.02
231.016
231.012
231.004
230.992
230.979
230.96
230.942
230.914
230.894
230.852
230.836
230.775
230.766
230.683
230.68
230.581
230.577
230.467
230.457
230.34
230.316
230.201
232.31
232.314
232.31
232.306
232.297
232.285
232.271
232.251
232.233
232.204
232.183
232.141
232.123
232.062
232.051
231.969
231.964
231.865
231.86
231.748
231.738
231.62
231.596
231.479
233.603
233.606
233.602
233.598
233.588
233.576
233.561
233.541
233.521
233.492
233.469
233.428
233.407
233.348
233.334
233.253
233.247
233.147
233.142
233.031
233.02
232.902
232.878
232.76
234.906
234.909
234.905
234.9
234.89
234.877
234.862
234.841
234.82
234.79
234.766
234.725
234.702
234.644
234.627
234.547
234.539
234.438
234.433
234.321
234.31
234.191
234.167
234.048
236.202
236.206
236.202
236.197
236.187
236.173
236.157
236.136
236.115
236.085
236.06
236.019
235.994
235.937
235.918
235.841
235.829
235.732
235.725
235.614
235.602
235.484
235.46
235.342
237.503
237.506
237.503
237.497
237.488
237.474
237.458
237.437
237.415
237.385
237.36
237.319
237.293
237.237
237.215
237.14
237.126
237.03
237.022
236.911
236.899
236.781
236.758
236.639
238.793
238.797
238.794
238.788
238.779
238.766
238.751
238.731
238.71
238.681
238.656
238.617
238.591
238.537
238.514
238.442
238.426
238.334
238.324
238.214
238.202
238.085
238.063
237.944
240.078
240.082
240.08
240.076
240.068
240.056
240.042
240.023
240.004
239.977
239.954
239.916
239.89
239.84
239.816
239.747
239.729
239.64
239.628
239.52
239.509
239.392
239.371
239.252
241.354
241.359
241.357
241.354
241.347
241.338
241.326
241.309
241.293
241.269
241.248
241.214
241.19
241.143
241.121
241.056
241.038
240.953
240.94
240.835
240.824
240.708
240.687
240.569
242.625
242.63
242.629
242.627
242.622
242.614
242.605
242.591
242.578
242.556
242.538
242.508
242.488
242.444
242.425
242.364
242.348
242.267
242.255
242.154
242.144
242.027
242.008
241.89
243.896
243.902
243.902
243.901
243.897
243.892
243.884
243.873
243.862
243.844
243.829
243.803
243.786
243.746
243.731
243.674
243.662
243.585
243.577
243.478
243.472
243.356
243.339
243.219
245.175
245.181
245.181
245.182
245.178
245.174
245.167
245.158
245.148
245.133
245.12
245.096
245.082
245.046
245.036
244.979
244.977
244.898
244.9
244.801
244.803
244.69
244.676
244.56
246.476
246.483
246.482
246.483
246.479
246.475
246.468
246.459
246.448
246.434
246.421
246.398
246.385
246.351
246.343
246.286
246.291
246.21
246.221
246.122
246.131
246.021
246.014
245.905
247.807
247.814
247.813
247.812
247.808
247.801
247.793
247.781
247.77
247.752
247.738
247.714
247.699
247.666
247.653
247.601
247.602
247.526
247.537
247.44
247.454
247.344
247.344
247.241
249.182
249.188
249.186
249.184
249.177
249.168
249.157
249.141
249.126
249.103
249.085
249.056
249.035
248.999
248.979
248.928
248.92
248.845
248.853
248.754
248.77
248.657
248.661
248.558
250.604
250.61
250.607
250.603
250.594
250.581
250.566
250.545
250.525
250.497
250.471
250.436
250.407
250.364
250.335
250.279
250.261
250.182
250.182
250.077
250.092
249.971
249.978
249.867
252.076
252.082
252.077
252.072
252.059
252.044
252.024
251.999
251.971
251.938
251.903
251.861
251.822
251.77
251.73
251.663
251.634
251.542
251.534
251.414
251.424
251.289
251.296
251.171
253.597
253.604
253.598
253.591
253.576
253.558
253.534
253.505
253.472
253.433
253.391
253.342
253.293
253.232
253.179
253.103
253.056
252.953
252.928
252.792
252.789
252.634
252.636
252.487
255.157
255.163
255.157
255.148
255.133
255.112
255.086
255.053
255.018
254.973
254.928
254.87
254.816
254.746
254.683
254.599
254.534
254.426
254.373
254.23
254.201
254.023
254.011
253.827
256.75
256.755
256.75
256.74
256.725
256.702
256.676
256.641
256.604
256.557
256.508
256.448
256.389
256.315
256.246
256.156
256.079
255.969
255.89
255.749
255.685
255.496
255.458
255.228
258.359
258.364
258.359
258.349
258.334
258.311
258.285
258.25
258.212
258.165
258.116
258.055
257.996
257.92
257.849
257.758
257.677
257.566
257.477
257.339
257.251
257.066
257.002
256.737
259.977
259.983
259.978
259.969
259.953
259.932
259.906
259.873
259.836
259.79
259.742
259.683
259.624
259.551
259.48
259.392
259.311
259.203
259.115
258.981
258.892
258.713
258.645
258.383
261.589
261.595
261.591
261.582
261.568
261.548
261.523
261.491
261.456
261.413
261.367
261.311
261.255
261.186
261.118
261.035
260.958
260.856
260.773
260.644
260.565
260.392
260.335
260.096
263.188
263.194
263.191
263.183
263.17
263.151
263.128
263.099
263.066
263.026
262.982
262.931
262.877
262.814
262.75
262.673
262.6
262.506
262.429
262.309
262.238
262.076
262.024
261.805
264.764
264.77
264.767
264.761
264.748
264.732
264.71
264.684
264.653
264.617
264.576
264.53
264.479
264.422
264.362
264.292
264.224
264.139
264.066
263.957
263.891
263.743
263.695
263.495
266.311
266.318
266.315
266.31
266.299
266.285
266.265
266.242
266.212
266.181
266.142
266.101
266.054
266.003
265.947
265.884
265.821
265.745
265.678
265.578
265.518
265.384
265.339
265.158
267.823
267.831
267.828
267.825
267.814
267.802
267.783
267.764
267.736
267.709
267.672
267.638
267.592
267.549
267.495
267.442
267.381
267.314
267.253
267.163
267.108
266.987
266.946
266.783
269.298
269.306
269.303
269.301
269.292
269.282
269.265
269.248
269.223
269.199
269.165
269.136
269.093
269.057
269.006
268.961
268.904
268.846
268.789
268.709
268.658
268.552
268.513
268.368
270.73
270.738
270.736
270.734
270.726
270.717
270.703
270.687
270.666
270.644
270.616
270.588
270.551
270.518
270.473
270.433
270.382
270.331
270.278
270.21
270.162
270.07
270.032
269.904
272.12
272.127
272.126
272.125
272.119
272.111
272.099
272.085
272.067
272.047
272.022
271.998
271.966
271.936
271.897
271.861
271.815
271.772
271.722
271.666
271.621
271.541
271.506
271.394
273.462
273.469
273.469
273.468
273.463
273.456
273.446
273.434
273.419
273.401
273.38
273.358
273.331
273.304
273.27
273.24
273.199
273.162
273.116
273.071
273.027
272.96
272.927
272.831
274.759
274.766
274.766
274.766
274.762
274.757
274.748
274.738
274.725
274.71
274.692
274.673
274.649
274.627
274.597
274.571
274.535
274.504
274.463
274.426
274.384
274.33
274.298
274.218
276.006
276.014
276.014
276.015
276.012
276.007
276.001
275.992
275.981
275.969
275.953
275.938
275.917
275.898
275.872
275.851
275.819
275.794
275.758
275.728
275.688
275.646
275.616
275.549
277.208
277.215
277.216
277.217
277.215
277.212
277.207
277.2
277.191
277.181
277.168
277.155
277.138
277.122
277.1
277.083
277.055
277.035
277.003
276.98
276.943
276.912
276.882
276.829
278.361
278.368
278.369
278.37
278.369
278.367
278.363
278.358
278.35
278.343
278.332
278.322
278.307
278.295
278.276
278.263
278.238
278.224
278.195
278.178
278.146
278.123
278.095
278.053
279.468
279.475
279.476
279.478
279.478
279.476
279.473
279.47
279.464
279.458
279.449
279.442
279.43
279.421
279.405
279.395
279.374
279.364
279.339
279.328
279.299
279.284
279.257
279.227
280.527
280.533
280.535
280.537
280.537
280.537
280.535
280.533
280.528
280.524
280.517
280.512
280.502
280.496
280.483
280.477
280.459
280.453
280.431
280.425
280.399
280.392
280.366
280.346
281.541
281.548
281.55
281.552
281.553
281.553
281.552
281.551
281.548
281.546
281.541
281.538
281.53
281.527
281.516
281.513
281.498
281.496
281.477
281.475
281.452
281.451
281.426
281.416
282.509
282.515
282.517
282.52
282.521
282.522
282.522
282.522
282.52
282.52
282.516
282.515
282.509
282.508
282.499
282.5
282.487
282.489
282.472
282.475
282.455
282.459
282.436
282.434
283.435
283.441
283.443
283.446
283.448
283.45
283.45
283.451
283.451
283.451
283.449
283.45
283.446
283.447
283.44
283.443
283.433
283.437
283.424
283.43
283.413
283.421
283.401
283.406
284.316
284.322
284.324
284.327
284.329
284.332
284.333
284.335
284.335
284.337
284.336
284.338
284.336
284.339
284.334
284.339
284.331
284.339
284.327
284.338
284.322
284.335
284.317
284.328
285.158
285.163
285.166
285.169
285.171
285.174
285.176
285.179
285.18
285.183
285.183
285.187
285.186
285.191
285.188
285.195
285.189
285.199
285.19
285.203
285.19
285.207
285.19
285.207
285.957
285.962
285.965
285.968
285.971
285.974
285.976
285.98
285.982
285.986
285.987
285.992
285.992
285.999
285.997
286.006
286.002
286.014
286.007
286.023
286.012
286.032
286.017
286.039
286.72
286.725
286.727
286.731
286.734
286.738
286.74
286.745
286.747
286.752
286.754
286.76
286.762
286.769
286.769
286.78
286.777
286.791
286.785
286.804
286.794
286.818
286.804
286.83
287.443
287.448
287.45
287.454
287.457
287.461
287.464
287.469
287.472
287.478
287.481
287.488
287.49
287.499
287.5
287.512
287.511
287.527
287.522
287.543
287.535
287.561
287.548
287.578
288.133
288.137
288.139
288.143
288.146
288.151
288.154
288.159
288.163
288.169
288.173
288.181
288.184
288.194
288.196
288.21
288.209
288.227
288.223
288.246
288.239
288.268
288.256
288.289
288.785
288.789
288.791
288.795
288.798
288.803
288.807
288.812
288.817
288.824
288.828
288.836
288.84
288.851
288.854
288.869
288.87
288.888
288.886
288.91
288.904
288.935
288.924
288.96
289.407
289.41
289.413
289.417
289.42
289.425
289.429
289.435
289.439
289.447
289.452
289.461
289.465
289.477
289.481
289.496
289.498
289.518
289.517
289.542
289.537
289.569
289.559
289.598
289.994
289.998
290
290.004
290.007
290.012
290.017
290.023
290.028
290.036
290.041
290.051
290.056
290.068
290.072
290.089
290.091
290.112
290.112
290.138
290.134
290.168
290.158
290.198
290.554
290.557
290.56
290.564
290.567
290.572
290.576
290.583
290.588
290.596
290.602
290.612
290.618
290.631
290.636
290.653
290.656
290.677
290.678
290.705
290.702
290.737
290.728
290.769
291.082
291.085
291.088
291.091
291.095
291.1
291.105
291.111
291.117
291.125
291.131
291.142
291.148
291.161
291.167
291.184
291.188
291.21
291.211
291.24
291.237
291.272
291.264
291.307
291.586
291.588
291.591
291.595
291.598
291.603
291.608
291.615
291.62
291.629
291.635
291.646
291.652
291.667
291.672
291.69
291.695
291.717
291.719
291.748
291.746
291.782
291.775
291.818
292.06
292.063
292.065
292.068
292.072
292.077
292.082
292.089
292.095
292.104
292.11
292.121
292.128
292.142
292.148
292.166
292.172
292.194
292.197
292.226
292.225
292.262
292.254
292.299
292.512
292.515
292.517
292.521
292.524
292.529
292.534
292.541
292.547
292.556
292.562
292.574
292.581
292.595
292.602
292.62
292.626
292.649
292.652
292.682
292.681
292.718
292.711
292.757
292.938
292.94
292.942
292.946
292.949
292.955
292.959
292.966
292.972
292.982
292.988
293
293.007
293.022
293.029
293.047
293.053
293.076
293.08
293.109
293.109
293.146
293.14
293.186
293.344
293.346
293.348
293.352
293.355
293.36
293.365
293.372
293.378
293.387
293.394
293.406
293.413
293.428
293.435
293.454
293.46
293.483
293.487
293.517
293.517
293.554
293.548
293.594
293.726
293.728
293.73
293.734
293.737
293.742
293.747
293.754
293.76
293.769
293.776
293.788
293.795
293.81
293.817
293.836
293.842
293.866
293.87
293.9
293.9
293.937
293.932
293.978
294.09
294.092
294.094
294.097
294.101
294.106
294.111
294.118
294.124
294.133
294.14
294.152
294.159
294.174
294.181
294.2
294.206
294.23
294.234
294.263
294.264
294.301
294.296
294.341
294.434
294.436
294.438
294.441
294.444
294.449
294.454
294.461
294.467
294.476
294.483
294.495
294.502
294.517
294.524
294.543
294.549
294.573
294.577
294.607
294.607
294.644
294.639
294.684
294.76
294.762
294.763
294.767
294.77
294.775
294.78
294.786
294.792
294.801
294.808
294.82
294.827
294.842
294.849
294.868
294.874
294.898
294.902
294.931
294.932
294.968
294.964
295.008
295.069
295.071
295.072
295.076
295.079
295.084
295.088
295.095
295.101
295.11
295.117
295.128
295.136
295.15
295.158
295.176
295.182
295.206
295.21
295.239
295.24
295.276
295.272
295.315
295.361
295.362
295.364
295.367
295.37
295.375
295.38
295.387
295.392
295.401
295.408
295.419
295.426
295.441
295.448
295.467
295.473
295.496
295.5
295.529
295.53
295.565
295.561
295.604
295.639
295.64
295.642
295.645
295.648
295.653
295.657
295.664
295.67
295.679
295.685
295.697
295.704
295.718
295.725
295.743
295.75
295.773
295.777
295.805
295.806
295.841
295.838
295.88
295.9
295.901
295.903
295.906
295.909
295.914
295.918
295.925
295.93
295.939
295.946
295.957
295.964
295.978
295.985
296.003
296.009
296.032
296.036
296.064
296.066
296.1
296.096
296.138
296.15
296.151
296.153
296.156
296.159
296.163
296.168
296.174
296.18
296.189
296.195
296.206
296.213
296.227
296.234
296.251
296.258
296.28
296.284
296.312
296.314
296.347
296.344
296.385
296.384
296.385
296.387
296.389
296.392
296.397
296.401
296.408
296.413
296.422
296.428
296.439
296.446
296.459
296.466
296.484
296.49
296.512
296.516
296.544
296.545
296.578
296.575
296.615
296.608
296.609
296.611
296.614
296.616
296.621
296.625
296.632
296.637
296.645
296.651
296.662
296.669
296.683
296.689
296.706
296.713
296.734
296.739
296.765
296.767
296.799
296.797
296.836
296.818
296.818
296.82
296.823
296.825
296.83
296.834
296.841
296.846
296.854
296.86
296.871
296.877
296.891
296.897
296.914
296.92
296.941
296.946
296.972
296.974
297.006
297.004
297.042
297.019
297.02
297.021
297.024
297.026
297.031
297.035
297.041
297.046
297.055
297.061
297.071
297.078
297.091
297.097
297.114
297.12
297.14
297.145
297.171
297.173
297.204
297.202
297.239
297.206
297.207
297.208
297.211
297.214
297.218
297.222
297.228
297.233
297.242
297.247
297.258
297.264
297.278
297.284
297.3
297.305
297.326
297.33
297.356
297.358
297.389
297.387
297.424
297.387
297.387
297.389
297.391
297.394
297.398
297.402
297.408
297.413
297.422
297.427
297.438
297.444
297.457
297.463
297.479
297.484
297.504
297.508
297.534
297.535
297.566
297.564
297.6
297.555
297.555
297.557
297.559
297.562
297.566
297.57
297.576
297.581
297.589
297.595
297.605
297.611
297.624
297.63
297.646
297.651
297.671
297.675
297.7
297.701
297.732
297.729
297.764
297.717
297.717
297.718
297.721
297.723
297.728
297.731
297.737
297.742
297.75
297.755
297.766
297.772
297.785
297.79
297.807
297.811
297.831
297.834
297.859
297.86
297.89
297.888
297.922
297.868
297.868
297.869
297.872
297.874
297.878
297.882
297.888
297.892
297.901
297.906
297.916
297.922
297.935
297.94
297.956
297.96
297.98
297.983
298.008
298.009
298.038
298.036
298.07
298.013
298.013
298.014
298.016
298.019
298.023
298.026
298.032
298.037
298.045
298.05
298.06
298.065
298.078
298.083
298.1
298.104
298.123
298.126
298.15
298.151
298.18
298.178
298.211
298.148
298.148
298.149
298.152
298.154
298.158
298.161
298.167
298.171
298.18
298.184
298.195
298.2
298.213
298.218
298.234
298.238
298.257
298.259
298.284
298.284
298.313
298.311
298.343
298.277
298.278
298.279
298.281
298.283
298.287
298.29
298.297
298.3
298.309
298.313
298.324
298.328
298.341
298.346
298.362
298.365
298.385
298.387
298.411
298.412
298.44
298.437
298.47
298.399
298.399
298.4
298.402
298.404
298.409
298.412
298.418
298.421
298.43
298.434
298.444
298.448
298.462
298.466
298.482
298.485
298.505
298.507
298.53
298.531
298.559
298.557
298.588
298.515
298.515
298.516
298.518
298.52
298.524
298.527
298.533
298.537
298.545
298.549
298.56
298.563
298.577
298.58
298.597
298.6
298.62
298.621
298.644
298.645
298.672
298.67
298.701
298.623
298.623
298.624
298.626
298.628
298.633
298.635
298.641
298.645
298.653
298.656
298.668
298.671
298.685
298.688
298.705
298.707
298.727
298.728
298.751
298.752
298.779
298.777
298.807
298.726
298.726
298.727
298.73
298.731
298.736
298.738
298.745
298.747
298.756
298.759
298.77
298.773
298.787
298.79
298.807
298.809
298.829
298.83
298.853
298.853
298.88
298.878
298.908
298.823
298.824
298.824
298.827
298.828
298.833
298.835
298.842
298.844
298.853
298.856
298.867
298.87
298.884
298.886
298.903
298.905
298.924
298.926
298.948
298.949
298.975
298.973
299.002
298.915
298.916
298.916
298.919
298.92
298.925
298.927
298.934
298.936
298.945
298.948
298.959
298.961
298.975
298.978
298.994
298.996
299.016
299.017
299.039
299.04
299.066
299.063
299.092
299.002
299.002
299.003
299.005
299.007
299.011
299.013
299.02
299.022
299.031
299.033
299.044
299.047
299.061
299.063
299.079
299.081
299.101
299.102
299.125
299.125
299.15
299.149
299.176
299.084
299.084
299.085
299.087
299.089
299.093
299.095
299.102
299.104
299.113
299.115
299.126
299.128
299.142
299.144
299.16
299.162
299.181
299.182
299.204
299.204
299.23
299.228
299.255
299.161
299.161
299.162
299.164
299.166
299.17
299.172
299.179
299.181
299.189
299.192
299.203
299.205
299.219
299.221
299.237
299.239
299.258
299.259
299.28
299.28
299.305
299.303
299.33
299.233
299.234
299.234
299.237
299.238
299.242
299.244
299.251
299.253
299.261
299.264
299.275
299.277
299.29
299.292
299.308
299.31
299.329
299.33
299.352
299.352
299.377
299.375