/*--------------------------------*- C++ -*----------------------------------*\
  =========                 |
  \\      /  F ield         | OpenFOAM: The Open Source CFD Toolbox
   \\    /   O peration     | Website:  https://openfoam.org
    \\  /    A nd           | Version:  10
     \\/     M anipulation  |
\*---------------------------------------------------------------------------*/
FoamFile
{
    format      ascii;
    class       volVectorField;
    location    "0.09";
    object      U;
}
// * * * * * * * * * * * * * * * * * * * * * * * * * * * * * * * * * * * * * //

dimensions      [0 1 -1 0 0 0 0];

internalField   nonuniform List<vector> 
4176
(
(492.757 -0.0152028 -1.07073e-09)
(492.738 0.0539979 2.9807e-10)
(492.706 -0.0039879 -4.05431e-12)
(492.665 0.0721628 4.88045e-12)
(492.6 0.0398985 1.94227e-12)
(492.534 0.0635561 -1.40713e-12)
(492.436 0.109064 -2.80089e-11)
(492.346 0.0285146 -2.1821e-11)
(492.213 0.203105 -5.76009e-12)
(492.103 -0.0293755 -9.38364e-12)
(491.935 0.316439 -2.4354e-11)
(491.803 -0.100962 -1.5407e-11)
(491.604 0.434779 1.39488e-11)
(491.446 -0.163931 -1.06247e-13)
(491.223 0.524196 -7.7541e-12)
(491.029 -0.147702 -1.12151e-12)
(490.802 0.483184 2.69224e-12)
(490.548 0.0118879 1.25091e-12)
(490.341 0.300713 3.69007e-11)
(489.998 0.307053 4.56685e-11)
(489.847 -0.0310429 -6.55423e-12)
(489.37 0.754871 -2.06078e-11)
(489.345 -0.519029 6.11932e-12)
(488.718 1.42577 1.22899e-11)
(492.766 0.00406516 -1.07588e-09)
(492.746 0.104249 2.99268e-10)
(492.714 0.0711221 -4.28064e-12)
(492.671 0.184001 4.36594e-12)
(492.606 0.175091 2.2818e-12)
(492.538 0.236897 -1.11187e-12)
(492.437 0.304434 -2.88719e-11)
(492.346 0.261281 -2.19833e-11)
(492.209 0.457719 -5.36066e-12)
(492.097 0.260016 -8.98152e-12)
(491.924 0.631183 -2.48358e-11)
(491.789 0.243357 -1.52353e-11)
(491.583 0.811358 1.28043e-11)
(491.423 0.230874 2.2876e-13)
(491.193 0.964709 -7.48063e-12)
(490.995 0.289246 -5.84489e-13)
(490.763 0.988687 1.49781e-12)
(490.502 0.494895 9.64552e-13)
(490.293 0.873359 3.61774e-11)
(489.936 0.833847 4.54913e-11)
(489.791 0.608937 -6.65781e-12)
(489.29 1.30548 -2.29926e-11)
(489.26 0.115473 6.86478e-12)
(488.569 1.96901 1.17907e-11)
(492.87 0.0218224 -1.08483e-09)
(492.85 0.151063 2.99134e-10)
(492.819 0.141373 -6.05789e-12)
(492.777 0.288754 5.30175e-12)
(492.714 0.301573 2.34004e-12)
(492.648 0.399667 -1.66754e-12)
(492.55 0.487528 -2.66694e-11)
(492.461 0.48136 -2.08682e-11)
(492.326 0.697861 -3.8551e-12)
(492.217 0.534958 -8.72567e-12)
(492.046 0.928504 -2.57779e-11)
(491.916 0.569374 -1.56824e-11)
(491.711 1.16648 1.48055e-11)
(491.557 0.603276 7.05714e-13)
(491.329 1.37972 -7.52307e-12)
(491.139 0.698064 5.54896e-13)
(490.91 1.4662 -1.27695e-12)
(490.653 0.944236 -9.69245e-13)
(490.453 1.41537 3.68784e-11)
(490.1 1.32032 4.54279e-11)
(489.968 1.22024 -7.61014e-12)
(489.473 1.8551 -2.06013e-11)
(489.444 0.822752 6.98281e-12)
(488.729 2.58048 1.25881e-11)
(492.874 0.0404198 -1.08873e-09)
(492.855 0.198937 3.03228e-10)
(492.824 0.213084 -6.78e-12)
(492.782 0.395172 8.19772e-12)
(492.719 0.430237 1.95719e-12)
(492.653 0.56491 -5.50659e-12)
(492.555 0.673461 -2.69372e-11)
(492.467 0.704945 -2.37436e-11)
(492.333 0.941819 -1.07991e-11)
(492.225 0.815188 -5.53673e-12)
(492.052 1.23082 -2.49621e-11)
(491.926 0.902089 -1.70754e-11)
(491.718 1.52766 1.67373e-11)
(491.568 0.983891 -3.28153e-13)
(491.336 1.80263 -1.41894e-11)
(491.149 1.11417 -6.58899e-13)
(490.918 1.95672 8.80383e-13)
(490.656 1.40131 -1.6986e-12)
(490.463 1.96396 3.91254e-11)
(490.106 1.81271 4.51587e-11)
(489.975 1.82322 -1.03752e-11)
(489.488 2.39068 -2.16037e-11)
(489.465 1.50496 5.05561e-12)
(488.78 3.17326 3.02736e-12)
(492.849 0.0583086 -1.09496e-09)
(492.83 0.245658 3.09728e-10)
(492.799 0.283029 -2.85159e-12)
(492.758 0.499594 8.25548e-12)
(492.696 0.555937 5.48274e-12)
(492.631 0.727243 -1.47581e-13)
(492.535 0.855037 -2.90549e-11)
(492.448 0.924381 -2.21912e-11)
(492.315 1.17943 -5.89001e-12)
(492.209 1.08998 -7.58051e-12)
(492.038 1.5254 -2.49014e-11)
(491.914 1.22916 -1.41099e-11)
(491.708 1.88142 1.38002e-11)
(491.561 1.35795 -8.74172e-13)
(491.328 2.22019 -1.20898e-11)
(491.147 1.52056 -3.10024e-12)
(490.912 2.44915 -3.22142e-13)
(490.655 1.8472 -1.2669e-12)
(490.466 2.50187 3.38726e-11)
(490.109 2.30637 5.11326e-11)
(489.976 2.4147 -2.86499e-12)
(489.496 2.91284 -1.88699e-11)
(489.472 2.14259 8.50193e-12)
(488.807 3.72744 1.3565e-11)
(492.762 0.0763661 -1.11087e-09)
(492.743 0.292067 3.07562e-10)
(492.713 0.353041 -1.14731e-12)
(492.672 0.603239 3.678e-12)
(492.611 0.681579 -5.04789e-12)
(492.545 0.888415 -4.67592e-12)
(492.451 1.03651 -2.69741e-11)
(492.363 1.1425 -2.65026e-11)
(492.233 1.41691 -5.79307e-12)
(492.126 1.36359 -2.47594e-12)
(491.959 1.81941 -2.48095e-11)
(491.833 1.55559 -1.94992e-11)
(491.63 2.23339 1.15481e-11)
(491.484 1.73296 1.88505e-12)
(491.252 2.63381 -1.47973e-11)
(491.076 1.93389 -5.33864e-13)
(490.833 2.93881 9.82386e-12)
(490.591 2.28865 1.21737e-12)
(490.39 3.04298 4.35461e-11)
(490.042 2.80087 5.35198e-11)
(489.905 3.00814 -7.10197e-12)
(489.43 3.43662 -2.96719e-11)
(489.401 2.78376 5.18667e-12)
(488.735 4.28051 1.36364e-11)
(492.624 0.0942732 -1.11261e-09)
(492.605 0.337725 3.04896e-10)
(492.576 0.422338 -1.64795e-11)
(492.535 0.705342 3.66394e-12)
(492.475 0.805918 9.64879e-12)
(492.41 1.04725 -3.48961e-12)
(492.317 1.21608 -3.83464e-11)
(492.23 1.35752 -2.26386e-11)
(492.102 1.65183 1.19036e-13)
(491.995 1.63355 -7.241e-12)
(491.831 2.11008 -2.77001e-11)
(491.706 1.87823 -8.66565e-12)
(491.506 2.58088 2.74063e-11)
(491.362 2.10462 4.2076e-12)
(491.131 3.0406 -1.01623e-11)
(490.959 2.34738 2.74274e-12)
(490.713 3.41797 4.47691e-13)
(490.483 2.72908 -4.73666e-12)
(490.271 3.58497 3.8113e-11)
(489.935 3.28601 5.13603e-11)
(489.794 3.5989 -8.51717e-12)
(489.326 3.95963 -2.99469e-11)
(489.293 3.43477 7.31528e-12)
(488.628 4.83928 1.84588e-11)
(492.432 0.112053 -1.12998e-09)
(492.413 0.382886 3.14615e-10)
(492.383 0.491038 3.84927e-12)
(492.343 0.806377 7.04987e-12)
(492.284 0.929123 -2.59093e-12)
(492.219 1.20444 -2.51709e-13)
(492.128 1.39397 -2.237e-11)
(492.041 1.57037 -2.44275e-11)
(491.915 1.88451 -1.8296e-11)
(491.809 1.90092 -9.7895e-12)
(491.647 2.39791 -1.72191e-11)
(491.524 2.19808 -1.41354e-11)
(491.325 2.92478 2.63837e-12)
(491.184 2.47356 -3.78787e-12)
(490.953 3.44279 -2.92592e-12)
(490.786 2.75924 -5.14843e-12)
(490.538 3.8901 3.9078e-12)
(490.318 3.16744 1.12748e-11)
(490.099 4.1244 4.18078e-11)
(489.774 3.76482 3.70829e-11)
(489.629 4.1856 -8.70326e-12)
(489.168 4.47883 -1.41613e-11)
(489.131 4.08127 4.65826e-12)
(488.474 5.39136 -4.72556e-12)
(492.186 0.129662 -1.14299e-09)
(492.168 0.427475 3.00943e-10)
(492.139 0.558978 -1.71823e-11)
(492.099 0.906159 -4.9381e-12)
(492.04 1.05091 -2.36331e-12)
(491.976 1.35967 -7.9623e-12)
(491.886 1.56975 -3.75979e-11)
(491.8 1.78057 -2.81221e-11)
(491.676 2.11436 -1.23825e-11)
(491.572 2.16505 -1.29966e-11)
(491.411 2.68216 -2.90517e-11)
(491.29 2.51429 -1.56176e-11)
(491.093 3.26429 1.12487e-11)
(490.954 2.83869 -2.03813e-12)
(490.725 3.83953 -9.17981e-12)
(490.562 3.16752 -2.0453e-12)
(490.313 4.35337 -3.79043e-13)
(490.103 3.60315 -5.36117e-14)
(489.877 4.65812 3.82943e-11)
(489.566 4.23739 4.41481e-11)
(489.414 4.7698 -1.06344e-11)
(488.962 4.99328 -2.5273e-11)
(488.921 4.72399 6.22821e-12)
(488.273 5.93731 1.12955e-11)
(491.888 0.147097 -1.12817e-09)
(491.869 0.471508 3.28702e-10)
(491.841 0.626154 1.89099e-12)
(491.801 1.00472 1.766e-11)
(491.744 1.17127 1.61873e-11)
(491.68 1.51299 9.18347e-12)
(491.591 1.74339 -2.10989e-11)
(491.507 1.98814 -1.17062e-11)
(491.384 2.3413 5.17577e-12)
(491.281 2.42588 3.16577e-12)
(491.123 2.96271 -1.12649e-11)
(491.003 2.82668 -6.91652e-14)
(490.808 3.59926 2.98463e-11)
(490.673 3.19975 1.09359e-11)
(490.444 4.23078 4.65122e-12)
(490.286 3.57192 8.59745e-12)
(490.037 4.80819 1.31921e-11)
(489.836 4.03537 1.04149e-11)
(489.605 5.18472 5.17992e-11)
(489.306 4.70326 5.58706e-11)
(489.148 5.35056 1.38301e-12)
(488.706 5.50194 -1.33643e-11)
(488.661 5.36048 1.54221e-11)
(488.023 6.47529 2.01783e-11)
(491.537 0.16433 -1.14885e-09)
(491.518 0.514941 3.17035e-10)
(491.49 0.692477 -7.11241e-12)
(491.451 1.10197 1.0248e-11)
(491.394 1.29007 9.75776e-12)
(491.332 1.66425 1.8245e-12)
(491.244 1.91471 -2.61706e-11)
(491.161 2.19289 -1.40244e-11)
(491.04 2.56511 2.90774e-12)
(490.938 2.68316 1.23948e-12)
(490.782 3.23923 -1.12199e-11)
(490.665 3.13485 2.35528e-12)
(490.472 3.92928 3.27557e-11)
(490.339 3.55615 1.31602e-11)
(490.112 4.61603 9.65715e-12)
(489.959 3.9717 1.46418e-11)
(489.71 5.25446 2.05727e-11)
(489.517 4.46348 1.61812e-11)
(489.281 5.70318 6.19026e-11)
(488.995 5.16239 6.67674e-11)
(488.831 5.9261 -1.01151e-11)
(488.401 6.00355 -4.70604e-11)
(488.352 5.9904 -1.36808e-11)
(487.725 7.0046 -1.09119e-11)
(491.133 0.181345 -1.15683e-09)
(491.115 0.55774 3.19077e-10)
(491.087 0.75788 -9.80255e-12)
(491.049 1.19783 4.84101e-12)
(490.993 1.40719 4.99514e-12)
(490.931 1.81335 -3.53441e-12)
(490.845 2.08356 -3.42168e-11)
(490.762 2.39471 -2.43435e-11)
(490.643 2.78559 -7.43228e-12)
(490.543 2.93668 -8.3305e-12)
(490.389 3.5115 -2.18545e-11)
(490.274 3.43852 -6.80448e-12)
(490.083 4.25404 2.22136e-11)
(489.954 3.90748 4.12517e-12)
(489.729 4.99498 -4.33679e-12)
(489.581 4.36628 1.2486e-12)
(489.331 5.69232 3.69554e-12)
(489.147 4.88707 2.56357e-12)
(488.907 6.21277 4.34463e-11)
(488.634 5.61467 4.86723e-11)
(488.464 6.49435 -5.16986e-12)
(488.048 6.49649 -1.81054e-11)
(487.994 6.61317 1.18866e-11)
(487.378 7.52453 1.51717e-11)
(490.677 0.198113 -1.16504e-09)
(490.659 0.599849 3.17907e-10)
(490.632 0.822266 -1.53659e-11)
(490.594 1.29218 -1.05761e-12)
(490.539 1.52248 -2.96582e-12)
(490.478 1.96014 -1.51488e-11)
(490.393 2.24976 -4.8577e-11)
(490.312 2.59339 -4.12218e-11)
(490.195 3.00256 -2.45553e-11)
(490.097 3.18625 -2.70207e-11)
(489.944 3.77928 -4.80587e-11)
(489.832 3.7374 -3.26458e-11)
(489.643 4.57322 -1.00157e-11)
(489.518 4.25327 -8.33851e-13)
(489.295 5.36717 1.96852e-11)
(489.151 4.75493 1.85519e-11)
(488.903 6.12176 2.16433e-11)
(488.726 5.30577 1.44518e-11)
(488.483 6.71281 5.55669e-11)
(488.222 6.0596 5.9129e-11)
(488.047 7.05396 2.98073e-12)
(487.644 6.97971 -1.30565e-11)
(487.587 7.228 1.70369e-11)
(486.983 8.03459 1.81024e-11)
(490.169 0.214608 -1.16495e-09)
(490.152 0.641217 3.41017e-10)
(490.125 0.885543 -1.59528e-11)
(490.087 1.3849 -2.01814e-11)
(490.033 1.63578 -5.69552e-12)
(489.973 2.10442 -5.90753e-12)
(489.89 2.4131 -2.78857e-11)
(489.81 2.78872 -4.89555e-12)
(489.694 3.21576 -5.87123e-12)
(489.599 3.43162 -2.6752e-11)
(489.448 4.04232 -3.54554e-11)
(489.339 4.03121 -9.63234e-12)
(489.152 4.88654 3.1998e-11)
(489.03 4.59317 1.86498e-11)
(488.809 5.73224 -1.26451e-11)
(488.671 5.13709 -2.17353e-11)
(488.424 6.54255 -1.42409e-11)
(488.254 5.71911 -4.38197e-12)
(488.009 7.20276 4.95996e-11)
(487.761 6.49631 6.49815e-11)
(487.581 7.60421 -9.15432e-12)
(487.192 7.45251 -4.17161e-11)
(487.131 7.83347 2.0378e-13)
(486.54 8.53425 1.51656e-11)
(489.609 0.230808 -1.18668e-09)
(489.592 0.681792 3.02012e-10)
(489.565 0.947619 -6.91337e-12)
(489.528 1.47588 3.54977e-11)
(489.475 1.74692 1.98798e-11)
(489.416 2.24602 -2.64533e-12)
(489.334 2.57333 -4.77843e-11)
(489.256 2.98045 -5.06186e-11)
(489.143 3.42491 -8.97945e-12)
(489.049 3.67249 1.46014e-11)
(488.901 4.30031 -1.51626e-11)
(488.794 4.31965 -1.5476e-11)
(488.61 5.1937 -1.77862e-12)
(488.492 4.92682 -2.124e-12)
(488.273 6.08985 1.16523e-11)
(488.14 5.51229 7.2798e-12)
(487.894 6.95424 -4.0063e-12)
(487.732 6.12643 -1.60528e-11)
(487.485 7.68219 9.06302e-12)
(487.249 6.92437 3.62744e-11)
(487.065 8.14455 3.79017e-12)
(486.689 7.91393 -1.76797e-11)
(486.626 8.42824 2.2635e-13)
(486.049 9.023 -1.01741e-11)
(488.997 0.246686 -1.17887e-09)
(488.979 0.721524 3.51492e-10)
(488.954 1.00841 -1.36574e-11)
(488.917 1.56498 -2.35629e-11)
(488.865 1.85574 -6.94104e-12)
(488.807 2.38471 -2.74591e-12)
(488.727 2.73021 -2.03035e-11)
(488.651 3.16828 1.60485e-12)
(488.539 3.62969 -5.29024e-12)
(488.448 3.90852 -2.5828e-11)
(488.302 4.55292 -2.94675e-11)
(488.198 4.60235 -1.9644e-12)
(488.016 5.49438 4.23931e-11)
(487.902 5.25386 -5.03244e-12)
(487.686 6.43968 -4.3705e-11)
(487.558 5.88008 -1.76296e-11)
(487.314 7.35646 -4.21319e-12)
(487.159 6.52695 8.2459e-12)
(486.912 8.15043 6.41258e-11)
(486.688 7.34354 4.29184e-11)
(486.5 8.67463 -3.46783e-11)
(486.138 8.36318 -3.08346e-11)
(486.072 9.0111 1.33808e-11)
(485.509 9.50034 2.69542e-11)
(488.332 0.262224 -1.20038e-09)
(488.315 0.760368 3.15185e-10)
(488.29 1.06783 -3.13919e-11)
(488.254 1.6521 -2.74782e-11)
(488.203 1.96208 3.89473e-12)
(488.147 2.52031 2.38424e-11)
(488.068 2.88348 -1.68588e-11)
(487.993 3.35192 -1.70398e-11)
(487.884 3.82976 -8.77407e-12)
(487.795 4.13934 -1.47216e-11)
(487.651 4.79973 -4.08373e-11)
(487.551 4.8789 -3.32994e-11)
(487.372 5.78818 2.346e-11)
(487.262 5.57389 2.58303e-11)
(487.048 6.78139 6.867e-12)
(486.926 6.24005 5.72742e-12)
(486.683 7.7489 -4.94579e-13)
(486.537 6.91981 -8.40548e-12)
(486.288 8.60665 2.20378e-11)
(486.077 7.75365 2.00983e-11)
(485.885 9.19383 -4.6046e-11)
(485.538 8.80003 -2.76538e-11)
(485.468 9.58155 3.10456e-11)
(484.92 9.96554 2.35407e-11)
(487.615 0.277392 -1.19977e-09)
(487.598 0.798265 3.40195e-10)
(487.573 1.12578 2.09692e-12)
(487.538 1.73711 2.63485e-11)
(487.489 2.06576 2.71943e-11)
(487.434 2.65261 1.97804e-11)
(487.356 3.03289 -9.42513e-12)
(487.284 3.53108 6.44184e-12)
(487.177 4.02478 3.10443e-11)
(487.091 4.36455 -2.95331e-12)
(486.95 5.04033 -5.69348e-11)
(486.853 5.14882 -3.68441e-11)
(486.677 6.07463 -8.73796e-12)
(486.571 5.88641 -2.48317e-11)
(486.36 7.11458 -3.43768e-11)
(486.243 6.59176 -1.90703e-11)
(486.003 8.13133 -1.72428e-11)
(485.864 7.30413 -1.22017e-11)
(485.616 9.05 3.47155e-11)
(485.416 8.15443 4.84849e-11)
(485.221 9.70073 -2.75582e-12)
(484.889 9.2252 -1.34498e-11)
(484.815 10.1401 1.98694e-11)
(484.283 10.4173 2.73735e-11)
(486.846 0.292167 -1.21335e-09)
(486.829 0.835159 3.27919e-10)
(486.805 1.18218 -1.80776e-11)
(486.771 1.81987 2.01274e-13)
(486.722 2.16662 -4.88341e-12)
(486.669 2.78139 -2.26947e-11)
(486.593 3.17818 -5.5064e-11)
(486.523 3.70546 -4.34677e-11)
(486.418 4.21438 -2.70783e-11)
(486.335 4.58375 -2.69873e-11)
(486.197 5.27428 -4.42989e-11)
(486.104 5.41164 -3.26222e-11)
(485.93 6.35324 -1.25918e-11)
(485.829 6.1909 -3.24013e-11)
(485.621 7.43874 -5.18331e-11)
(485.51 6.93472 -4.1589e-11)
(485.273 8.50338 -4.58549e-12)
(485.141 7.67932 2.79945e-11)
(484.894 9.47996 7.39572e-11)
(484.707 8.54552 7.47953e-11)
(484.507 10.1949 1.80258e-11)
(484.191 9.63823 -2.30613e-12)
(484.113 10.6859 2.78972e-11)
(483.597 10.8553 3.14017e-11)
(486.024 0.306511 -1.23598e-09)
(486.008 0.870972 3.40045e-10)
(485.984 1.2369 1.08159e-11)
(485.951 1.90023 4.86355e-12)
(485.903 2.26446 2.08941e-11)
(485.852 2.90643 2.63331e-11)
(485.778 3.3191 -3.39121e-11)
(485.71 3.87477 -4.80116e-11)
(485.607 4.39824 -9.51777e-12)
(485.527 4.79659 1.15996e-11)
(485.392 5.50114 -3.09546e-11)
(485.303 5.66687 -3.18116e-12)
(485.133 6.62348 3.72925e-11)
(485.037 6.48677 -1.20342e-11)
(484.832 7.75332 -6.7412e-12)
(484.726 7.26829 1.7709e-11)
(484.492 8.8645 -9.39562e-12)
(484.368 8.04485 -3.43239e-11)
(484.122 9.89614 2.4505e-11)
(483.947 8.92648 4.81944e-11)
(483.745 10.6759 -3.4723e-11)
(483.445 10.0388 -3.02261e-11)
(483.361 11.2183 1.54549e-11)
(482.863 11.279 -5.191e-12)
(485.149 0.320392 -1.2231e-09)
(485.133 0.905623 3.52698e-10)
(485.111 1.2898 1.05127e-11)
(485.078 1.978 3.88179e-11)
(485.032 2.35905 3.92164e-11)
(484.982 3.02749 -1.10481e-11)
(484.911 3.45535 -7.96891e-11)
(484.845 4.03871 -5.73804e-11)
(484.745 4.57603 -2.77984e-11)
(484.668 5.00269 -1.92837e-11)
(484.536 5.72052 -3.09331e-11)
(484.451 5.91406 -7.27724e-12)
(484.284 6.88488 2.85169e-11)
(484.193 6.77345 1.36617e-11)
(483.992 8.05773 1.19995e-11)
(483.893 7.59182 2.18809e-11)
(483.661 9.21413 2.84517e-11)
(483.545 8.40004 -1.03531e-11)
(483.301 10.2981 -3.67203e-12)
(483.138 9.29692 1.62177e-11)
(482.933 11.1431 -3.48853e-11)
(482.649 10.4268 -4.28771e-11)
(482.561 11.737 -1.09384e-11)
(482.081 11.6879 3.38926e-12)
(484.222 0.333766 -1.24903e-09)
(484.207 0.939019 3.07001e-10)
(484.185 1.34074 -1.26892e-11)
(484.153 2.05301 3.90006e-11)
(484.109 2.45016 1.63443e-11)
(484.06 3.1443 -1.11444e-11)
(483.991 3.58665 -5.66869e-11)
(483.928 4.19696 -1.4668e-11)
(483.831 4.74741 3.45282e-11)
(483.757 5.2017 1.8425e-11)
(483.628 5.93204 -1.63827e-11)
(483.547 6.1528 -2.06141e-11)
(483.384 7.13695 -1.48834e-11)
(483.298 7.05042 -8.38901e-12)
(483.101 8.35142 7.05589e-12)
(483.008 7.90464 2.17256e-13)
(482.781 9.55165 -1.62047e-11)
(482.672 8.7441 -3.21111e-11)
(482.431 10.6856 4.08804e-11)
(482.279 9.65645 7.16204e-11)
(482.072 11.5954 -1.2722e-12)
(481.804 10.8015 -3.45549e-11)
(481.712 12.2413 -2.47968e-11)
(481.25 12.0818 7.90263e-12)
(483.242 0.346599 -1.25964e-09)
(483.227 0.971078 3.09478e-10)
(483.206 1.38959 -1.3052e-11)
(483.176 2.12505 4.44186e-11)
(483.133 2.53757 2.64818e-11)
(483.086 3.25657 -5.90877e-12)
(483.019 3.71268 -5.71983e-11)
(482.959 4.3492 -6.45779e-11)
(482.864 4.91203 -1.48681e-11)
(482.794 5.39327 2.37022e-11)
(482.669 6.13531 -6.25129e-12)
(482.592 6.3827 -1.07984e-11)
(482.433 7.3793 -4.23444e-12)
(482.352 7.31722 1.02178e-12)
(482.159 8.63387 1.73541e-11)
(482.073 8.20614 4.79628e-12)
(481.849 9.87643 -1.12546e-11)
(481.749 9.07618 -2.36384e-11)
(481.51 11.0584 5.12504e-11)
(481.369 10.0047 8.09751e-11)
(481.161 12.032 8.76445e-12)
(480.91 11.1626 -2.59206e-11)
(480.814 12.7308 -1.02962e-11)
(480.37 12.4602 -1.93386e-11)
(482.21 0.358856 -1.27491e-09)
(482.195 1.00172 3.51843e-10)
(482.174 1.43621 1.16813e-11)
(482.145 2.19396 1.13805e-12)
(482.104 2.62104 -2.84292e-11)
(482.059 3.36407 -2.18882e-11)
(481.994 3.83314 -3.22708e-11)
(481.937 4.49509 -4.93384e-11)
(481.846 5.06952 -9.73489e-12)
(481.779 5.57702 1.40772e-11)
(481.657 6.32996 -3.20934e-11)
(481.585 6.60336 4.33274e-12)
(481.43 7.6115 5.41214e-11)
(481.355 7.57341 -3.58995e-12)
(481.166 8.90462 -5.14533e-11)
(481.086 8.49579 -1.88216e-11)
(480.867 10.1879 4.5669e-12)
(480.775 9.39553 -1.94203e-11)
(480.54 11.4159 4.60622e-11)
(480.41 10.3411 6.77867e-11)
(480.201 12.4518 -1.73587e-11)
(479.967 11.5092 -1.22623e-11)
(479.867 13.2043 4.02194e-11)
(479.442 12.8225 1.37882e-11)
(481.124 0.370516 -1.25207e-09)
(481.11 1.0309 3.77723e-10)
(481.09 1.48053 2.67844e-11)
(481.062 2.25961 1.22412e-11)
(481.022 2.7004 -2.30264e-11)
(480.98 3.46654 -2.22282e-11)
(480.918 3.94776 -3.79971e-11)
(480.863 4.63432 -6.7716e-12)
(480.775 5.21953 2.77808e-11)
(480.712 5.75257 -6.24546e-12)
(480.594 6.51558 -5.90208e-11)
(480.527 6.8144 -2.60724e-11)
(480.376 7.83317 1.67542e-11)
(480.306 7.81859 6.56847e-12)
(480.122 9.16329 8.67364e-12)
(480.049 8.77314 3.01755e-11)
(479.834 10.4856 -6.38595e-12)
(479.75 9.70162 -3.90031e-11)
(479.519 11.7577 1.87315e-11)
(479.4 10.6651 3.98879e-11)
(479.191 12.8542 -1.21619e-12)
(478.974 11.8404 -2.83231e-12)
(478.87 13.6606 4.56482e-11)
(478.466 13.168 1.38336e-11)
(479.986 0.381558 -1.25464e-09)
(479.972 1.05857 3.49685e-10)
(479.953 1.52246 -3.2127e-11)
(479.926 2.32189 2.39343e-11)
(479.888 2.7755 3.97416e-12)
(479.848 3.56381 -2.80535e-11)
(479.788 4.05628 -2.21999e-11)
(479.737 4.76658 -2.8969e-11)
(479.652 5.3617 -3.24368e-11)
(479.593 5.91954 1.04492e-11)
(479.479 6.69175 -2.01646e-11)
(479.416 7.01539 -2.57629e-11)
(479.27 8.04386 3.9702e-11)
(479.206 8.05236 -3.53559e-12)
(479.026 9.40944 -4.24092e-11)
(478.96 9.03777 -1.05995e-13)
(478.75 10.7691 -1.76437e-11)
(478.675 9.9939 -2.95416e-11)
(478.448 12.0832 4.74823e-11)
(478.34 10.9759 3.54262e-11)
(478.131 13.2387 -4.07376e-11)
(477.931 12.1555 -2.27059e-11)
(477.825 14.0983 -1.38853e-11)
(477.441 13.4961 -2.12e-11)
(478.795 0.391975 -1.32028e-09)
(478.781 1.0847 3.27011e-10)
(478.763 1.56196 -3.25553e-11)
(478.738 2.38072 -5.50498e-12)
(478.701 2.84625 4.49387e-12)
(478.663 3.65572 -5.1938e-12)
(478.606 4.15852 -3.38309e-11)
(478.558 4.89164 -1.19574e-11)
(478.476 5.49575 1.29746e-11)
(478.421 6.07759 2.21051e-11)
(478.311 6.85808 1.43431e-11)
(478.254 7.20591 -1.99284e-11)
(478.112 8.24315 1.14407e-11)
(478.054 8.27428 -8.83949e-12)
(477.879 9.64268 -1.94758e-11)
(477.82 9.28927 -5.26893e-12)
(477.615 11.0381 -3.27983e-13)
(477.548 10.2719 5.9365e-12)
(477.326 12.3921 5.95202e-11)
(477.229 11.2728 6.60831e-11)
(477.022 13.6047 -4.09626e-11)
(476.837 12.4542 -4.82045e-11)
(476.729 14.5168 -1.36254e-11)
(476.365 13.8068 -5.60802e-12)
(477.552 0.40175 -1.28748e-09)
(477.538 1.10927 3.81659e-10)
(477.521 1.59899 2.35613e-11)
(477.496 2.43606 6.81397e-12)
(477.462 2.91254 -2.91376e-11)
(477.426 3.74218 -3.51387e-11)
(477.371 4.25433 -5.14736e-11)
(477.326 5.00931 -1.81344e-11)
(477.248 5.62143 1.30765e-11)
(477.197 6.22642 3.41033e-11)
(477.092 7.01421 -2.05825e-11)
(477.039 7.38554 -4.22678e-11)
(476.902 8.43059 1.23645e-13)
(476.851 8.48388 -1.41835e-11)
(476.681 9.86256 -1.37968e-11)
(476.629 9.5272 1.08824e-11)
(476.429 11.2922 2.93795e-11)
(476.37 10.5353 4.25676e-11)
(476.153 12.6841 4.81518e-11)
(476.067 11.5549 1.46186e-11)
(475.862 13.9508 -2.90971e-11)
(475.695 12.7367 -2.7546e-11)
(475.583 14.9174 2.1337e-11)
(475.239 14.1006 4.21247e-11)
(476.255 0.410875 -1.28247e-09)
(476.242 1.13224 3.51552e-10)
(476.225 1.63351 -5.17484e-11)
(476.202 2.48782 4.27005e-13)
(476.17 2.97432 4.11492e-11)
(476.136 3.82309 1.54418e-12)
(476.084 4.34361 -6.38659e-11)
(476.042 5.11947 -1.83206e-11)
(475.967 5.73857 -2.24097e-11)
(475.921 6.36581 -4.22159e-11)
(475.819 7.15987 -2.04941e-11)
(475.772 7.55397 2.74749e-11)
(475.64 8.60577 2.51542e-11)
(475.595 8.68073 -2.53746e-11)
(475.43 10.0686 -7.89356e-12)
(475.386 9.75111 3.31614e-11)
(475.191 11.531 4.78627e-12)
(475.141 10.7835 -2.28308e-11)
(474.929 12.959 6.11989e-11)
(474.853 11.8213 4.16737e-11)
(474.651 14.276 -4.77729e-11)
(474.501 13.0027 -3.30988e-11)
(474.387 15.2989 3.33408e-11)
(474.064 14.3763 1.52182e-11)
(474.905 0.41933 -1.34988e-09)
(474.893 1.15359 3.26968e-10)
(474.877 1.66544 -4.01202e-11)
(474.855 2.53595 -1.2393e-11)
(474.824 3.03149 -6.04318e-12)
(474.793 3.89835 -2.35622e-11)
(474.744 4.42625 -5.2538e-11)
(474.705 5.222 -3.08873e-11)
(474.634 5.84703 -9.96689e-12)
(474.592 6.49562 -5.65782e-12)
(474.495 7.29484 -1.42707e-11)
(474.453 7.71093 1.01324e-11)
(474.326 8.76835 3.84288e-11)
(474.287 8.86442 9.59258e-12)
(474.128 10.2604 -1.6699e-12)
(474.091 9.96047 1.05834e-11)
(473.902 11.7539 1.12369e-11)
(473.861 11.0162 1.03168e-11)
(473.653 13.2164 6.81963e-11)
(473.589 12.0716 7.50803e-11)
(473.39 14.5796 2.14096e-11)
(473.257 13.2517 -5.52496e-11)
(473.14 15.6602 -2.82658e-11)
(472.839 14.633 -1.24646e-11)
(473.503 0.4271 -1.28362e-09)
(473.491 1.17326 3.92423e-10)
(473.476 1.69475 1.38825e-12)
(473.456 2.58037 2.71012e-11)
(473.427 3.08397 2.4832e-11)
(473.397 3.96789 1.98262e-12)
(473.351 4.50217 -3.46111e-11)
(473.315 5.31682 -1.84628e-11)
(473.248 5.94674 -3.43261e-12)
(473.21 6.61577 -5.26666e-12)
(473.117 7.41901 -2.04957e-11)
(473.081 7.85629 -7.73108e-12)
(472.959 8.91812 1.37326e-11)
(472.926 9.03467 -1.40901e-11)
(472.773 10.4374 -4.02491e-11)
(472.743 10.1548 -3.60063e-11)
(472.561 11.9605 -4.07179e-11)
(472.528 11.2328 2.14871e-11)
(472.326 13.4558 6.91608e-11)
(472.273 12.3055 6.46332e-11)
(472.078 14.8613 8.86876e-12)
(471.961 13.483 -1.65326e-11)
(471.842 16.0007 9.63671e-12)
(471.563 14.8708 1.59057e-11)
(472.048 0.434168 -1.30887e-09)
(472.036 1.19124 3.66916e-10)
(472.022 1.72138 -3.60028e-11)
(472.003 2.621 2.68427e-11)
(471.976 3.13167 1.29493e-11)
(471.949 4.03159 -2.45034e-11)
(471.905 4.57125 -2.26112e-11)
(471.873 5.40383 -2.49893e-11)
(471.809 6.0376 -2.23854e-11)
(471.775 6.72616 2.05726e-11)
(471.687 7.5323 -1.399e-11)
(471.656 7.98998 -1.36107e-11)
(471.539 9.05493 5.31658e-11)
(471.513 9.19132 4.40208e-12)
(471.365 10.5995 -3.41192e-11)
(471.344 10.3338 1.16004e-11)
(471.167 12.1503 -8.12125e-12)
(471.144 11.4327 -2.54037e-11)
(470.948 13.6768 6.98536e-11)
(470.905 12.5223 5.36841e-11)
(470.714 15.1212 -3.07165e-11)
(470.614 13.6972 -5.1985e-12)
(470.493 16.3188 1.01188e-11)
(470.237 15.0882 -6.80459e-12)
(470.54 0.440524 -1.36785e-09)
(470.529 1.20749 3.69189e-10)
(470.516 1.74528 1.20265e-12)
(470.498 2.6578 -1.37384e-11)
(470.472 3.17454 1.96716e-11)
(470.448 4.08939 2.22734e-11)
(470.407 4.63341 -6.16308e-11)
(470.378 5.48294 -1.86462e-11)
(470.318 6.11952 2.31365e-11)
(470.288 6.82675 -1.76641e-11)
(470.204 7.63466 -7.4701e-12)
(470.178 8.11196 3.74118e-11)
(470.067 9.17877 2.10072e-11)
(470.047 9.33434 1.07895e-11)
(469.905 10.7464 1.90001e-11)
(469.891 10.4972 -1.87161e-11)
(469.721 12.3229 -1.71555e-12)
(469.706 11.6154 2.18677e-11)
(469.517 13.8788 3.67638e-11)
(469.485 12.7211 6.00646e-11)
(469.3 15.3597 2.2969e-11)
(469.214 13.8946 -3.4427e-11)
(469.092 16.614 1.69018e-11)
(468.858 15.2851 4.01878e-11)
(468.979 0.446167 -1.33924e-09)
(468.968 1.22202 4.0882e-10)
(468.956 1.76646 3.27753e-11)
(468.939 2.69074 2.11317e-11)
(468.916 3.21253 -1.83146e-11)
(468.893 4.14124 -1.87114e-11)
(468.855 4.68859 -2.97153e-11)
(468.83 5.55408 7.88346e-12)
(468.773 6.19241 4.98408e-11)
(468.748 6.91743 1.57242e-11)
(468.669 7.72599 -4.74438e-11)
(468.648 8.22219 -7.06352e-12)
(468.542 9.28958 4.85374e-11)
(468.528 9.46374 3.63493e-11)
(468.392 10.8783 3.92528e-11)
(468.386 10.6451 -2.66181e-13)
(468.221 12.4781 -5.00775e-11)
(468.216 11.7805 -2.09298e-11)
(468.033 14.0612 5.11014e-11)
(468.013 12.9011 7.27548e-11)
(467.832 15.5763 4.35946e-11)
(467.762 14.0754 -2.31831e-11)
(467.638 16.8855 -3.73475e-11)
(467.428 15.4609 -7.25716e-12)
(467.366 0.451101 -1.40668e-09)
(467.355 1.23483 3.36993e-10)
(467.344 1.78493 -5.15402e-11)
(467.328 2.71984 -2.78708e-11)
(467.307 3.24567 -1.8039e-11)
(467.286 4.18713 -3.96878e-11)
(467.251 4.73677 -7.66331e-11)
(467.229 5.6172 -6.02563e-11)
(467.176 6.2562 -3.66868e-11)
(467.155 6.99813 -3.06952e-11)
(467.08 7.8062 -4.74791e-11)
(467.065 8.32057 -2.63666e-11)
(466.964 9.3873 1.68332e-12)
(466.957 9.57952 -2.78189e-11)
(466.826 10.995 -5.01999e-11)
(466.827 10.7774 -3.81679e-11)
(466.669 12.6161 -4.352e-11)
(466.673 11.928 -3.98169e-11)
(466.496 14.2238 1.00162e-11)
(466.487 13.0617 1.88426e-11)
(466.313 15.7704 -4.69197e-11)
(466.257 14.239 -5.9653e-11)
(466.133 17.133 -3.04229e-11)
(465.946 15.6152 -1.91226e-11)
(465.699 0.45534 -1.35059e-09)
(465.689 1.24596 3.78288e-10)
(465.678 1.80074 -3.92766e-11)
(465.664 2.74516 3.6261e-11)
(465.644 3.274 2.21436e-11)
(465.626 4.22712 -1.89964e-11)
(465.594 4.77799 -1.0252e-11)
(465.575 5.67231 -1.21849e-11)
(465.526 6.31088 -9.44283e-12)
(465.509 7.06878 4.42903e-11)
(465.439 7.87519 7.42494e-12)
(465.429 8.40701 6.65378e-13)
(465.333 9.47179 7.83516e-11)
(465.332 9.68157 2.45265e-11)
(465.207 11.0966 -1.5549e-11)
(465.216 10.8943 -2.54069e-11)
(465.064 12.7368 -5.09404e-11)
(465.077 12.0582 -2.56178e-12)
(464.906 14.3669 3.21208e-11)
(464.908 13.2029 1.94731e-11)
(464.74 15.9417 2.51696e-12)
(464.698 14.3842 -3.56973e-11)
(464.576 17.3554 -3.03793e-11)
(464.412 15.7481 2.40544e-11)
(463.98 0.458892 -1.35241e-09)
(463.969 1.25543 3.88988e-10)
(463.96 1.81393 -3.34869e-11)
(463.947 2.76674 4.37267e-11)
(463.929 3.2976 2.93047e-11)
(463.913 4.26128 -1.23141e-11)
(463.884 4.81232 -3.99559e-12)
(463.868 5.71948 -5.25432e-12)
(463.822 6.35648 -2.5417e-12)
(463.81 7.12941 -1.69215e-11)
(463.744 7.93293 -5.47868e-11)
(463.739 8.48142 1.46218e-11)
(463.648 9.54293 2.33128e-11)
(463.654 9.76976 -2.81851e-11)
(463.535 11.1828 -1.79843e-12)
(463.552 10.9956 -1.25738e-11)
(463.406 12.8403 -3.74344e-11)
(463.428 12.1712 9.94446e-12)
(463.263 14.4906 4.74814e-11)
(463.276 13.3248 3.25719e-11)
(463.113 16.0905 1.65059e-11)
(463.086 14.5098 -2.40199e-11)
(462.967 17.551 -9.3052e-12)
(462.826 15.8595 4.30985e-11)
(462.207 0.461771 -1.37967e-09)
(462.197 1.26326 4.38588e-10)
(462.189 1.82454 -7.11444e-12)
(462.177 2.78466 -1.46269e-11)
(462.161 3.31654 2.95748e-11)
(462.147 4.28969 4.49043e-11)
(462.12 4.83984 -3.19445e-11)
(462.107 5.75881 -5.47605e-11)
(462.065 6.39308 4.55227e-12)
(462.057 7.18006 4.61139e-11)
(461.996 7.97944 -5.7232e-12)
(461.996 8.54377 -1.91186e-11)
(461.911 9.60063 4.52097e-11)
(461.923 9.84394 4.57031e-11)
(461.81 11.2535 -1.60229e-11)
(461.834 11.0812 -3.8952e-11)
(461.695 12.9264 -9.17592e-12)
(461.726 12.2669 2.26483e-11)
(461.567 14.595 4.86285e-11)
(461.591 13.4279 2.05706e-11)
(461.434 16.2176 -1.28194e-11)
(461.42 14.6146 -5.66256e-12)
(461.304 17.7183 -1.90466e-12)
(461.186 15.9493 -2.53168e-11)
(460.382 0.463979 -1.41579e-09)
(460.372 1.26947 3.71309e-10)
(460.364 1.8326 -4.12056e-11)
(460.354 2.79893 -2.97141e-11)
(460.339 3.33086 -3.16474e-11)
(460.328 4.31242 -6.39308e-11)
(460.303 4.86065 -3.96738e-11)
(460.293 5.79038 3.78286e-11)
(460.255 6.42079 5.38924e-11)
(460.251 7.22086 5.37919e-11)
(460.194 8.01481 2.27219e-11)
(460.2 8.59415 2.95949e-11)
(460.12 9.64487 5.32511e-11)
(460.138 9.90407 1.21844e-11)
(460.031 11.3085 -2.33602e-11)
(460.063 11.1508 -2.57838e-11)
(459.93 12.9947 -3.86503e-11)
(459.971 12.345 -4.28515e-11)
(459.818 14.68 -1.80612e-12)
(459.853 13.5122 1.8708e-12)
(459.701 16.3233 -6.05176e-12)
(459.701 14.6996 2.5845e-11)
(459.588 17.8573 5.71475e-11)
(459.493 16.0167 5.0621e-11)
(458.503 0.465524 -1.45227e-09)
(458.493 1.27408 3.82159e-10)
(458.487 1.83812 -7.89426e-12)
(458.477 2.80958 -3.71469e-11)
(458.464 3.34061 -1.10273e-11)
(458.455 4.3295 -1.28692e-11)
(458.433 4.87478 -3.34904e-11)
(458.426 5.81426 2.00048e-12)
(458.392 6.43968 -3.0274e-11)
(458.391 7.2519 -2.37031e-12)
(458.339 8.03913 1.60115e-12)
(458.349 8.63265 -3.263e-11)
(458.275 9.67575 1.7962e-11)
(458.299 9.95019 5.57312e-12)
(458.199 11.3477 -1.88166e-12)
(458.238 11.2044 2.11182e-11)
(458.111 13.0451 -3.16261e-11)
(458.161 12.4052 -1.037e-11)
(458.015 14.745 6.54523e-11)
(458.062 13.5772 1.51443e-11)
(457.915 16.4074 -3.64926e-11)
(457.929 14.7649 -3.18697e-11)
(457.819 17.9689 2.01182e-11)
(457.745 16.0623 3.80483e-11)
(456.57 0.466396 -1.39165e-09)
(456.561 1.27706 4.09057e-10)
(456.555 1.8411 -2.90211e-11)