/*--------------------------------*- C++ -*----------------------------------*\
  =========                 |
  \\      /  F ield         | OpenFOAM: The Open Source CFD Toolbox
   \\    /   O peration     | Website:  https://openfoam.org
    \\  /    A nd           | Version:  10
     \\/     M anipulation  |
\*---------------------------------------------------------------------------*/
FoamFile
{
    format      ascii;
    class       volScalarField;
    location    "0.15";
    object      Ma;
}
// * * * * * * * * * * * * * * * * * * * * * * * * * * * * * * * * * * * * * //

dimensions      [0 0 0 0 0 0 0];

internalField   nonuniform List<scalar> 
4176
(
1.84491
1.84484
1.84464
1.8444
1.84399
1.8436
1.84296
1.84245
1.84158
1.84094
1.83984
1.83908
1.83776
1.83686
1.8354
1.83426
1.83281
1.83126
1.82995
1.82783
1.82688
1.82395
1.82377
1.81997
1.8448
1.84472
1.84452
1.84427
1.84386
1.84345
1.84281
1.84227
1.84139
1.84073
1.83961
1.83882
1.83748
1.83656
1.83506
1.8339
1.8324
1.83083
1.82947
1.82731
1.82637
1.82331
1.82308
1.81891
1.84445
1.84437
1.84418
1.84393
1.84354
1.84313
1.84252
1.84198
1.84113
1.84047
1.83939
1.83862
1.83731
1.83641
1.83493
1.83381
1.83232
1.8308
1.82947
1.82737
1.82647
1.82347
1.82325
1.81894
1.8438
1.84373
1.84354
1.84329
1.84289
1.84249
1.84187
1.84134
1.84049
1.83984
1.83874
1.83798
1.83666
1.83577
1.83427
1.83317
1.83166
1.83011
1.82886
1.82668
1.82582
1.82287
1.82268
1.81856
1.84286
1.84279
1.8426
1.84236
1.84196
1.84157
1.84096
1.84043
1.83959
1.83895
1.83787
1.83712
1.83581
1.83494
1.83344
1.83236
1.83084
1.82932
1.82809
1.82591
1.82506
1.82214
1.82194
1.81796
1.84162
1.84154
1.84136
1.84111
1.84073
1.84033
1.83973
1.8392
1.83838
1.83773
1.83667
1.83592
1.83463
1.83376
1.83228
1.83122
1.82967
1.82823
1.82692
1.82481
1.82393
1.82105
1.82081
1.81683
1.84007
1.84
1.83982
1.83958
1.83919
1.8388
1.83821
1.83769
1.83687
1.83624
1.83519
1.83445
1.83317
1.83231
1.83084
1.82981
1.82826
1.82688
1.82552
1.82348
1.82258
1.81974
1.81947
1.81552
1.83823
1.83815
1.83798
1.83774
1.83736
1.83697
1.83639
1.83587
1.83507
1.83444
1.8334
1.83267
1.83141
1.83057
1.82911
1.8281
1.82655
1.82522
1.82383
1.82186
1.82093
1.81813
1.81786
1.81396
1.83609
1.83601
1.83584
1.8356
1.83523
1.83485
1.83427
1.83376
1.83297
1.83235
1.83133
1.83061
1.82936
1.82853
1.82709
1.8261
1.82456
1.82328
1.82187
1.81997
1.81901
1.81628
1.81598
1.81214
1.83365
1.83357
1.8334
1.83317
1.8328
1.83242
1.83186
1.83136
1.83058
1.82996
1.82896
1.82825
1.82702
1.82621
1.82479
1.82382
1.82229
1.82105
1.81963
1.8178
1.81682
1.81414
1.81383
1.81006
1.83091
1.83084
1.83067
1.83044
1.83008
1.82971
1.82915
1.82866
1.82789
1.82729
1.8263
1.8256
1.8244
1.8236
1.8222
1.82125
1.81974
1.81854
1.81711
1.81535
1.81434
1.81176
1.81142
1.80772
1.82788
1.82781
1.82764
1.82741
1.82706
1.8267
1.82615
1.82566
1.82491
1.82432
1.82335
1.82267
1.82148
1.8207
1.81932
1.8184
1.8169
1.81574
1.81431
1.81262
1.8116
1.80908
1.80874
1.80511
1.82456
1.82448
1.82432
1.8241
1.82375
1.82339
1.82285
1.82238
1.82164
1.82106
1.82011
1.81944
1.81828
1.81752
1.81616
1.81526
1.81379
1.81267
1.81124
1.80962
1.80859
1.80614
1.80579
1.80224
1.82094
1.82087
1.8207
1.82049
1.82015
1.8198
1.81927
1.81881
1.81808
1.81752
1.81658
1.81593
1.81479
1.81405
1.81272
1.81185
1.8104
1.80931
1.80789
1.80633
1.80529
1.80293
1.80258
1.7991
1.81703
1.81696
1.8168
1.81659
1.81625
1.81591
1.8154
1.81495
1.81423
1.81369
1.81277
1.81214
1.81102
1.8103
1.80899
1.80815
1.80673
1.80568
1.80427
1.80278
1.80174
1.79944
1.7991
1.79571
1.81283
1.81276
1.8126
1.81239
1.81207
1.81174
1.81123
1.81079
1.8101
1.80957
1.80867
1.80806
1.80696
1.80626
1.80499
1.80417
1.80278
1.80177
1.80038
1.79895
1.7979
1.7957
1.79535
1.79204
1.80834
1.80827
1.80812
1.80791
1.8076
1.80727
1.80678
1.80636
1.80568
1.80517
1.80429
1.8037
1.80263
1.80195
1.80071
1.79992
1.79855
1.79759
1.79622
1.79485
1.79381
1.79168
1.79133
1.78811
1.80356
1.80349
1.80334
1.80314
1.80284
1.80252
1.80205
1.80163
1.80098
1.80048
1.79963
1.79906
1.79802
1.79736
1.79615
1.79539
1.79406
1.79313
1.79178
1.79048
1.78944
1.7874
1.78704
1.78392
1.79849
1.79842
1.79828
1.79809
1.79779
1.79749
1.79703
1.79663
1.79599
1.79551
1.79469
1.79413
1.79312
1.7925
1.79132
1.79059
1.78929
1.7884
1.78708
1.78584
1.78481
1.78285
1.7825
1.77947
1.79313
1.79307
1.79293
1.79275
1.79246
1.79217
1.79172
1.79134
1.79072
1.79026
1.78946
1.78893
1.78795
1.78736
1.78621
1.78552
1.78425
1.7834
1.78211
1.78094
1.77992
1.77804
1.77768
1.77475
1.7875
1.78743
1.7873
1.78712
1.78684
1.78657
1.78613
1.78577
1.78517
1.78473
1.78396
1.78346
1.78251
1.78194
1.78083
1.78017
1.77894
1.77813
1.77688
1.77577
1.77476
1.77297
1.77261
1.76978
1.78158
1.78152
1.78139
1.78122
1.78095
1.78068
1.78027
1.77992
1.77934
1.77892
1.77818
1.7777
1.77679
1.77625
1.77518
1.77456
1.77336
1.7726
1.77138
1.77033
1.76934
1.76763
1.76728
1.76454
1.77538
1.77532
1.77519
1.77503
1.77478
1.77452
1.77412
1.77379
1.77324
1.77285
1.77213
1.77168
1.7708
1.77029
1.76925
1.76867
1.76752
1.7668
1.76562
1.76463
1.76366
1.76204
1.76169
1.75906
1.7689
1.76884
1.76872
1.76857
1.76832
1.76808
1.7677
1.76739
1.76686
1.76649
1.7658
1.76538
1.76453
1.76406
1.76306
1.76252
1.76141
1.76073
1.7596
1.75866
1.75772
1.75619
1.75584
1.75332
1.76215
1.76209
1.76198
1.76183
1.7616
1.76137
1.76101
1.76072
1.76021
1.75987
1.75921
1.75882
1.758
1.75757
1.7566
1.7561
1.75503
1.75441
1.75331
1.75244
1.75152
1.75008
1.74974
1.74733
1.75512
1.75507
1.75496
1.75482
1.7546
1.75439
1.75405
1.75377
1.75329
1.75297
1.75234
1.75198
1.7512
1.7508
1.74988
1.74942
1.74839
1.74781
1.74677
1.74595
1.74506
1.7437
1.74339
1.74107
1.74783
1.74778
1.74768
1.74755
1.74734
1.74714
1.74682
1.74657
1.74611
1.74582
1.74522
1.74489
1.74414
1.74378
1.7429
1.74248
1.74149
1.74096
1.73996
1.7392
1.73834
1.73708
1.73678
1.73457
1.74027
1.74022
1.74013
1.74001
1.73981
1.73963
1.73932
1.73909
1.73866
1.73839
1.73782
1.73753
1.73682
1.73649
1.73565
1.73527
1.73433
1.73385
1.73289
1.73219
1.73138
1.7302
1.72992
1.7278
1.73246
1.73241
1.73232
1.73221
1.73202
1.73185
1.73157
1.73136
1.73095
1.73071
1.73017
1.72991
1.72924
1.72895
1.72815
1.72781
1.72692
1.72649
1.72558
1.72493
1.72416
1.72307
1.72281
1.72079
1.72438
1.72434
1.72425
1.72415
1.72398
1.72382
1.72355
1.72336
1.72298
1.72277
1.72226
1.72203
1.72139
1.72115
1.72039
1.7201
1.71925
1.71887
1.718
1.71742
1.71669
1.71568
1.71543
1.71354
1.71605
1.71601
1.71593
1.71584
1.71568
1.71554
1.71529
1.71512
1.71476
1.71457
1.7141
1.7139
1.7133
1.71309
1.71237
1.71213
1.71133
1.71099
1.71018
1.70965
1.70896
1.70805
1.70781
1.70604
1.70748
1.70743
1.70736
1.70727
1.70713
1.707
1.70677
1.70662
1.70629
1.70613
1.70568
1.70552
1.70495
1.70478
1.70411
1.7039
1.70315
1.70287
1.7021
1.70164
1.70099
1.70015
1.69994
1.69827
1.69865
1.69861
1.69855
1.69847
1.69833
1.69822
1.69801
1.69788
1.69757
1.69743
1.69702
1.69689
1.69636
1.69622
1.69559
1.69543
1.69472
1.6945
1.69378
1.69337
1.69278
1.69202
1.69182
1.69027
1.68959
1.68955
1.68949
1.68942
1.68929
1.6892
1.689
1.68889
1.68861
1.6885
1.68811
1.68801
1.68752
1.68742
1.68683
1.68672
1.68605
1.68587
1.68521
1.68486
1.68431
1.68363
1.68346
1.68202
1.68028
1.68025
1.68019
1.68013
1.68002
1.67994
1.67976
1.67967
1.67941
1.67932
1.67897
1.6789
1.67844
1.67838
1.67783
1.67776
1.67713
1.67701
1.67639
1.67611
1.67561
1.675
1.67485
1.67353
1.67075
1.67071
1.67066
1.67061
1.67051
1.67044
1.67027
1.67021
1.66997
1.66991
1.66958
1.66954
1.66912
1.6691
1.66858
1.66856
1.66798
1.6679
1.66733
1.66711
1.66665
1.66612
1.66601
1.6648
1.66098
1.66095
1.6609
1.66086
1.66077
1.66071
1.66056
1.66052
1.6603
1.66027
1.65997
1.65996
1.65957
1.65958
1.6591
1.65912
1.65858
1.65856
1.65803
1.65787
1.65746
1.657
1.65692
1.65583
1.65099
1.65096
1.65092
1.65088
1.6508
1.65076
1.65062
1.65059
1.6504
1.65039
1.65012
1.65014
1.64978
1.64983
1.64939
1.64946
1.64896
1.64899
1.64849
1.64839
1.64802
1.64764
1.6476
1.64662
1.64078
1.64075
1.64071
1.64068
1.64061
1.64058
1.64046
1.64045
1.64028
1.64029
1.64004
1.6401
1.63977
1.63986
1.63945
1.63956
1.6391
1.63918
1.63873
1.63869
1.63836
1.63805
1.63804
1.63717
1.63035
1.63032
1.63028
1.63026
1.63019
1.63018
1.63008
1.63008
1.62993
1.62997
1.62975
1.62983
1.62953
1.62965
1.62929
1.62944
1.62902
1.62915
1.62874
1.62876
1.62847
1.62822
1.62825
1.62748
1.6197
1.61967
1.61964
1.61962
1.61957
1.61957
1.61948
1.6195
1.61937
1.61943
1.61923
1.61934
1.61908
1.61923
1.6189
1.61909
1.61871
1.61889
1.61852
1.6186
1.61836
1.61818
1.61825
1.61757
1.60884
1.60881
1.60878
1.60877
1.60873
1.60874
1.60866
1.6087
1.60859
1.60867
1.6085
1.60864
1.6084
1.60859
1.60829
1.60852
1.60818
1.60841
1.60808
1.60822
1.60802
1.60792
1.60801
1.60742
1.59777
1.59774
1.59772
1.59772
1.59768
1.5977
1.59764
1.5977
1.5976
1.59771
1.59756
1.59772
1.59752
1.59774
1.59747
1.59775
1.59743
1.59772
1.59742
1.59762
1.59745
1.59743
1.59756
1.59707
1.58649
1.58647
1.58645
1.58645
1.58642
1.58646
1.58641
1.58649
1.58641
1.58653
1.58641
1.5866
1.58642
1.58668
1.58644
1.58676
1.58647
1.58681
1.58654
1.58681
1.58667
1.58672
1.58688
1.58649
1.57501
1.57499
1.57498
1.57499
1.57497
1.57501
1.57498
1.57507
1.57501
1.57516
1.57506
1.57527
1.57513
1.57541
1.5752
1.57556
1.57531
1.57569
1.57546
1.57579
1.57567
1.5758
1.57598
1.57569
1.56333
1.56332
1.56331
1.56332
1.56331
1.56337
1.56335
1.56346
1.56342
1.56358
1.56351
1.56375
1.56363
1.56395
1.56377
1.56416
1.56394
1.56438
1.56417
1.56456
1.56446
1.56468
1.56487
1.56467
1.55147
1.55145
1.55144
1.55147
1.55146
1.55153
1.55153
1.55165
1.55163
1.55181
1.55176
1.55203
1.55193
1.55228
1.55213
1.55257
1.55238
1.55286
1.55268
1.55314
1.55306
1.55335
1.55355
1.55346
1.53941
1.53939
1.53939
1.53942
1.53942
1.5395
1.53951
1.53965
1.53965
1.53985
1.53982
1.54011
1.54004
1.54043
1.5403
1.54078
1.54062
1.54115
1.54099
1.54151
1.54145
1.54183
1.54202
1.54205
1.52717
1.52715
1.52715
1.52719
1.5272
1.52729
1.52731
1.52746
1.52748
1.5277
1.5277
1.52801
1.52797
1.52838
1.52829
1.5288
1.52867
1.52925
1.52911
1.5297
1.52966
1.53012
1.5303
1.53043
1.51474
1.51473
1.51473
1.51478
1.5148
1.5149
1.51493
1.5151
1.51513
1.51538
1.51539
1.51573
1.51571
1.51615
1.51608
1.51664
1.51653
1.51716
1.51704
1.5177
1.51766
1.51821
1.51839
1.51862
1.50216
1.50214
1.50214
1.50219
1.50222
1.50234
1.50238
1.50256
1.50261
1.50287
1.50291
1.50327
1.50327
1.50375
1.5037
1.5043
1.5042
1.50489
1.50479
1.50551
1.50547
1.50612
1.5063
1.50662
1.48939
1.48938
1.48939
1.48944
1.48948
1.4896
1.48966
1.48985
1.48992
1.4902
1.49026
1.49064
1.49066
1.49117
1.49114
1.49178
1.4917
1.49244
1.49235
1.49316
1.49309
1.49384
1.49402
1.49443
1.47648
1.47646
1.47647
1.47653
1.47658
1.47671
1.47678
1.47698
1.47707
1.47736
1.47744
1.47785
1.47789
1.47843
1.47841
1.4791
1.47902
1.47983
1.47973
1.48062
1.48055
1.48137
1.48156
1.48206
1.4634
1.46339
1.4634
1.46347
1.46352
1.46366
1.46374
1.46396
1.46405
1.46437
1.46446
1.46489
1.46494
1.46552
1.46552
1.46625
1.46617
1.46706
1.46693
1.4679
1.46785
1.46873
1.46893
1.46951
1.45018
1.45017
1.45019
1.45026
1.45032
1.45046
1.45055
1.45078
1.45089
1.45122
1.45132
1.45178
1.45185
1.45246
1.45246
1.45325
1.45316
1.45411
1.45399
1.45501
1.45497
1.45591
1.45612
1.45678
1.43682
1.43681
1.43684
1.43691
1.43697
1.43712
1.43722
1.43746
1.43758
1.43793
1.43804
1.43853
1.43859
1.43925
1.43924
1.44008
1.44
1.44099
1.4409
1.44195
1.44194
1.44293
1.44315
1.44388
1.42334
1.42333
1.42335
1.42343
1.4235
1.42365
1.42376
1.42401
1.42414
1.42451
1.42461
1.42515
1.42519
1.42591
1.42588
1.42677
1.4267
1.42772
1.42765
1.42874
1.42875
1.42979
1.43002
1.43082
1.40973
1.40971
1.40975
1.40982
1.4099
1.41005
1.41018
1.41043
1.41056
1.41096
1.41106
1.41162
1.41167
1.41241
1.4124
1.4133
1.41325
1.4143
1.41425
1.41537
1.4154
1.41648
1.41672
1.41759
1.396
1.39599
1.39602
1.39609
1.39618
1.39633
1.39647
1.39673
1.39686
1.39728
1.39738
1.39796
1.39802
1.39877
1.39879
1.3997
1.39968
1.40074
1.40071
1.40186
1.40191
1.40303
1.40328
1.40421
1.38216
1.38215
1.38219
1.38225
1.38235
1.3825
1.38265
1.38291
1.38306
1.38347
1.38359
1.38417
1.38425
1.38501
1.38504
1.38597
1.38596
1.38704
1.38703
1.38821
1.38827
1.38944
1.38969
1.39068
1.36822
1.36821
1.36825
1.36831
1.36841
1.36857
1.36872
1.36897
1.36914
1.36955
1.36969
1.37027
1.37036
1.37112
1.37118
1.37211
1.37213
1.37322
1.37323
1.37443
1.3745
1.3757
1.37597
1.37701
1.35418
1.35416
1.3542
1.35427
1.35437
1.35453
1.35469
1.35494
1.35513
1.35551
1.35568
1.35625
1.35637
1.35713
1.3572
1.35814
1.35817
1.35928
1.3593
1.36052
1.3606
1.36184
1.36211
1.3632
1.34004
1.34003
1.34006
1.34014
1.34024
1.34039
1.34056
1.3408
1.34101
1.34138
1.34157
1.34213
1.34227
1.34303
1.34311
1.34406
1.3441
1.34522
1.34526
1.34649
1.34659
1.34785
1.34812
1.34926
1.32581
1.32579
1.32583
1.3259
1.32601
1.32616
1.32633
1.32657
1.32679
1.32715
1.32736
1.32791
1.32806
1.32882
1.32892
1.32987
1.32993
1.33105
1.33111
1.33235
1.33246
1.33375
1.33402
1.3352
1.31149
1.31147
1.31151
1.31158
1.31169
1.31184
1.31201
1.31225
1.31247
1.31283
1.31306
1.31359
1.31377
1.31452
1.31463
1.31558
1.31566
1.31679
1.31685
1.31811
1.31823
1.31954
1.31982
1.32103
1.29708
1.29706
1.2971
1.29717
1.29727
1.29743
1.2976
1.29784
1.29807
1.29842
1.29866
1.29919
1.29939
1.30012
1.30025
1.30121
1.30129
1.30243
1.30251
1.30378
1.3039
1.30523
1.30551
1.30676
1.28257
1.28255
1.2826
1.28266
1.28277
1.28292
1.2831
1.28334
1.28358
1.28393
1.28418
1.2847
1.28491
1.28565
1.28579
1.28676
1.28685
1.28799
1.28808
1.28935
1.28949
1.29083
1.29112
1.29239
1.26798
1.26796
1.268
1.26807
1.26818
1.26833
1.26852
1.26876
1.269
1.26935
1.26962
1.27013
1.27036
1.2711
1.27125
1.27222
1.27232
1.27347
1.27356
1.27485
1.275
1.27635
1.27664
1.27794
1.2533
1.25328
1.25332
1.25339
1.25351
1.25366
1.25385
1.2541
1.25435
1.2547
1.25499
1.25549
1.25574
1.25647
1.25664
1.25762
1.25772
1.25888
1.25899
1.26028
1.26043
1.2618
1.26208
1.2634
1.23854
1.23851
1.23856
1.23863
1.23875
1.23891
1.23911
1.23936
1.23962
1.23997
1.24028
1.24078
1.24106
1.24178
1.24197
1.24294
1.24305
1.24423
1.24434
1.24563
1.24579
1.24717
1.24745
1.24879
1.2237
1.22368
1.22373
1.2238
1.22393
1.2241
1.2243
1.22456
1.22483
1.22519
1.22552
1.22601
1.22631
1.22702
1.22725
1.2282
1.22833
1.22951
1.22963
1.23092
1.23109
1.23247
1.23276
1.23411
1.20882
1.20879
1.20885
1.20893
1.20906
1.20923
1.20944
1.20971
1.20999
1.21035
1.21069
1.21118
1.21152
1.2122
1.21246
1.2134
1.21355
1.21473
1.21485
1.21615
1.21632
1.2177
1.21799
1.21935
1.19391
1.19389
1.19394
1.19402
1.19416
1.19433
1.19455
1.19482
1.19511
1.19547
1.19582
1.19631
1.19667
1.19734
1.19763
1.19854
1.19874
1.19987
1.20001
1.20132
1.20149
1.20286
1.20315
1.20451
1.17902
1.17899
1.17904
1.17912
1.17925
1.17943
1.17964
1.17991
1.1802
1.18057
1.18092
1.1814
1.18177
1.18242
1.18274
1.18362
1.18385
1.18496
1.18511
1.18641
1.18658
1.18795
1.18823
1.1896
1.16416
1.16414
1.16418
1.16426
1.16438
1.16455
1.16475
1.16501
1.16529
1.16565
1.16599
1.16646
1.16683
1.16746
1.1678
1.16864
1.1689
1.16997
1.17014
1.17143
1.1716
1.17296
1.17323
1.17459
1.14937
1.14935
1.14938
1.14945
1.14956
1.14971
1.1499
1.15013
1.15039
1.15072
1.15105
1.15149
1.15185
1.15245
1.15279
1.15359
1.15387
1.15491
1.15511
1.15635
1.15652
1.15788
1.15814
1.1595
1.13464
1.13462
1.13464
1.13469
1.13479
1.13492
1.13508
1.13529
1.13552
1.13581
1.13611
1.13651
1.13685
1.1374
1.13773
1.13849
1.13877
1.13975
1.13996
1.14118
1.14135
1.14271
1.14295
1.14431
1.11995
1.11991
1.11993
1.11996
1.12004
1.12014
1.12028
1.12045
1.12065
1.12091
1.12117
1.12152
1.12182
1.12233
1.12262
1.12333
1.12359
1.12452
1.12472
1.12591
1.12606
1.12742
1.12765
1.12902
1.10521
1.10516
1.10517
1.1052
1.10525
1.10534
1.10545
1.10559
1.10576
1.10598
1.1062
1.10651
1.10678
1.10723
1.10748
1.10814
1.10834
1.10924
1.10939
1.11054
1.11065
1.112
1.11221
1.1136
1.09031
1.09026
1.09028
1.09028
1.09034
1.0904
1.09051
1.09062
1.09079
1.09097
1.09117
1.09144
1.09168
1.09209
1.09228
1.09294
1.09303
1.09395
1.09398
1.09514
1.09516
1.09649
1.09665
1.098
1.07514
1.07508
1.0751
1.0751
1.07517
1.07522
1.07534
1.07545
1.07561
1.07579
1.07599
1.07625
1.07648
1.07686
1.07703
1.07768
1.07769
1.07864
1.07856
1.07972
1.07965
1.08094
1.08103
1.08229
1.05953
1.05948
1.05949
1.05952
1.05958
1.05967
1.05979
1.05994
1.06012
1.06032
1.06054
1.06082
1.06107
1.06145
1.06167
1.06227
1.06232
1.06322
1.06314
1.06429
1.06416
1.06545
1.06546
1.06666
1.04337
1.04332
1.04335
1.04339
1.04348
1.0436
1.04376
1.04395
1.04417
1.04443
1.0447
1.04504
1.04534
1.04576
1.04606
1.04665
1.04681
1.04769
1.04765
1.04882
1.04867
1.05
1.04996
1.05117
1.02656
1.02652
1.02656
1.02662
1.02675
1.02691
1.02711
1.02736
1.02765
1.02798
1.02833
1.02874
1.02914
1.02965
1.03005
1.03071
1.03099
1.03191
1.03197
1.03322
1.03308
1.03451
1.03443
1.03574
1.00908
1.00904
1.0091
1.00918
1.00934
1.00953
1.0098
1.01009
1.01046
1.01085
1.01132
1.01181
1.01234
1.01295
1.01349
1.01427
1.01468
1.01576
1.01592
1.01734
1.01726
1.01886
1.01878
1.02026
0.990939
0.990892
0.990967
0.991065
0.99125
0.991481
0.991787
0.992137
0.99257
0.993032
0.993585
0.994167
0.994812
0.995533
0.996225
0.997123
0.997738
0.998971
0.999314
1.00093
1.00101
1.00286
1.00284
1.0046
0.9722
0.97216
0.972232
0.972353
0.972547
0.972811
0.973138
0.973539
0.974002
0.974537
0.975133
0.975809
0.976525
0.977353
0.978169
0.979166
0.980014
0.9813
0.981979
0.983702
0.984077
0.986212
0.98636
0.988552
0.952969
0.952933
0.953003
0.953133
0.953334
0.953612
0.953955
0.954376
0.954864
0.955429
0.956062
0.956781
0.95755
0.958435
0.959331
0.960403
0.961396
0.962715
0.963711
0.965415
0.966213
0.968496
0.968948
0.971704
0.93337
0.933334
0.933402
0.933532
0.933734
0.934013
0.934358
0.934783
0.935277
0.935848
0.936492
0.937221
0.938009
0.93891
0.939838
0.940933
0.941983
0.943322
0.944448
0.946125
0.947225
0.949464
0.950245
0.953447
0.913527
0.91349
0.913553
0.913678
0.913874
0.914145
0.914483
0.914897
0.915384
0.915941
0.916578
0.917288
0.91807
0.91895
0.919873
0.920943
0.921992
0.923305
0.92443
0.926078
0.927189
0.929381
0.930209
0.933407
0.893566
0.893524
0.893582
0.893697
0.893883
0.89414
0.894465
0.894857
0.895327
0.895857
0.896472
0.897149
0.897905
0.898743
0.899636
0.900654
0.901669
0.902918
0.903988
0.90558
0.906578
0.908723
0.909422
0.912357
0.873587
0.873541
0.873592
0.873696
0.87387
0.874108
0.874414
0.874781
0.875227
0.875721
0.876308
0.876939
0.877661
0.878442
0.879294
0.880243
0.881211
0.882372
0.883387
0.884876
0.885798
0.887817
0.888456
0.891174
0.853686
0.853632
0.853678
0.853768
0.85393
0.854145
0.854433
0.854767
0.855188
0.85564
0.856196
0.856773
0.857459
0.858175
0.858981
0.859855
0.860768
0.861836
0.862789
0.864172
0.865021
0.866893
0.867492
0.870001
0.833933
0.833871
0.833916
0.833986
0.83414
0.834326
0.834599
0.834894
0.835296
0.835694
0.836228
0.836737
0.837396
0.838031
0.838803
0.839586
0.84045
0.841415
0.842309
0.843584
0.844369
0.846084
0.846649
0.848951
0.81439
0.814322
0.814367
0.814415
0.814564
0.814717
0.81498
0.815228
0.815618
0.815953
0.816475
0.816902
0.817549
0.818084
0.818839
0.819512
0.820343
0.821204
0.822038
0.823197
0.823931
0.825486
0.826021
0.828116
0.795107
0.795036
0.795072
0.79511
0.795241
0.795376
0.795613
0.795833
0.796191
0.796485
0.796971
0.797342
0.797953
0.798411
0.799132
0.799706
0.800502
0.801251
0.802041
0.803077
0.803767
0.805157
0.805668
0.807557
0.776125
0.776052
0.776076
0.776111
0.776215
0.776345
0.776542
0.776752
0.777057
0.777336
0.777759
0.778106
0.778646
0.779068
0.779717
0.780232
0.780964
0.781618
0.782371
0.783267
0.783923
0.785154
0.785644
0.787331
0.757472
0.757399
0.757413
0.757442
0.757525
0.757642
0.757809
0.758
0.758265
0.75852
0.758889
0.759207
0.759682
0.760067
0.760644
0.761107
0.761771
0.76234
0.763053
0.763804
0.764435
0.765512
0.765982
0.767472
0.739178
0.739104
0.739109
0.739131
0.739197
0.739299
0.73944
0.739609
0.739839
0.740064
0.740389
0.740671
0.741092
0.741432
0.741948
0.742353
0.742955
0.743445
0.744106
0.744729
0.745346
0.746264
0.746716
0.748012
0.721259
0.721185
0.721183
0.721196
0.721248
0.721333
0.721453
0.721597
0.721797
0.72199
0.722277
0.72252
0.722893
0.723186
0.723647
0.723992
0.724537
0.724947
0.725556
0.726069
0.726671
0.727424
0.727862
0.728971
0.703734
0.70366
0.703651
0.703657
0.703693
0.703765
0.703862
0.703984
0.704155
0.704318
0.704568
0.704772
0.705101
0.705347
0.705757
0.706044
0.706535
0.706872
0.707427
0.707841
0.708415
0.709018
0.709442
0.710371
0.686613
0.686538
0.686524
0.68652
0.686548
0.686599
0.686682
0.686777
0.686924
0.687056
0.687273
0.68744
0.687728
0.687928
0.68829
0.688522
0.68896
0.689227
0.68973
0.690054
0.69059
0.69105
0.691469
0.692224
0.669905
0.669831
0.669809
0.669805
0.669811
0.66986
0.669912
0.669996
0.670111
0.670218
0.670401
0.670533
0.670782
0.670937
0.671256
0.671433
0.671823
0.672024
0.672478
0.672718
0.67321
0.673543
0.673952
0.674548
0.653616
0.653541
0.653521
0.653496
0.653512
0.653523
0.653582
0.653626
0.653732
0.653803
0.653961
0.654055
0.654269
0.654382
0.654658
0.654784
0.655127
0.655265
0.65567
0.655833
0.65628
0.656502
0.6569
0.657342
0.637752
0.63768
0.637645
0.637636
0.63761
0.637646
0.637652
0.637708
0.637769
0.637828
0.63795
0.638016
0.638194
0.638267
0.638504
0.63858
0.63888
0.638958
0.639319
0.639405
0.639809
0.639934
0.640321
0.640611
0.622313
0.622237
0.622216
0.622167
0.622181
0.622147
0.622195
0.622184
0.622261
0.622272
0.622381
0.622409
0.622558
0.622592
0.622792
0.622823
0.623081
0.623103
0.62342
0.623438
0.6238
0.623837
0.624202
0.624354
0.607301
0.607233
0.607187
0.607172
0.607122
0.607142
0.607111
0.60714
0.607152
0.607172
0.607237
0.607246
0.60736
0.60736
0.607524
0.607511
0.607731
0.6077
0.607978
0.607929
0.608256
0.60821
0.608548
0.608573
0.592715
0.592639
0.592618
0.592549
0.592559
0.592489
0.592526
0.592466
0.592518
0.592476
0.592542
0.592511
0.592602
0.592566
0.592699
0.592644
0.592828
0.592746
0.592985
0.592875
0.593164
0.59304
0.593352
0.593262
0.578552
0.578487
0.578433
0.578413
0.578342
0.578349
0.578286
0.578291
0.578262
0.578245
0.578261
0.57822
0.578277
0.578213
0.578312
0.578221
0.578369
0.578241
0.578445
0.578275
0.578531
0.578332
0.578613
0.578423
0.56481
0.564735
0.564714
0.564628
0.564636
0.564535
0.564562
0.564462
0.56449
0.564403
0.56443
0.564348
0.564389
0.564291
0.564364
0.564235
0.564352
0.564179
0.564349
0.564125
0.564348
0.564078
0.564336
0.564049
0.551482
0.551422
0.551363
0.551337
0.551251
0.551244
0.551156
0.551138
0.551077
0.551026
0.551001
0.550915
0.550923
0.550803
0.550847
0.550686
0.550772
0.550559
0.550699
0.550424
0.550619
0.550282
0.550519
0.550143
0.538569
0.538496
0.538474
0.538378
0.538379
0.538258
0.538269
0.538141
0.538145
0.538022
0.538015
0.537889
0.537886
0.537736
0.537757
0.537565
0.537625
0.537374
0.537484
0.537163
0.537332
0.536934
0.537154
0.536695
0.526056
0.526
0.525939
0.525905
0.525813
0.525786
0.525687
0.525641
0.525557
0.525474
0.525417
0.525291
0.52526
0.52509
0.525087
0.524867
0.524902
0.524615
0.524703
0.524337
0.524484
0.52403
0.524235
0.523699
0.513947
0.513878
0.513852
0.513756
0.513739
0.513615
0.5136
0.513462
0.513433
0.513289
0.513247
0.513088
0.513046
0.512853
0.51283
0.512583
0.512596
0.512278
0.51234
0.511936
0.512062
0.511556
0.511749
0.511143
0.502223
0.502169
0.502113
0.502063
0.501979
0.501922
0.501826
0.501746
0.501654
0.501536
0.501456
0.501294
0.501231
0.50102
0.500977
0.500707
0.500699
0.500351
0.500395
0.499952
0.50006
0.499507
0.499688
0.499019
0.490888
0.490826
0.490791
0.490705
0.490662
0.490551
0.490498
0.490366
0.4903
0.490145
0.490069
0.489884
0.489809
0.489579
0.48952
0.489228
0.489201
0.488828
0.488849
0.488374
0.488465
0.48787
0.488041
0.487312
0.479924
0.479872
0.479822
0.479756
0.479685
0.479596
0.479512
0.479395
0.479302
0.47915
0.479055
0.478861
0.478771
0.478525
0.47845
0.478138
0.478093
0.477695
0.4777
0.477195
0.47727
0.476635
0.476793
0.476018
0.469332
0.469278
0.469232
0.469159
0.469091
0.468994
0.468907
0.468782
0.468683
0.468521
0.468416
0.46821
0.468107
0.467847
0.467756
0.467427
0.467365
0.466946
0.466933
0.466401
0.466461
0.465791
0.46594
0.465114
0.459095
0.459045
0.459
0.458923
0.458858
0.458749
0.458669
0.458525
0.458431
0.458251
0.458143
0.457923
0.45781
0.457535
0.457432
0.457086
0.457009
0.45657
0.456542
0.455986
0.45603
0.455329
0.455469
0.454599
0.449211
0.449163
0.449114
0.449044
0.448966
0.448869
0.448767
0.448637
0.448518
0.448345
0.448219
0.447994
0.447868
0.447582
0.447465
0.447105
0.447013
0.446558
0.446514
0.445935
0.445966
0.445236
0.445366
0.444458
0.439669
0.439621
0.439577
0.439498
0.43943
0.439315
0.439227
0.439074
0.438966
0.438773
0.438648
0.438409
0.438276
0.437977
0.43785
0.437476
0.437372
0.436899
0.436841
0.436244
0.43626
0.435505
0.435624
0.434682
0.430459
0.430416
0.430367
0.430295
0.430216
0.43011
0.430006
0.429861
0.429737
0.429546
0.429409
0.429165
0.429021
0.428714
0.428575
0.428189
0.428072
0.427586
0.427514
0.426898
0.426902
0.426124
0.426234
0.425257
0.421574
0.421531
0.421487
0.421409
0.421335
0.42122
0.42112
0.420965
0.420841
0.420642
0.4205
0.420248
0.420097
0.41978
0.419633
0.419235
0.419108
0.418609
0.418524
0.417896
0.417884
0.417087
0.417186
0.416182
0.413006
0.412966
0.412919
0.412845
0.412765
0.412652
0.412547
0.41239
0.412262
0.412057
0.411911
0.411651
0.411494
0.411169
0.411013
0.410606
0.41047
0.409958
0.409865
0.40922
0.409199
0.408386
0.408474
0.407444
0.404744
0.404706
0.40466
0.404584
0.404506
0.40439
0.404283
0.404124
0.403991
0.403783
0.403631
0.403366
0.403203
0.40287
0.402709
0.402292
0.402149
0.401626
0.401524
0.400868
0.400838
0.400009
0.400091
0.399043
0.396782
0.396745
0.396699
0.396625
0.396544
0.396429
0.396318
0.396158
0.396022
0.39581
0.395654
0.395384
0.395216
0.394876
0.394709
0.394283
0.394135
0.393601
0.393496
0.392824
0.392792
0.391948
0.392025
0.390965
0.389109
0.389074
0.38903
0.388952
0.388876
0.388754
0.388648
0.388479
0.388346
0.388126
0.38797
0.387693
0.387523
0.387176
0.387005
0.386572
0.386419
0.385876
0.385766
0.385084
0.385048
0.384191
0.384266
0.383194
0.38172
0.381687
0.38164
0.381568
0.381484
0.38137
0.381252
0.381092
0.380947
0.380732
0.380568
0.38029
0.380114
0.379763
0.379588
0.379148
0.378991
0.37844
0.378326
0.377635
0.377595
0.376729
0.376798
0.375718
0.374603
0.374569
0.374528
0.374448
0.374375
0.374247
0.374143
0.373966
0.373833
0.373605
0.373445
0.373159
0.372982
0.372627
0.372447
0.372003
0.37184
0.371285
0.371165
0.370468
0.370423
0.36955
0.369614
0.368525
0.367751
0.367723
0.367675
0.367607
0.367518
0.367407
0.367283
0.367124
0.366972
0.366755
0.366584
0.366301
0.366118
0.36576
0.365576
0.365128
0.364961
0.364401
0.364275
0.363575
0.363522
0.362644
0.362703
0.361607
0.361158
0.361127
0.361089
0.361005
0.360938
0.360802
0.360703
0.360518
0.360386
0.360151
0.359989
0.359697
0.359515
0.359152
0.358966
0.358514
0.358343
0.35778
0.357649
0.356943
0.356886
0.356004
0.356057
0.354954
0.354815
0.354789
0.35474
0.354677
0.354582
0.354478
0.354346
0.354189
0.354032
0.353812
0.353638
0.35335
0.353162
0.352798
0.352608
0.352154
0.351979
0.351413
0.351277
0.35057
0.350505
0.34962
0.349668
0.348561
0.348715
0.348684
0.34865
0.348563
0.3485
0.348359
0.348264
0.348073
0.347941
0.347702
0.347538
0.347241
0.347056
0.346688
0.346497
0.34604
0.345861
0.345293
0.345153
0.344442
0.344375
0.343485
0.343529
0.342418
0.342848
0.342825
0.342777
0.342714
0.342621
0.342513
0.342385
0.342222
0.342068
0.341842
0.341668
0.341374
0.341186
0.340816
0.340623
0.340163
0.339983
0.339412
0.339269
0.338557
0.338484
0.337593
0.337632
0.33652
0.337212
0.337185
0.337147
0.337069
0.336996
0.336866
0.336759
0.336577
0.336437
0.3362
0.336032
0.335733
0.335546
0.335173
0.334981
0.334517
0.334337
0.333763
0.333618
0.332904
0.332829
0.331934
0.331971
0.330856
0.331796
0.331772
0.331732
0.331656
0.331583
0.331453
0.331346
0.331164
0.331023
0.330786
0.330618
0.330316
0.33013
0.329753
0.329562
0.329096
0.328916
0.328338
0.328195
0.327477
0.327401
0.326505
0.326538
0.325426
0.326594
0.326572
0.326527
0.326465
0.326371
0.326265
0.326136
0.32597
0.325819
0.325586
0.325417
0.325114
0.32493
0.324549
0.324362
0.32389
0.323713
0.323131
0.32299
0.322267
0.322195
0.321293
0.321328
0.320215
0.321603
0.321577
0.321547
0.321456
0.321403
0.321252
0.321166
0.320966
0.320839
0.320591
0.32043
0.320121
0.319941
0.319555
0.319372
0.318895
0.318723
0.318134
0.318
0.31727
0.317204
0.316298
0.316332
0.315224
0.31681
0.316792
0.316742
0.316689
0.316587
0.31649
0.316353
0.316193
0.31604
0.315806
0.31564
0.31533
0.315154
0.314764
0.314586
0.314102
0.313938
0.313341
0.313214
0.312476
0.312418
0.311509
0.311543
0.31044
0.312218
0.312192
0.312165
0.312072
0.312024
0.311868
0.311787
0.311583
0.311461
0.311207
0.311054
0.310736
0.310566
0.310169
0.309998
0.309507
0.309351
0.308746
0.308628
0.307884
0.307832
0.306921
0.306957
0.305858
0.307811
0.307794
0.307747
0.307689
0.307594
0.30749
0.307363
0.307195
0.307051
0.306808
0.306651
0.306333
0.306167
0.305766
0.305601
0.305104
0.304956
0.304343
0.304234
0.303482
0.303436
0.302525
0.302559
0.301468
0.303594
0.303571
0.30354
0.303455
0.303398
0.303253
0.303165
0.302966
0.302843
0.302588
0.30244
0.302116
0.301955
0.30155
0.301389
0.300888
0.300746
0.300127
0.300026
0.29927
0.299228
0.298315
0.298351
0.297262
0.299552
0.299533
0.299492
0.299426
0.299344
0.299226
0.299115
0.298934
0.298801
0.298551
0.298403
0.298077
0.297921
0.297512
0.297357
0.29685
0.296716
0.296091
0.295998
0.295235
0.295198
0.294287
0.294319
0.293237
0.295687
0.295666
0.295633
0.295554
0.295491
0.295353
0.295261
0.295064
0.294945
0.294685
0.294546
0.294213
0.294065
0.293647
0.293504
0.292986
0.292866
0.29223
0.292146
0.291381
0.291346
0.290436
0.290469
0.289391
0.291989
0.291969
0.291933
0.29186
0.29179
0.29166
0.291562
0.291369
0.29125
0.290988
0.290855
0.290515
0.290378
0.28995
0.289821
0.28929
0.289182
0.288539
0.288461
0.287695
0.287661
0.286756
0.286785
0.285717
0.288457
0.288438
0.288404
0.288327
0.288263
0.288127
0.288037
0.287836
0.287727
0.287456
0.287334
0.286983
0.286859
0.286419
0.286302
0.285763
0.285664
0.285016
0.284944
0.284177
0.284146
0.283243
0.283271
0.28221
0.285084
0.285063
0.285031
0.284953
0.284891
0.284752
0.284668
0.284462
0.28436
0.284081
0.28397
0.28361
0.283497
0.283049
0.282941
0.282396
0.282302
0.281654
0.281583
0.280819
0.280786
0.27989
0.279915
0.278861
0.281868