/*--------------------------------*- C++ -*----------------------------------*\
  =========                 |
  \\      /  F ield         | OpenFOAM: The Open Source CFD Toolbox
   \\    /   O peration     | Website:  https://openfoam.org
    \\  /    A nd           | Version:  10
     \\/     M anipulation  |
\*---------------------------------------------------------------------------*/
FoamFile
{
    format      ascii;
    class       volScalarField;
    location    "0.15";
    object      p;
}
// * * * * * * * * * * * * * * * * * * * * * * * * * * * * * * * * * * * * * //

dimensions      [1 -1 -2 0 0 0 0];

internalField   nonuniform List<scalar> 
4176
(
1600.97
1601.17
1601.68
1602.31
1603.37
1604.39
1606.02
1607.42
1609.61
1611.39
1614.09
1616.32
1619.44
1622.2
1625.57
1629.07
1632.36
1637
1639.95
1645.95
1648.29
1655.92
1657.1
1665.84
1601.44
1601.63
1602.09
1602.7
1603.66
1604.66
1606.13
1607.5
1609.48
1611.22
1613.69
1615.82
1618.72
1621.32
1624.51
1627.75
1630.9
1635.17
1638
1643.55
1645.66
1653.11
1654.35
1664.12
1602.69
1602.88
1603.35
1603.97
1604.95
1605.97
1607.47
1608.86
1610.89
1612.65
1615.18
1617.34
1620.32
1622.95
1626.25
1629.52
1632.79
1637.16
1639.97
1645.68
1647.77
1655.1
1656.25
1665.71
1604.62
1604.81
1605.27
1605.88
1606.84
1607.84
1609.31
1610.67
1612.67
1614.38
1616.89
1618.97
1621.94
1624.47
1627.77
1630.94
1634.2
1638.6
1641.12
1647.01
1648.94
1656.18
1657.25
1666.1
1607.33
1607.52
1607.98
1608.59
1609.54
1610.54
1612
1613.37
1615.34
1617.07
1619.55
1621.65
1624.6
1627.13
1630.43
1633.55
1636.92
1641.14
1643.84
1649.63
1651.64
1658.83
1659.98
1668.83
1610.77
1610.96
1611.41
1612.02
1612.96
1613.95
1615.39
1616.75
1618.69
1620.41
1622.85
1624.94
1627.84
1630.35
1633.62
1636.68
1640.09
1644.11
1647.03
1652.57
1654.65
1661.77
1662.99
1671.92
1614.98
1615.17
1615.61
1616.22
1617.14
1618.13
1619.55
1620.9
1622.82
1624.53
1626.95
1629.02
1631.9
1634.38
1637.64
1640.64
1644.08
1647.96
1650.98
1656.36
1658.53
1665.54
1666.8
1675.62
1619.93
1620.12
1620.56
1621.16
1622.08
1623.05
1624.46
1625.79
1627.69
1629.38
1631.77
1633.82
1636.67
1639.11
1642.35
1645.3
1648.74
1652.49
1655.6
1660.8
1663.05
1669.95
1671.24
1679.97
1625.65
1625.83
1626.27
1626.86
1627.77
1628.74
1630.12
1631.45
1633.32
1634.99
1637.36
1639.38
1642.2
1644.61
1647.82
1650.71
1654.15
1657.79
1660.96
1665.99
1668.32
1675.08
1676.41
1685.01
1632.12
1632.31
1632.74
1633.33
1634.22
1635.18
1636.55
1637.86
1639.71
1641.36
1643.69
1645.68
1648.48
1650.84
1654.03
1656.86
1660.29
1663.82
1667.04
1671.9
1674.3
1680.9
1682.27
1690.74
1639.37
1639.55
1639.98
1640.56
1641.44
1642.39
1643.74
1645.03
1646.86
1648.49
1650.79
1652.75
1655.51
1657.83
1660.99
1663.76
1667.18
1670.6
1673.86
1678.55
1681.02
1687.44
1688.85
1697.18
1647.39
1647.57
1647.99
1648.56
1649.44
1650.37
1651.7
1652.98
1654.78
1656.38
1658.65
1660.58
1663.31
1665.58
1668.71
1671.41
1674.8
1678.13
1681.42
1685.95
1688.46
1694.71
1696.15
1704.33
1656.19
1656.37
1656.79
1657.35
1658.21
1659.13
1660.44
1661.7
1663.47
1665.05
1667.29
1669.18
1671.87
1674.1
1677.19
1679.82
1683.19
1686.42
1689.72
1694.09
1696.65
1702.72
1704.17
1712.2
1665.79
1665.97
1666.38
1666.93
1667.78
1668.68
1669.97
1671.21
1672.95
1674.5
1676.7
1678.56
1681.21
1683.39
1686.44
1689.01
1692.34
1695.47
1698.78
1702.98
1705.58
1711.47
1712.93
1720.79
1676.19
1676.36
1676.77
1677.31
1678.14
1679.03
1680.3
1681.51
1683.22
1684.74
1686.91
1688.72
1691.33
1693.46
1696.46
1698.96
1702.26
1705.29
1708.6
1712.64
1715.27
1720.98
1722.44
1730.12
1687.4
1687.57
1687.97
1688.51
1689.32
1690.19
1691.43
1692.62
1694.3
1695.78
1697.91
1699.68
1702.24
1704.31
1707.28
1709.7
1712.96
1715.88
1719.18
1723.06
1725.72
1731.22
1732.72
1740.21
1699.43
1699.61
1699.99
1700.52
1701.32
1702.17
1703.39
1704.54
1706.19
1707.63
1709.72
1711.44
1713.96
1715.97
1718.88
1721.23
1724.44
1727.27
1730.54
1734.25
1736.94
1742.24
1743.76
1751.05
1712.3
1712.48
1712.86
1713.37
1714.15
1714.98
1716.17
1717.29
1718.9
1720.31
1722.35
1724.02
1726.48
1728.43
1731.29
1733.56
1736.72
1739.45
1742.69
1746.23
1748.94
1754.04
1755.58
1762.66
1726.02
1726.2
1726.57
1727.07
1727.83
1728.64
1729.8
1730.89
1732.46
1733.82
1735.81
1737.42
1739.83
1741.72
1744.51
1746.71
1749.81
1752.43
1755.63
1759.01
1761.74
1766.63
1768.19
1775.06
1740.61
1740.78
1741.14
1741.63
1742.37
1743.15
1744.28
1745.33
1746.86
1748.17
1750.12
1751.67
1754.02
1755.83
1758.57
1760.67
1763.71
1766.23
1769.39
1772.6
1775.34
1780.01
1781.6
1788.24
1756.07
1756.23
1756.58
1757.06
1757.77
1758.53
1759.63
1760.64
1762.13
1763.39
1765.28
1766.78
1769.06
1770.8
1773.47
1775.48
1778.45
1780.85
1783.96
1787.02
1789.75
1794.21
1795.81
1802.22
1772.42
1772.58
1772.92
1773.38
1774.07
1774.8
1775.86
1776.84
1778.27
1779.49
1781.32
1782.75
1784.97
1786.63
1789.22
1791.14
1794.04
1796.32
1799.37
1802.27
1804.99
1809.22
1810.84
1817.02
1789.67
1789.83
1790.16
1790.6
1791.27
1791.97
1792.98
1793.92
1795.31
1796.47
1798.24
1799.6
1801.75
1803.33
1805.85
1807.67
1810.49
1812.65
1815.63
1818.37
1821.07
1825.07
1826.71
1832.63
1807.84
1808
1808.31
1808.74
1809.38
1810.04
1811.02
1811.91
1813.25
1814.35
1816.06
1817.35
1819.43
1820.92
1823.36
1825.08
1827.82
1829.86
1832.76
1835.34
1838.01
1841.78
1843.41
1849.09
1826.94
1827.1
1827.4
1827.81
1828.42
1829.05
1829.99
1830.83
1832.11
1833.15
1834.79
1836.01
1838.02
1839.42
1841.78
1843.39
1846.05
1847.96
1850.78
1853.19
1855.83
1859.36
1860.98
1866.39
1846.99
1847.14
1847.43
1847.82
1848.4
1849
1849.89
1850.69
1851.91
1852.89
1854.46
1855.6
1857.53
1858.84
1861.11
1862.61
1865.18
1866.96
1869.7
1871.94
1874.54
1877.84
1879.44
1884.58
1868
1868.15
1868.42
1868.79
1869.34
1869.91
1870.75
1871.5
1872.66
1873.57
1875.07
1876.13
1877.98
1879.19
1881.38
1882.77
1885.24
1886.89
1889.54
1891.62
1894.15
1897.21
1898.8
1903.68
1889.98
1890.12
1890.38
1890.73
1891.25
1891.79
1892.59
1893.28
1894.39
1895.23
1896.65
1897.63
1899.39
1900.5
1902.59
1903.87
1906.25
1907.76
1910.31
1912.22
1914.69
1917.49
1919.09
1923.67
1912.95
1913.09
1913.34
1913.66
1914.16
1914.65
1915.41
1916.05
1917.09
1917.87
1919.22
1920.11
1921.78
1922.79
1924.78
1925.94
1928.21
1929.58
1932.04
1933.78
1936.17
1938.72
1940.3
1944.6
1936.93
1937.06
1937.29
1937.6
1938.06
1938.52
1939.23
1939.82
1940.8
1941.5
1942.78
1943.58
1945.17
1946.07
1947.96
1948.99
1951.16
1952.39
1954.74
1956.31
1958.62
1960.91
1962.47
1966.47
1961.93
1962.06
1962.27
1962.56
1962.99
1963.41
1964.07
1964.61
1965.53
1966.16
1967.36
1968.07
1969.57
1970.36
1972.15
1973.05
1975.12
1976.19
1978.43
1979.83
1982.05
1984.1
1985.64
1989.31
1987.96
1988.09
1988.29
1988.56
1988.96
1989.34
1989.95
1990.43
1991.29
1991.85
1992.97
1993.59
1995
1995.68
1997.38
1998.14
2000.1
2001.01
2003.14
2004.35
2006.47
2008.29
2009.8
2013.15
2015.06
2015.18
2015.37
2015.61
2015.98
2016.32
2016.88
2017.31
2018.1
2018.59
2019.63
2020.16
2021.48
2022.05
2023.64
2024.28
2026.12
2026.88
2028.9
2029.92
2031.93
2033.51
2035
2038.01
2043.22
2043.34
2043.51
2043.74
2044.07
2044.37
2044.89
2045.26
2045.98
2046.4
2047.36
2047.8
2049.03
2049.49
2050.98
2051.48
2053.21
2053.81
2055.71
2056.54
2058.44
2059.78
2061.24
2063.9
2072.48
2072.59
2072.75
2072.95
2073.25
2073.52
2073.98
2074.3
2074.96
2075.3
2076.18
2076.53
2077.66
2078.01
2079.4
2079.76
2081.39
2081.83
2083.62
2084.25
2086.03
2087.13
2088.54
2090.85
2102.84
2102.95
2103.09
2103.28
2103.54
2103.77
2104.19
2104.45
2105.04
2105.3
2106.11
2106.36
2107.4
2107.63
2108.92
2109.15
2110.67
2110.94
2112.62
2113.06
2114.73
2115.59
2116.91
2118.88
2134.33
2134.44
2134.57
2134.73
2134.96
2135.15
2135.52
2135.72
2136.26
2136.44
2137.17
2137.33
2138.27
2138.39
2139.57
2139.66
2141.07
2141.17
2142.74
2142.99
2144.55
2145.17
2146.4
2148.02
2166.96
2167.07
2167.19
2167.33
2167.53
2167.69
2168.01
2168.15
2168.62
2168.74
2169.38
2169.44
2170.29
2170.29
2171.37
2171.31
2172.61
2172.54
2174
2174.05
2175.51
2175.89
2177.03
2178.28
2200.77
2200.88
2200.97
2201.1
2201.27
2201.39
2201.66
2201.75
2202.15
2202.2
2202.76
2202.73
2203.48
2203.36
2204.34
2204.13
2205.32
2205.08
2206.42
2206.26
2207.61
2207.76
2208.82
2209.71
2235.77
2235.87
2235.96
2236.06
2236.2
2236.28
2236.5
2236.54
2236.88
2236.85
2237.33
2237.2
2237.87
2237.63
2238.5
2238.14
2239.22
2238.8
2240.02
2239.65
2240.89
2240.79
2241.77
2242.33
2271.98
2272.08
2272.15
2272.23
2272.34
2272.38
2272.56
2272.54
2272.81
2272.71
2273.11
2272.89
2273.46
2273.1
2273.87
2273.37
2274.33
2273.73
2274.84
2274.25
2275.38
2275.01
2275.89
2276.16
2309.43
2309.53
2309.58
2309.64
2309.72
2309.73
2309.85
2309.78
2309.99
2309.8
2310.13
2309.81
2310.29
2309.81
2310.48
2309.82
2310.68
2309.89
2310.9
2310.07
2311.1
2310.46
2311.24
2311.18
2348.14
2348.24
2348.28
2348.32
2348.36
2348.33
2348.4
2348.27
2348.41
2348.16
2348.4
2347.98
2348.37
2347.77
2348.33
2347.53
2348.28
2347.3
2348.21
2347.15
2348.08
2347.15
2347.85
2347.43
2388.14
2388.23
2388.26
2388.28
2388.28
2388.21
2388.24
2388.05
2388.12
2387.79
2387.94
2387.43
2387.72
2386.99
2387.46
2386.5
2387.15
2385.98
2386.79
2385.49
2386.35
2385.12
2385.75
2384.96
2429.44
2429.53
2429.54
2429.54
2429.51
2429.4
2429.37
2429.13
2429.13
2428.72
2428.79
2428.18
2428.37
2427.52
2427.87
2426.76
2427.31
2425.95
2426.66
2425.12
2425.9
2424.37
2424.95
2423.8
2472.07
2472.16
2472.15
2472.13
2472.07
2471.92
2471.83
2471.53
2471.46
2470.97
2470.95
2470.24
2470.33
2469.36
2469.6
2468.34
2468.77
2467.22
2467.84
2466.05
2466.76
2464.92
2465.47
2463.92
2516.05
2516.13
2516.11
2516.06
2515.97
2515.78
2515.64
2515.27
2515.13
2514.56
2514.46
2513.64
2513.64
2512.53
2512.67
2511.24
2511.58
2509.81
2510.34
2508.3
2508.95
2506.78
2507.34
2505.35
2561.39
2561.47
2561.44
2561.37
2561.23
2561
2560.81
2560.38
2560.17
2559.51
2559.33
2558.4
2558.3
2557.06
2557.1
2555.5
2555.73
2553.76
2554.21
2551.89
2552.48
2549.96
2550.55
2548.13
2608.12
2608.2
2608.14
2608.05
2607.88
2607.61
2607.36
2606.87
2606.58
2605.85
2605.57
2604.54
2604.34
2602.96
2602.9
2601.13
2601.27
2599.07
2599.45
2596.84
2597.4
2594.49
2595.13
2592.28
2656.24
2656.31
2656.24
2656.13
2655.92
2655.61
2655.3
2654.75
2654.4
2653.57
2653.21
2652.07
2651.77
2650.26
2650.1
2648.15
2648.2
2645.77
2646.09
2643.17
2643.74
2640.42
2641.08
2637.82
2705.77
2705.84
2705.75
2705.62
2705.37
2705.02
2704.66
2704.05
2703.62
2702.71
2702.26
2701.01
2700.62
2698.96
2698.71
2696.57
2696.55
2693.87
2694.14
2690.9
2691.51
2687.76
2688.42
2684.76
2756.71
2756.78
2756.68
2756.52
2756.24
2755.85
2755.43
2754.76
2754.26
2753.27
2752.74
2751.37
2750.9
2749.09
2748.75
2746.42
2746.34
2743.39
2743.65
2740.04
2740.69
2736.57
2737.19
2733.15
2809.08
2809.15
2809.03
2808.85
2808.54
2808.11
2807.63
2806.9
2806.33
2805.25
2804.65
2803.16
2802.61
2800.64
2800.25
2797.68
2797.58
2794.33
2794.64
2790.63
2791.27
2786.83
2787.4
2782.98
2862.88
2862.94
2862.81
2862.61
2862.26
2861.79
2861.27
2860.48
2859.84
2858.68
2858.01
2856.39
2855.79
2853.63
2853.21
2850.39
2850.31
2846.71
2847.05
2842.73
2843.31
2838.57
2839.08
2834.29
2918.1
2918.16
2918.02
2917.8
2917.42
2916.92
2916.34
2915.49
2914.8
2913.54
2912.82
2911.06
2910.43
2908.05
2907.66
2904.54
2904.52
2900.59
2900.89
2896.33
2896.82
2891.79
2892.25
2887.09
2974.75
2974.82
2974.66
2974.43
2974.01
2973.47
2972.85
2971.94
2971.2
2969.83
2969.1
2967.16
2966.56
2963.92
2963.58
2960.18
2960.12
2956.01
2956.2
2951.43
2951.82
2946.52
2946.91
2941.4
3032.83
3032.9
3032.72
3032.48
3032.03
3031.47
3030.79
3029.83
3029.06
3027.56
3026.86
3024.7
3024.15
3021.29
3020.92
3017.36
3017.2
3012.92
3013.01
3008.03
3008.32
3002.76
3003.09
2997.23
3092.33
3092.41
3092.2
3091.97
3091.47
3090.9
3090.17
3089.14
3088.38
3086.74
3086.04
3083.75
3083.14
3080.17
3079.71
3076.02
3075.76
3071.33
3071.31
3066.13
3066.33
3060.52
3060.79
3054.59
3153.25
3153.34
3153.1
3152.89
3152.32
3151.77
3150.98
3149.92
3149.11
3147.41
3146.64
3144.28
3143.59
3140.53
3139.97
3136.18
3135.82
3131.24
3131.12
3125.76
3125.87
3119.81
3120.02
3113.49
3215.59
3215.68
3215.44
3215.2
3214.63
3214.05
3213.19
3212.17
3211.25
3209.53
3208.69
3206.27
3205.5
3202.37
3201.72
3197.82
3197.36
3192.65
3192.43
3186.9
3186.92
3180.63
3180.78
3173.94
3279.33
3279.43
3279.19
3278.94
3278.36
3277.75
3276.86
3275.85
3274.79
3273.14
3272.17
3269.72
3268.88
3265.67
3264.93
3260.95
3260.4
3255.56
3255.25
3249.55
3249.49
3242.98
3243.08
3235.93
3344.5
3344.6
3344.36
3344.09
3343.5
3342.88
3341.96
3340.94
3339.79
3338.19
3337.06
3334.65
3333.7
3330.44
3329.62
3325.56
3324.92
3319.97
3319.57
3313.72
3313.57
3306.85
3306.9
3299.46
3411.09
3411.18
3410.95
3410.67
3410.07
3409.44
3408.49
3407.47
3406.24
3404.66
3403.41
3401.04
3399.95
3396.68
3395.78
3391.64
3390.91
3385.86
3385.37
3379.37
3379.15
3372.24
3372.23
3364.52
3479.1
3479.2
3478.96
3478.68
3478.07
3477.43
3476.45
3475.42
3474.14
3472.57
3471.22
3468.88
3467.66
3464.39
3463.39
3459.17
3458.37
3453.21
3452.65
3446.52
3446.22
3439.12
3439.06
3431.1
3548.55
3548.65
3548.41
3548.13
3547.51
3546.86
3545.86
3544.81
3543.48
3541.93
3540.49
3538.14
3536.82
3533.54
3532.44
3528.15
3527.28
3522.02
3521.39
3515.12
3514.75
3507.49
3507.37
3499.17
3619.45
3619.57
3619.32
3619.04
3618.4
3617.74
3616.71
3615.65
3614.27
3612.71
3611.19
3608.84
3607.43
3604.11
3602.93
3598.56
3597.62
3592.27
3591.56
3585.17
3584.73
3577.3
3577.13
3568.72
3691.83
3691.95
3691.69
3691.41
3690.75
3690.08
3689.02
3687.93
3686.51
3684.94
3683.31
3680.96
3679.45
3676.09
3674.84
3670.39
3669.38
3663.92
3663.14
3656.64
3656.13
3648.56
3648.33
3639.71
3765.69
3765.81
3765.54
3765.26
3764.57
3763.88
3762.77
3761.66
3760.18
3758.58
3756.85
3754.5
3752.87
3749.48
3748.15
3743.6
3742.54
3736.97
3736.12
3729.51
3728.92
3721.22
3720.94
3712.14
3841.02
3841.15
3840.86
3840.57
3839.84
3839.12
3837.97
3836.82
3835.26
3833.63
3831.79
3829.44
3827.67
3824.26
3822.82
3818.19
3817.08
3811.4
3810.47
3803.76
3803.1
3795.28
3794.95
3785.98
3917.79
3917.93
3917.62
3917.3
3916.54
3915.78
3914.57
3913.36
3911.74
3910.05
3908.1
3905.75
3903.81
3900.41
3898.81
3894.16
3892.97
3887.17
3886.18
3879.38
3878.65
3870.72
3870.34
3861.23
3995.94
3996.08
3995.75
3995.4
3994.61
3993.79
3992.53
3991.26
3989.56
3987.81
3985.75
3983.39
3981.27
3977.91
3976.1
3971.49
3970.16
3964.29
3963.25
3956.36
3955.56
3947.55
3947.11
3937.88
4075.31
4075.45
4075.12
4074.74
4073.92
4073.06
4071.76
4070.42
4068.66
4066.85
4064.7
4062.32
4060.03
4056.73
4054.7
4050.17
4048.65
4042.77
4041.68
4034.71
4033.84
4025.77
4025.29
4015.95
4155.75
4155.89
4155.57
4155.17
4154.34
4153.45
4152.13
4150.76
4148.96
4147.11
4144.9
4142.5
4140.09
4136.84
4134.61
4130.18
4128.43
4122.67
4121.44
4114.42
4113.51
4105.39
4104.88
4095.46
4237.05
4237.2
4236.89
4236.49
4235.69
4234.81
4233.5
4232.14
4230.35
4228.5
4226.28
4223.89
4221.41
4218.23
4215.83
4211.53
4209.57
4203.93
4202.56
4195.56
4194.61
4186.46
4185.93
4176.45
4319.02
4319.18
4318.91
4318.55
4317.8
4316.97
4315.73
4314.43
4312.7
4310.93
4308.75
4306.44
4303.96
4300.87
4298.4
4294.24
4292.12
4286.62
4285.11
4278.15
4277.18
4269
4268.48
4258.96
4401.57
4401.75
4401.52
4401.23
4400.56
4399.83
4398.7
4397.53
4395.93
4394.29
4392.24
4390.07
4387.68
4384.75
4382.29
4378.32
4376.1
4370.79
4369.13
4362.28
4361.29
4353.06
4352.56
4343.01
4484.74
4484.95
4484.78
4484.57
4484.01
4483.41
4482.43
4481.42
4480
4478.56
4476.69
4474.73
4472.51
4469.8
4467.47
4463.72
4461.54
4456.46
4454.74
4448.02
4447
4438.71
4438.25
4428.63
4568.81
4569.05
4568.94
4568.82
4568.36
4567.9
4567.06
4566.24
4565.01
4563.78
4562.12
4560.41
4558.41
4555.96
4553.85
4550.36
4548.35
4543.53
4541.91
4535.36
4534.42
4526.07
4525.64
4515.86
4654.29
4654.58
4654.48
4654.46
4654.04
4653.72
4652.96
4652.31
4651.2
4650.18
4648.69
4647.23
4645.42
4643.23
4641.41
4638.1
4636.49
4631.76
4630.57
4624.07
4623.5
4615.17
4614.85
4604.94
4741.91
4742.27
4742.1
4742.21
4741.69
4741.54
4740.67
4740.23
4739.03
4738.23
4736.74
4735.47
4733.76
4731.72
4730.28
4726.77
4726.01
4720.82
4720.57
4713.83
4713.9
4705.72
4705.73
4696.2
4832.59
4832.92
4832.81
4832.77
4832.33
4831.97
4831.19
4830.52
4829.39
4828.41
4826.94
4825.6
4823.84
4821.97
4820.37
4817.05
4816.4
4811.27
4811.29
4804.65
4805.12
4797.08
4797.54
4788.65
4927.18
4927.48
4927.34
4927.19
4926.65
4926.11
4925.16
4924.25
4922.92
4921.67
4919.97
4918.39
4916.39
4914.38
4912.35
4909.33
4908.04
4903.24
4903.1
4896.42
4897.13
4888.92
4889.76
4880.94
5026.44
5026.72
5026.49
5026.21
5025.48
5024.71
5023.47
5022.24
5020.53
5018.88
5016.75
5014.71
5012.23
5009.8
5007.19
5003.94
5001.96
4997.14
4996.5
4989.52
4990.28
4981.58
4982.69
4973.49
5130.81
5131.1
5130.74
5130.36
5129.38
5128.36
5126.77
5125.19
5122.99
5120.87
5118.13
5115.52
5112.34
5109.25
5105.84
5101.95
5099.16
5093.68
5092.43
5084.63
5085.21
5075.65
5076.88
5066.85
5240.44
5240.77
5240.24
5239.8
5238.56
5237.35
5235.36
5233.5
5230.7
5228.27
5224.7
5221.67
5217.52
5213.75
5209.39
5204.55
5200.91
5194.02
5192.09
5182.94
5182.87
5171.99
5173.05
5161.67
5355.13
5355.42
5354.92
5354.25
5352.97
5351.45
5349.32
5347
5344.01
5340.91
5337.08
5333.21
5328.59
5323.94
5318.66
5313.13
5307.82
5300.27
5296.71
5286.22
5284.81
5272.07
5272.43
5258.88
5474.34
5474.61
5474.1
5473.35
5471.98
5470.32
5468.04
5465.49
5462.27
5458.85
5454.69
5450.38
5445.29
5440.06
5434.11
5427.86
5421.27
5413.53
5407.32
5396.73
5392.84
5378.23
5377.08
5360.27
5597.35
5597.61
5597.11
5596.33
5594.92
5593.2
5590.85
5588.21
5584.87
5581.31
5576.98
5572.46
5567.13
5561.6
5555.27
5548.62
5541.43
5533.28
5525.68
5515.2
5508.34
5493.58
5489.9
5469.2
5723.32
5723.58
5723.1
5722.33
5720.94
5719.23
5716.88
5714.25
5710.91
5707.34
5703
5698.46
5693.1
5687.53
5681.14
5674.42
5667.1
5658.87
5650.95
5640.54
5632.66
5618.49
5612.88
5590.36
5851.37
5851.66
5851.21
5850.48
5849.14
5847.5
5845.21
5842.66
5839.4
5835.94
5831.69
5827.29
5822.03
5816.62
5810.36
5803.84
5796.66
5788.65
5781.04
5770.72
5763.65
5749.34
5744.84
5724.2
5980.68
5981
5980.59
5979.93
5978.65
5977.11
5974.92
5972.52
5969.39
5966.11
5962.02
5957.84
5952.79
5947.65
5941.64
5935.45
5928.57
5920.99
5913.77
5903.91
5897.42
5883.69
5879.61
5860.4
6110.48
6110.83
6110.47
6109.88
6108.69
6107.27
6105.21
6102.98
6100.01
6096.96
6093.08
6089.18
6084.38
6079.59
6073.89
6068.11
6061.59
6054.53
6047.71
6038.48
6032.43
6019.59
6015.77
5997.87
6240.09
6240.5
6240.15
6239.67
6238.55
6237.29
6235.35
6233.33
6230.53
6227.75
6224.07
6220.53
6215.97
6211.6
6206.21
6200.89
6194.76
6188.26
6181.86
6173.27
6167.73
6155.79
6152.2
6135.63
6368.94
6369.4
6369.04
6368.72
6367.63
6366.58
6364.71
6362.98
6360.27
6357.88
6354.31
6351.25
6346.82
6343.02
6337.83
6333.1
6327.31
6321.42
6315.48
6307.51
6302.38
6291.43
6288.06
6272.82
6496.52
6497.01
6496.67
6496.48
6495.42
6494.6
6492.78
6491.37
6488.73
6486.77
6483.26
6480.75
6476.38
6473.26
6468.13
6464.19
6458.56
6453.34
6447.83
6440.58
6435.81
6425.87
6422.7
6408.8
6622.39
6622.89
6622.64
6622.46
6621.6
6620.79
6619.27
6617.89
6615.63
6613.75
6610.68
6608.33
6604.43
6601.57
6596.9
6593.38
6588.17
6583.61
6578.37
6571.91
6567.49
6558.57
6555.59
6543.01
6746.18
6746.7
6746.52
6746.37
6745.66
6744.92
6743.63
6742.35
6740.41
6738.64
6735.99
6733.77
6730.38
6727.7
6723.6
6720.36
6715.67
6711.62
6706.71
6701.2
6697
6689.07
6686.27
6674.99
6867.6
6868.1
6867.99
6867.89
6867.31
6866.66
6865.55
6864.42
6862.72
6861.14
6858.82
6856.82
6853.84
6851.42
6847.78
6844.89
6840.68
6837.13
6832.58
6827.95
6823.96
6816.99
6814.38
6804.37
6986.35
6986.86
6986.8
6986.75
6986.28
6985.73
6984.79
6983.81
6982.34
6980.96
6978.92
6977.17
6974.54
6972.42
6969.2
6966.67
6962.91
6959.85
6955.72
6951.81
6947.97
6942.06
6939.62
6930.85
7102.23
7102.74
7102.72
7102.73
7102.35
7101.91
7101.11
7100.29
7099.02
7097.85
7096.08
7094.57
7092.27
7090.45
7087.61
7085.46
7082.11
7079.53
7075.82
7072.55
7068.92
7064.02
7061.73
7054.15
7215.05
7215.56
7215.59
7215.63
7215.35
7215.01
7214.36
7213.67
7212.6
7211.62
7210.1
7208.84
7206.85
7205.32
7202.84
7201.04
7198.09
7195.95
7192.66
7189.96
7186.63
7182.65
7180.5
7174.07
7324.67
7325.17
7325.23
7325.34
7325.11
7324.91
7324.34
7323.84
7322.92
7322.14
7320.84
7319.82
7318.11
7316.87
7314.73
7313.27
7310.7
7308.96
7306.07
7303.89
7300.93
7297.8
7295.77
7290.4
7430.96
7431.46
7431.58
7431.67
7431.61
7431.38
7431.04
7430.59
7429.9
7429.27
7428.2
7427.4
7425.96
7424.99
7423.16
7422.02
7419.81
7418.47
7415.95
7414.27
7411.66
7409.27
7407.39
7402.99
7533.87
7534.37
7534.45
7534.72
7534.51
7534.62
7534.15
7534.02
7533.35
7532.97
7532.06
7531.49
7530.29
7529.58
7528.04
7527.22
7525.34
7524.37
7522.22
7521
7518.75
7516.97
7515.23
7511.8
7633.29
7633.77
7633.98
7634.06
7634.26
7634.04
7634.07
7633.73
7633.44
7633.07
7632.43
7632.02
7631.06
7630.59
7629.33
7628.79
7627.22
7626.6
7624.78
7623.99
7622.08
7620.86
7619.27
7616.75
7729.24
7729.73
7729.81
7730.25
7730.02
7730.45
7730
7730.26
7729.74
7729.75
7729.15
7728.99
7728.23
7727.98
7726.97
7726.71
7725.42
7725.13
7723.61
7723.22
7721.61
7720.88
7719.54
7717.83
7821.66
7822.1
7822.38
7822.48
7822.84
7822.69
7822.99
7822.76
7822.81
7822.66
7822.4
7822.32
7821.79
7821.75
7820.97
7820.96
7819.94
7819.95
7818.72
7818.69
7817.36
7817.1
7815.99
7815.01
7910.59
7911.06
7911.15
7911.68
7911.51
7912.11
7911.76
7912.29
7911.93
7912.26
7911.93
7912.13
7911.73
7911.9
7911.34
7911.55
7910.78
7911.07
7910.11
7910.43
7909.37
7909.55
7908.67
7908.31
7996.02
7996.42
7996.74
7996.87
7997.34
7997.27
7997.75
7997.67
7997.98
7998.03
7998.08
7998.29
7998.12
7998.44
7998.08
7998.51
7997.97
7998.51
7997.8
7998.44
7997.62
7998.22
7997.55
7997.76
8078.02
8078.46
8078.56
8079.14
8079.04
8079.74
8079.52
8080.22
8080.05
8080.61
8080.53
8081.01
8080.93
8081.43
8081.25
8081.87
8081.54
8082.32
8081.82
8082.75
8082.15
8083.13
8082.63
8083.38
8156.6
8156.97
8157.31
8157.47
8158
8158.04
8158.62
8158.7
8159.16
8159.43
8159.7
8160.17
8160.28
8160.91
8160.9
8161.69
8161.54
8162.54
8162.23
8163.43
8163.02
8164.34
8163.98
8165.22
8231.86
8232.28
8232.4
8232.99
8232.97
8233.71
8233.66
8234.42
8234.46
8235.16
8235.31
8236
8236.18
8236.96
8237.09
8238.04
8238.05
8239.24
8239.11
8240.55
8240.3
8241.93
8241.68
8243.36
8303.86
8304.19
8304.54
8304.74
8305.28
8305.45
8306.05
8306.32
8306.85
8307.33
8307.75
8308.43
8308.77
8309.65
8309.91
8311
8311.16
8312.51
8312.53
8314.18
8314.08
8315.99
8315.84
8317.9
8372.68
8373.05
8373.2
8373.76
8373.86
8374.57
8374.7
8375.46
8375.71
8376.48
8376.84
8377.68
8378.08
8379.07
8379.44
8380.66
8380.94
8382.45
8382.6
8384.44
8384.46
8386.61
8386.55
8388.96
8438.4
8438.71
8439.03
8439.3
8439.8
8440.1
8440.68
8441.13
8441.69
8442.35
8442.87
8443.74
8444.24
8445.32
8445.79
8447.12
8447.51
8449.16
8449.42
8451.43
8451.55
8453.93
8453.93
8456.64
8501.12
8501.45
8501.65
8502.14
8502.37
8503
8503.31
8504.04
8504.47
8505.28
8505.81
8506.77
8507.34
8508.5
8509.05
8510.48
8510.97
8512.73
8513.1
8515.25
8515.47
8518.03
8518.07
8521.1
8560.94
8561.23
8561.51
8561.85
8562.29
8562.73
8563.25
8563.86
8564.43
8565.23
8565.84
8566.84
8567.47
8568.7
8569.33
8570.84
8571.42
8573.28
8573.74
8576.01
8576.31
8579.07
8579.2
8582.35
8617.96
8618.24
8618.48
8618.89
8619.24
8619.8
8620.25
8620.95
8621.51
8622.37
8623.01
8624.06
8624.75
8626.04
8626.74
8628.32
8628.98
8630.93
8631.47
8633.85
8634.22
8637.11
8637.29
8640.67
8672.27
8672.53
8672.78
8673.16
8673.56
8674.08
8674.59
8675.28
8675.88
8676.77
8677.45
8678.54
8679.28
8680.63
8681.38
8683.03
8683.75
8685.77
8686.39
8688.86
8689.3
8692.31
8692.53
8696.09
8723.97
8724.22
8724.46
8724.85
8725.24
8725.78
8726.29
8727.01
8727.63
8728.54
8729.26
8730.39
8731.17
8732.56
8733.37
8735.06
8735.84
8737.92
8738.61
8741.16
8741.66
8744.78
8745.03
8748.75
8773.17
8773.41
8773.65
8774.03
8774.42
8774.97
8775.49
8776.23
8776.86
8777.8
8778.54
8779.7
8780.51
8781.94
8782.79
8784.53
8785.37
8787.5
8788.24
8790.86
8791.41
8794.61
8794.9
8798.76
8819.97
8820.19
8820.43
8820.81
8821.2
8821.75
8822.28
8823.03
8823.68
8824.63
8825.39
8826.58
8827.42
8828.88
8829.77
8831.54
8832.42
8834.59
8835.39
8838.05
8838.66
8841.93
8842.26
8846.24
8864.47
8864.67
8864.91
8865.28
8865.67
8866.23
8866.76
8867.52
8868.18
8869.15
8869.92
8871.13
8871.99
8873.48
8874.39
8876.2
8877.11
8879.32
8880.15
8882.86
8883.51
8886.84
8887.19
8891.27
8906.76
8906.95
8907.18
8907.55
8907.94
8908.5
8909.03
8909.79
8910.46
8911.44
8912.23
8913.45
8914.33
8915.84
8916.77
8918.61
8919.53
8921.78
8922.63
8925.38
8926.05
8929.42
8929.8
8933.94
8946.94
8947.12
8947.34
8947.71
8948.1
8948.65
8949.19
8949.96
8950.63
8951.62
8952.41
8953.65
8954.54
8956.06
8957
8958.86
8959.8
8962.07
8962.93
8965.71
8966.39
8969.8
8970.18
8974.35
8985.1
8985.27
8985.49
8985.85
8986.24
8986.79
8987.33
8988.1
8988.77
8989.77
8990.56
8991.81
8992.7
8994.24
8995.18
8997.06
8998
9000.3
9001.15
9003.97
9004.63
9008.08
9008.45
9012.63
9021.35
9021.51
9021.72
9022.07
9022.46
9023.01
9023.54
9024.31
9024.99
9025.98
9026.78
9028.03
9028.93
9030.47
9031.42
9033.31
9034.25
9036.56
9037.41
9040.25
9040.9
9044.37
9044.73
9048.92
9055.75
9055.91
9056.11
9056.46
9056.84
9057.39
9057.92
9058.69
9059.36
9060.36
9061.16
9062.41
9063.3
9064.85
9065.8
9067.7
9068.63
9070.95
9071.8
9074.64
9075.3
9078.76
9079.13
9083.32
9088.41
9088.56
9088.76
9089.1
9089.47
9090.02
9090.55
9091.31
9091.98
9092.98
9093.77
9095.03
9095.92
9097.47
9098.42
9100.31
9101.25
9103.57
9104.42
9107.25
9107.91
9111.37
9111.74
9115.92
9119.41
9119.54
9119.74
9120.08
9120.45
9120.99
9121.51
9122.27
9122.93
9123.93
9124.72
9125.97
9126.86
9128.41
9129.35
9131.24
9132.18
9134.49
9135.34
9138.17
9138.83
9142.28
9142.65
9146.82
9148.82
9148.94
9149.14
9149.47
9149.83
9150.37
9150.88
9151.64
9152.3
9153.29
9154.07
9155.33
9156.21
9157.75
9158.69
9160.57
9161.51
9163.81
9164.66
9167.48
9168.14
9171.58
9171.94
9176.1
9176.71
9176.83
9177.02
9177.35
9177.7
9178.24
9178.75
9179.5
9180.15
9181.14
9181.91
9183.16
9184.03
9185.57
9186.5
9188.38
9189.31
9191.6
9192.45
9195.25
9195.91
9199.33
9199.69
9203.83
9203.17
9203.29
9203.47
9203.79
9204.14
9204.67
9205.17
9205.92
9206.56
9207.55
9208.31
9209.56
9210.41
9211.95
9212.87
9214.74
9215.66
9217.94
9218.78
9221.56
9222.19
9225.65
9225.98
9230.09
9228.27
9228.37
9228.55
9228.87
9229.21
9229.73
9230.23
9230.97
9231.6
9232.59
9233.34
9234.58
9235.42
9236.95
9237.85
9239.72
9240.62
9242.89
9243.72
9246.5
9247.16
9250.5
9250.86
9254.97
9252.06
9252.16
9252.33
9252.64
9252.98
9253.5
9253.98
9254.72
9255.34
9256.32
9257.06
9258.3
9259.12
9260.65
9261.53
9263.4
9264.28
9266.54
9267.34
9270.1
9270.74
9274.1
9274.43
9278.49
9274.61
9274.71
9274.87
9275.18
9275.51
9276.03
9276.5
9277.24
9277.84
9278.82
9279.54
9280.78
9281.58
9283.11
9283.96
9285.83
9286.68
9288.94
9289.72
9292.47
9293.08
9296.42
9296.74
9300.76
9295.98
9296.08
9296.24
9296.54
9296.86
9297.37
9297.84
9298.57
9299.16
9300.14
9300.84
9302.08
9302.85
9304.39
9305.21
9307.08
9307.89
9310.16
9310.9
9313.65
9314.21
9317.55
9317.84
9321.82
9316.24
9316.33
9316.49
9316.79
9317.09
9317.61
9318.05
9318.79
9319.36
9320.34
9321.01
9322.26
9323
9324.54
9325.33
9327.21
9327.98
9330.26
9330.95
9333.7
9334.21
9337.54
9337.81
9341.75
9335.43
9335.51
9335.67
9335.96
9336.27
9336.77
9337.21
9337.94
9338.5
9339.48
9340.12
9341.37
9342.09
9343.64
9344.38
9346.27
9346.99
9349.28
9349.9
9352.71
9353.15
9356.46
9356.7
9360.59
9353.6
9353.68
9353.83
9354.13
9354.42
9354.93
9355.35
9356.09
9356.62
9357.6
9358.22
9359.47
9360.16
9361.71
9362.41
9364.32
9364.99
9367.3
9367.88
9370.64
9371.06
9374.36
9374.58
9378.41
9370.81
9370.89
9371.04
9371.33
9371.62
9372.12
9372.53
9373.26
9373.78
9374.76
9375.36
9376.61
9377.26
9378.82
9379.49
9381.4
9382.03
9384.33
9384.87
9387.65
9388.02
9391.3
9391.5
9395.28
9387.1
9387.18
9387.32
9387.61
9387.89
9388.39
9388.79
9389.52
9390.02
9391
9391.57
9392.83
9393.46
9395.01
9395.65
9397.55
9398.13
9400.48
9400.95
9403.72
9404.07
9407.32
9407.51
9411.25
9402.52
9402.6
9402.73
9403.02
9403.29
9403.79
9404.17
9404.91
9405.38
9406.37
9406.92
9408.18
9408.77
9410.33
9410.92
9412.86
9413.4
9415.71
9416.15
9418.93
9419.25
9422.46
9422.64
9426.34
9417.1
9417.18
9417.31
9417.6
9417.86
9418.36
9418.72
9419.46
9419.91
9420.91
9421.42
9422.7
9423.24
9424.84
9425.38
9427.31
9427.79
9430.15
9430.54
9433.3
9433.59
9436.78
9436.95
9440.59
9430.89
9430.97
9431.1
9431.38
9431.63
9432.14
9432.48
9433.23
9433.65
9434.66
9435.14
9436.43
9436.91
9438.55
9439.02
9441
9441.42
9443.77
9444.13
9446.87
9447.15
9450.3
9450.46
9454.05
9443.93
9444
9444.12
9444.41
9444.65
9445.16
9445.48
9446.24
9446.63
9447.66
9448.08
9449.42
9449.85
9451.49
9451.92
9453.91
9454.3
9456.64
9456.98
9459.69
9459.95
9463.07
9463.22
9466.77
9456.24
9456.31
9456.43
9456.72
9456.94
9457.46
9457.76
9458.54
9458.89
9459.94
9460.32
9461.67
9462.06
9463.72
9464.11
9466.09
9466.46
9468.79
9469.11
9471.79
9472.04
9475.12
9475.27
9478.77
9467.86
9467.94
9468.04
9468.34
9468.54
9469.08
9469.35
9470.14
9470.46
9471.52
9471.88
9473.23
9473.6
9475.25
9475.62
9477.59
9477.94
9480.24
9480.55
9483.21
9483.45
9486.49
9486.63
9490.08
9478.82
9478.9
9479
9479.3
9479.49
9480.03
9480.29
9481.08
9481.38
9482.44
9482.78
9484.12
9484.48
9486.12
9486.47
9488.43
9488.76
9491.05
9491.34
9493.98
9494.21
9497.21
9497.34
9500.75
9489.16
9489.23
9489.33
9489.63
9489.82
9490.35
9490.6
9491.38
9491.68
9492.73
9493.06
9494.39
9494.74
9496.36
9496.7
9498.64
9498.96
9501.23
9501.51
9504.11
9504.34
9507.3
9507.43
9510.8
9498.89
9498.96
9499.06
9499.36
9499.54
9500.07
9500.31
9501.09
9501.38
9502.42
9502.74
9504.06
9504.39
9506
9506.33
9508.25
9508.57
9510.8
9511.08
9513.66
9513.87
9516.8
9516.93
9520.25
9508.04
9508.12
9508.21
9508.5
9508.68
9509.21
9509.45
9510.21
9510.5
9511.53
9511.84
9513.15
9513.47
9515.07
9515.39
9517.29
9517.59
9519.81
9520.08
9522.62
9522.83
9525.73
9525.85
9529.14
9516.65
9516.71
9516.82
9517.1
9517.28
9517.79
9518.03
9518.79
9519.07
9520.09
9520.39
9521.69
9522
9523.59
9523.9
9525.78
9526.07
9528.26
9528.52
9531.04
9531.24
9534.11
9534.23
9537.47
9524.72
9524.78
9524.9
9525.15
9525.36
9525.83
9526.1
9526.82
9527.12
9528.11
9528.42
9529.7
9530
9531.57
9531.87
9533.74
9534.02
9536.19
9536.44
9538.94
9539.13
9541.97
9542.08
9545.29
9532.29
9532.35
9532.47
9532.7
9532.94
9533.36
9533.68
9534.33
9534.68
9535.61
9535.96
9537.19
9537.49
9539.05
9539.34
9541.19
9541.46
9543.61
9543.85
9546.32
9546.51
9549.31