/*--------------------------------*- C++ -*----------------------------------*\
  =========                 |
  \\      /  F ield         | OpenFOAM: The Open Source CFD Toolbox
   \\    /   O peration     | Website:  https://openfoam.org
    \\  /    A nd           | Version:  10
     \\/     M anipulation  |
\*---------------------------------------------------------------------------*/
FoamFile
{
    format      ascii;
    class       surfaceScalarField;
    location    "0.15";
    object      phi;
}
// * * * * * * * * * * * * * * * * * * * * * * * * * * * * * * * * * * * * * //

dimensions      [1 0 -1 0 0 0 0];

internalField   nonuniform List<scalar> 
8154
(
-5.87666e-09
-2.22872e-08
-5.71744e-08
-9.25649e-08
-1.72262e-07
-2.2706e-07
-3.70676e-07
-4.55108e-07
-6.74736e-07
-8.15189e-07
-1.10473e-06
-1.33969e-06
-1.66738e-06
-2.02944e-06
-2.35945e-06
-2.86706e-06
-3.25706e-06
-3.98918e-06
-4.56972e-06
-5.50948e-06
-6.82756e-06
-7.25157e-06
-6.84742e-06
-0.000277458
-0.000832427
2.39705e-08
-0.00138759
9.60596e-08
-0.001943
2.12982e-07
-0.0024989
3.77445e-07
-0.0030552
5.76577e-07
-0.00361235
8.2272e-07
-0.00416998
1.088e-06
-0.00472884
1.39739e-06
-0.00528828
1.71118e-06
-0.0058492
2.05531e-06
-0.00641105
2.40231e-06
-0.00697424
2.74573e-06
-0.00753924
3.12e-06
-0.00810472
3.43519e-06
-0.00867372
3.85062e-06
-0.0092409
4.12671e-06
-0.0098156
4.57366e-06
-0.010384
4.92397e-06
-0.0109653
5.13847e-06
-0.0115346
5.28075e-06
-0.0121243
5.11409e-06
-0.0126956
4.0275e-06
-0.0132938
2.44869e-06
-0.000277481
-0.000832496
2.62771e-08
-0.0013877
1.04591e-07
-0.00194316
2.34366e-07
-0.00249909
4.09565e-07
-0.00305544
6.34547e-07
-0.0036126
8.88879e-07
-0.00417028
1.19433e-06
-0.00472913
1.50086e-06
-0.00528861
1.86717e-06
-0.00584952
2.18992e-06
-0.00641138
2.59282e-06
-0.00697458
2.89015e-06
-0.00753954
3.29856e-06
-0.00810509
3.53689e-06
-0.00867397
3.9049e-06
-0.00924131
4.10488e-06
-0.00981592
4.39001e-06
-0.0103842
5.00104e-06
-0.0109654
4.66481e-06
-0.0115344
5.23211e-06
-0.0121232
5.32935e-06
-0.012694
5.0397e-06
-0.0132913
4.22532e-06
-0.000277507
-0.000832572
2.1206e-08
-0.00138782
8.46865e-08
-0.00194333
1.87676e-07
-0.00249931
3.2989e-07
-0.00305568
5.0122e-07
-0.00361289
7.06671e-07
-0.00417057
9.2243e-07
-0.00472948
1.16624e-06
-0.00528892
1.39437e-06
-0.0058499
1.64103e-06
-0.00641166
1.84574e-06
-0.00697496
2.04686e-06
-0.00753976
2.19647e-06
-0.00810542
2.2811e-06
-0.00867414
2.35419e-06
-0.00924156
2.20614e-06
-0.00981651
2.34314e-06
-0.0103838
1.89609e-06
-0.0109659
1.77556e-06
-0.0115345
1.39082e-06
-0.0121228
1.15603e-06
-0.0126932
7.19202e-07
-0.0132871
5.0889e-07
-0.000277527
-0.000832633
2.54358e-08
-0.00138792
1.01639e-07
-0.00194346
2.25642e-07
-0.00249947
3.97185e-07
-0.00305588
6.04996e-07
-0.0036131
8.55046e-07
-0.0041708
1.11935e-06
-0.00472969
1.42047e-06
-0.00528915
1.70286e-06
-0.00585008
2.01612e-06
-0.00641185
2.27162e-06
-0.00697508
2.54538e-06
-0.00753983
2.73267e-06
-0.00810546
2.89222e-06
-0.00867397
2.98593e-06
-0.00924166
2.89751e-06
-0.00981603
2.97453e-06
-0.0103837
2.27876e-06
-0.0109655
2.5102e-06
-0.0115342
1.72464e-06
-0.0121224
1.21035e-06
-0.0126929
3.78515e-07
-0.0132865
-1.79286e-07
-0.000277552
-0.000832706
3.35457e-08
-0.00138804
1.33996e-07
-0.00194363
2.98795e-07
-0.00249967
5.2585e-07
-0.00305612
8.07378e-07
-0.00361335
1.14113e-06
-0.00417109
1.51194e-06
-0.00472995
1.9191e-06
-0.00528945
2.33948e-06
-0.00585031
2.77262e-06
-0.00641211
3.19377e-06
-0.00697524
3.59301e-06
-0.00753997
3.96315e-06
-0.00810552
4.2558e-06
-0.00867386
4.52264e-06
-0.00924171
4.61493e-06
-0.00981531
4.73054e-06
-0.0103839
4.3966e-06
-0.0109646
4.35897e-06
-0.0115336
3.67317e-06
-0.0121215
3.22072e-06
-0.0126923
2.26944e-06
-0.0132866
1.3404e-06
-0.000277585
-0.000832804
3.74664e-08
-0.0013882
1.49663e-07
-0.00194385
3.34008e-07
-0.00249994
5.87908e-07
-0.00305645
9.03867e-07
-0.00361371
1.2779e-06
-0.00417149
1.69624e-06
-0.00473035
2.15395e-06
-0.00528988
2.63147e-06
-0.00585071
3.12032e-06
-0.0064125
3.60212e-06
-0.00697559
4.05535e-06
-0.00754024
4.48072e-06
-0.00810575
4.81864e-06
-0.00867393
5.12446e-06
-0.0092418
5.24948e-06
-0.00981495
5.36895e-06
-0.0103838
5.07805e-06
-0.0109639
4.95816e-06
-0.0115331
4.21694e-06
-0.0121205
3.69064e-06
-0.0126914
2.6392e-06
-0.0132853
1.60408e-06
-0.000277622
-0.000832914
4.12996e-08
-0.00138838
1.64984e-07
-0.0019441
3.6831e-07
-0.00250025
6.48427e-07
-0.00305681
9.97403e-07
-0.00361411
1.41084e-06
-0.00417194
1.87416e-06
-0.00473082
2.38194e-06
-0.00529035
2.91292e-06
-0.00585117
3.45842e-06
-0.00641293
3.99631e-06
-0.00697599
4.50635e-06
-0.00754056
4.98156e-06
-0.00810603
5.36801e-06
-0.00867403
5.70751e-06
-0.00924189
5.86194e-06
-0.00981464
5.99626e-06
-0.0103837
5.71398e-06
-0.0109631
5.5874e-06
-0.0115326
4.81136e-06
-0.0121194
4.21666e-06
-0.0126903
2.99103e-06
-0.0132836
1.78714e-06
-0.000277662
-0.000833036
4.49968e-08
-0.00138858
1.79738e-07
-0.00194437
4.01299e-07
-0.0025006
7.06424e-07
-0.00305722
1.08687e-06
-0.00361457
1.53739e-06
-0.00417243
2.04331e-06
-0.00473133
2.59761e-06
-0.00529088
3.17934e-06
-0.0058517
3.77716e-06
-0.00641343
4.36914e-06
-0.00697645
4.93146e-06
-0.00754093
5.45576e-06
-0.00810634
5.886e-06
-0.00867416
6.25816e-06
-0.009242
6.44042e-06
-0.00981433
6.5801e-06
-0.0103835
6.32355e-06
-0.0109623
6.16647e-06
-0.0115319
5.36968e-06
-0.0121182
4.85151e-06
-0.0126891
3.35946e-06
-0.0132818
2.0082e-06
-0.000277707
-0.000833168
4.8646e-08
-0.0013888
1.94286e-07
-0.00194467
4.33772e-07
-0.00250097
7.6341e-07
-0.00305766
1.17449e-06
-0.00361506
1.66099e-06
-0.00417298
2.20778e-06
-0.0047319
2.80671e-06
-0.00529147
3.4365e-06
-0.00585227
4.08432e-06
-0.00641398
4.72744e-06
-0.00697695
5.34022e-06
-0.00754134
5.91148e-06
-0.00810669
6.38447e-06
-0.00867432
6.7879e-06
-0.00924211
6.99544e-06
-0.00981405
7.13594e-06
-0.0103833
6.89914e-06
-0.0109615
6.71934e-06
-0.0115313
5.90542e-06
-0.0121168
4.86524e-06
-0.0126877
3.70749e-06
-0.0132797
2.20418e-06
-0.000277755
-0.000833312
5.22462e-08
-0.00138904
2.08633e-07
-0.001945
4.6577e-07
-0.00250137
8.19508e-07
-0.00305814
1.26059e-06
-0.0036156
1.78217e-06
-0.00417357
2.36847e-06
-0.00473252
3.01026e-06
-0.00529211
3.68571e-06
-0.0058529
4.38078e-06
-0.00641458
5.07187e-06
-0.00697751
5.73217e-06
-0.00754179
6.34785e-06
-0.00810707
6.8619e-06
-0.00867451
7.29601e-06
-0.00924223
7.52697e-06
-0.00981379
7.66669e-06
-0.0103831
7.4469e-06
-0.0109607
7.24672e-06
-0.0115305
6.39352e-06
-0.0121153
5.58807e-06
-0.0126862
4.03367e-06
-0.0132775
2.40162e-06
-0.000277807
-0.000833466
5.5812e-08
-0.00138929
2.22844e-07
-0.00194535
4.97471e-07
-0.00250181
8.75106e-07
-0.00305866
1.3459e-06
-0.00361618
1.90216e-06
-0.0041742
2.5273e-06
-0.00473318
3.21096e-06
-0.00529279
3.93044e-06
-0.00585358
4.67066e-06
-0.00641522
5.40685e-06
-0.00697811
6.11164e-06
-0.00754229
6.7686e-06
-0.00810749
7.32135e-06
-0.00867472
7.78527e-06
-0.00924235
8.04087e-06
-0.00981355
8.18671e-06
-0.0103829
7.96826e-06
-0.0109598
7.73935e-06
-0.0115297
6.85846e-06
-0.0121137
6.00734e-06
-0.0126845
4.35513e-06
-0.013275
2.58507e-06
-0.000277862
-0.000833631
5.93364e-08
-0.00138956
2.36894e-07
-0.00194572
5.28841e-07
-0.00250227
9.30189e-07
-0.0030592
1.43049e-06
-0.00361679
2.02125e-06
-0.00417487
2.68492e-06
-0.00473389
3.40998e-06
-0.00529352
4.17254e-06
-0.0058543
4.95645e-06
-0.00641591
5.7354e-06
-0.00697875
6.48176e-06
-0.00754282
7.17639e-06
-0.00810794
7.76431e-06
-0.00867495
8.25509e-06
-0.00924247
8.53363e-06
-0.00981331
8.68614e-06
-0.0103827
8.46578e-06
-0.0109589
8.2029e-06
-0.0115288
7.28379e-06
-0.012112
6.37346e-06
-0.0126828
4.65026e-06
-0.0132724
2.75574e-06
-0.000277921
-0.000833807
6.28186e-08
-0.00138985
2.5078e-07
-0.00194612
5.59868e-07
-0.00250277
9.8474e-07
-0.00305979
1.51438e-06
-0.00361745
2.13953e-06
-0.00417559
2.84164e-06
-0.00473464
3.60799e-06
-0.00529429
4.41332e-06
-0.00585507
5.24023e-06
-0.00641664
6.06056e-06
-0.00697944
6.84626e-06
-0.00754339
7.57541e-06
-0.00810841
8.19476e-06
-0.00867521
8.70868e-06
-0.0092426
9.00695e-06
-0.00981307
9.16363e-06
-0.0103824
8.94389e-06
-0.0109579
8.64128e-06
-0.0115279
7.67746e-06
-0.0121103
6.70634e-06
-0.0126808
4.89419e-06
-0.0132697
2.90213e-06
-0.000277983
-0.000833994
6.62609e-08
-0.00139016
2.64503e-07
-0.00194654
5.90535e-07
-0.00250329
1.03869e-06
-0.00306041
1.59741e-06
-0.00361814
2.25673e-06
-0.00417635
2.9971e-06
-0.00473544
3.8047e-06
-0.0052951
4.65274e-06
-0.00585588
5.52251e-06
-0.00641741
6.38369e-06
-0.00698015
7.20755e-06
-0.00754399
7.96902e-06
-0.00810891
8.61647e-06
-0.00867549
9.14943e-06
-0.00924274
9.46329e-06
-0.00981284
9.62236e-06
-0.010382
9.40534e-06
-0.010957
9.06123e-06
-0.0115269
8.05294e-06
-0.0121084
7.0121e-06
-0.0126788
5.0533e-06
-0.0132667
3.02687e-06
-0.000278049
-0.00083419
6.96698e-08
-0.00139048
2.78083e-07
-0.00194698
6.20859e-07
-0.00250385
1.09199e-06
-0.00306106
1.67939e-06
-0.00361888
2.37245e-06
-0.00417714
3.15067e-06
-0.00473628
3.99919e-06
-0.00529596
4.88978e-06
-0.00585673
5.8024e-06
-0.00641822
6.70447e-06
-0.0069809
7.56629e-06
-0.00754461
8.35934e-06
-0.00810944
9.03295e-06
-0.00867578
9.58152e-06
-0.00924288
9.90601e-06
-0.0098126
1.00634e-05
-0.0103817
9.84663e-06
-0.0109559
9.46197e-06
-0.0115258
8.41557e-06
-0.0121064
7.31259e-06
-0.0126768
5.27275e-06
-0.0132637
3.1569e-06
-0.000278118
-0.000834397
7.30479e-08
-0.00139082
2.91531e-07
-0.00194745
6.50837e-07
-0.00250443
1.1446e-06
-0.00306175
1.76013e-06
-0.00361965
2.48623e-06
-0.00417798
3.30149e-06
-0.00473716
4.19017e-06
-0.00529686
5.12269e-06
-0.00585762
6.07783e-06
-0.00641906
7.02084e-06
-0.00698169
7.92091e-06
-0.00754527
8.74599e-06
-0.00810997
9.44568e-06
-0.00867609
1.00087e-05
-0.00924302
1.03405e-05
-0.00981236
1.04895e-05
-0.0103813
1.02603e-05
-0.0109549
9.84215e-06
-0.0115247
8.75897e-06
-0.0121044
7.59446e-06
-0.0126746
5.49037e-06
-0.0132605
3.27781e-06
-0.000278191
-0.000834614
7.63846e-08
-0.00139118
3.048e-07
-0.00194794
6.80362e-07
-0.00250504
1.19627e-06
-0.00306247
1.83924e-06
-0.00362046
2.59741e-06
-0.00417886
3.44851e-06
-0.00473808
4.37602e-06
-0.00529781
5.34918e-06
-0.00585856
6.34581e-06
-0.00641995
7.32923e-06
-0.0069825
8.26761e-06
-0.00754595
9.12556e-06
-0.00811053
9.85244e-06
-0.0086764
1.04313e-05
-0.00924315
1.07707e-05
-0.00981211
1.09101e-05
-0.0103808
1.06645e-05
-0.0109538
1.02121e-05
-0.0115235
9.09239e-06
-0.0121023
7.86591e-06
-0.0126724
5.69006e-06
-0.0132572
3.39101e-06
-0.000278266
-0.000834841
7.96543e-08
-0.00139155
3.17787e-07
-0.00194845
7.09211e-07
-0.00250568
1.24666e-06
-0.00306322
1.91617e-06
-0.0036213
2.70522e-06
-0.00417978
3.59066e-06
-0.00473905
4.55527e-06
-0.00529879
5.56719e-06
-0.00585953
6.60351e-06
-0.00642087
7.62591e-06
-0.00698335
8.60185e-06
-0.00754666
9.49297e-06
-0.0081111
1.02483e-05
-0.00867673
1.08454e-05
-0.00924328
1.11945e-05
-0.00981184
1.13265e-05
-0.0103803
1.10666e-05
-0.0109526
1.05756e-05
-0.0115222
9.42217e-06
-0.0121001
8.13316e-06
-0.0126701
5.88428e-06
-0.0132537
3.50012e-06
-0.000278345
-0.000835078
8.2797e-08
-0.00139194
3.30267e-07
-0.00194898
7.36919e-07
-0.00250635
1.29501e-06
-0.003064
1.98989e-06
-0.00362218
2.80836e-06
-0.00418074
3.72636e-06
-0.00474006
4.72594e-06
-0.00529982
5.77424e-06
-0.00586054
6.84773e-06
-0.00642183
7.90673e-06
-0.00698423
8.91831e-06
-0.0075474
9.84172e-06
-0.00811168
1.06258e-05
-0.00867706
1.12433e-05
-0.0092434
1.16054e-05
-0.00981156
1.17342e-05
-0.0103798
1.14626e-05
-0.0109515
1.09325e-05
-0.0115209
9.75147e-06
-0.0120978
8.40158e-06
-0.0126677
6.0786e-06
-0.0132502
3.60899e-06
-0.000278428
-0.000835324
8.57373e-08
-0.00139234
3.41943e-07
-0.00194954
7.62863e-07
-0.00250704
1.34032e-06
-0.00306481
2.05904e-06
-0.0036231
2.90512e-06
-0.00418173
3.85362e-06
-0.0047411
4.88581e-06
-0.00530088
5.96782e-06
-0.0058616
7.0755e-06
-0.00642283
8.16799e-06
-0.00698515
9.21215e-06
-0.00754816
1.01655e-05
-0.00811229
1.09771e-05
-0.00867741
1.16157e-05
-0.00924351
1.19938e-05
-0.00981127
1.21246e-05
-0.0103793
1.18461e-05
-0.0109503
1.12805e-05
-0.0115196
1.00793e-05
-0.0120955
8.67379e-06
-0.0126652
6.2792e-06
-0.0132466
3.72218e-06
-0.000278513
-0.000835579
8.83825e-08
-0.00139276
3.52468e-07
-0.00195011
7.86299e-07
-0.00250775
1.38137e-06
-0.00306565
2.12187e-06
-0.00362404
2.9933e-06
-0.00418276
3.96985e-06
-0.00474217
5.03201e-06
-0.00530198
6.14482e-06
-0.00586268
7.28347e-06
-0.00642386
8.40591e-06
-0.00698609
9.47891e-06
-0.00754896
1.04585e-05
-0.00811292
1.12945e-05
-0.00867778
1.19529e-05
-0.00924363
1.23474e-05
-0.00981097
1.24848e-05
-0.0103787
1.22066e-05
-0.010949
1.16194e-05
-0.0115182
1.03985e-05
-0.0120931
8.94169e-06
-0.0126626
6.48704e-06
-0.0132428
3.84224e-06
-0.000278601
-0.000835841
9.06507e-08
-0.00139319
3.61499e-07
-0.0019507
8.0648e-07
-0.00250849
1.41688e-06
-0.00306652
2.17651e-06
-0.00362501
3.0704e-06
-0.00418381
4.07201e-06
-0.00474328
5.16103e-06
-0.00530311
6.30147e-06
-0.00586379
7.46765e-06
-0.00642492
8.61639e-06
-0.00698706
9.71412e-06
-0.00754978
1.07158e-05
-0.00811357
1.15718e-05
-0.00867816
1.22462e-05
-0.00924375
1.26548e-05
-0.00981067
1.27989e-05
-0.0103781
1.25252e-05
-0.0109478
1.19274e-05
-0.0115167
1.06876e-05
-0.0120906
9.18753e-06
-0.01266
6.69177e-06
-0.0132389
3.96497e-06
-0.000278691
-0.000836111
9.24654e-08
-0.00139363
3.68753e-07
-0.00195131
8.22756e-07
-0.00250924
1.44568e-06
-0.00306741
2.22113e-06
-0.00362601
3.13384e-06
-0.00418489
4.15672e-06
-0.00474441
5.26879e-06
-0.00530426
6.43309e-06
-0.00586494
7.62306e-06
-0.00642601
8.79427e-06
-0.00698805
9.91266e-06
-0.00755062
1.09319e-05
-0.00811423
1.18031e-05
-0.00867856
1.24887e-05
-0.00924388
1.29068e-05
-0.00981038
1.30548e-05
-0.0103775
1.27835e-05
-0.0109465
1.21745e-05
-0.0115152
1.09235e-05
-0.0120881
9.38645e-06
-0.0126572
6.86736e-06
-0.013235
4.07276e-06
-0.000278783
-0.000836386
9.37858e-08
-0.00139409
3.74027e-07
-0.00195193
8.34642e-07
-0.00251002
1.46684e-06
-0.00306832
2.25417e-06
-0.00362703
3.18123e-06
-0.004186
4.22066e-06
-0.00474557
5.35098e-06
-0.00530544
6.53448e-06
-0.0058661
7.74377e-06
-0.00642711
8.93328e-06
-0.00698906
1.00682e-05
-0.00755148
1.11007e-05
-0.0081149
1.19823e-05
-0.00867896
1.2674e-05
-0.00924402
1.30962e-05
-0.00981008
1.32433e-05
-0.0103769
1.29711e-05
-0.0109453
1.23494e-05
-0.0115136
1.10914e-05
-0.0120856
9.51294e-06
-0.0126543
6.96993e-06
-0.0132309
4.13213e-06
-0.000278876
-0.000836665
9.4592e-08
-0.00139454
3.77268e-07
-0.00195256
8.41978e-07
-0.0025108
1.47996e-06
-0.00306924
2.27485e-06
-0.00362806
3.21125e-06
-0.00418712
4.26169e-06
-0.00474675
5.40455e-06
-0.00530664
6.60157e-06
-0.00586728
7.82506e-06
-0.00642824
9.02802e-06
-0.00699008
1.01754e-05
-0.00755235
1.12172e-05
-0.00811558
1.21057e-05
-0.00867938
1.27986e-05
-0.00924415
1.32208e-05
-0.00980979
1.33609e-05
-0.0103762
1.30838e-05
-0.010944
1.24476e-05
-0.011512
1.11861e-05
-0.012083
9.55635e-06
-0.0126515
6.96343e-06
-0.0132268
4.11692e-06
-0.00027897
-0.000836946
9.52755e-08
-0.00139501
3.79988e-07
-0.0019532
8.48131e-07
-0.00251159
1.49098e-06
-0.00307017
2.29225e-06
-0.00362911
3.23664e-06
-0.00418826
4.29681e-06
-0.00474794
5.45115e-06
-0.00530786
6.66135e-06
-0.00586848
7.89959e-06
-0.00642938
9.11827e-06
-0.00699111
1.02818e-05
-0.00755323
1.13385e-05
-0.00811627
1.22403e-05
-0.00867979
1.29426e-05
-0.00924427
1.33719e-05
-0.0098095
1.35134e-05
-0.0103756
1.32382e-05
-0.0109427
1.25965e-05
-0.0115104
1.13367e-05
-0.0120804
9.67956e-06
-0.0126486
7.05722e-06
-0.0132226
4.23122e-06
-0.000279065
-0.00083723
9.55572e-08
-0.00139547
3.81125e-07
-0.00195384
8.50708e-07
-0.00251239
1.49558e-06
-0.00307111
2.29962e-06
-0.00363016
3.24755e-06
-0.00418941
4.31231e-06
-0.00474914
5.47245e-06
-0.00530909
6.69002e-06
-0.00586969
7.93736e-06
-0.00643053
9.16699e-06
-0.00699216
1.03429e-05
-0.00755412
1.14128e-05
-0.00811696
1.23274e-05
-0.00868021
1.30406e-05
-0.0092444
1.3478e-05
-0.00980921
1.36226e-05
-0.0103749
1.33494e-05
-0.0109414
1.27025e-05
-0.0115087
1.14402e-05
-0.0120777
9.77849e-06
-0.0126458
7.1408e-06
-0.0132184
4.42353e-06
-0.00027916
-0.000837515
9.53423e-08
-0.00139594
3.80241e-07
-0.00195448
8.48742e-07
-0.00251319
1.49211e-06
-0.00307205
2.29435e-06
-0.00363122
3.24023e-06
-0.00419056
4.30303e-06
-0.00475035
5.46147e-06
-0.00531033
6.67819e-06
-0.00587091
7.92605e-06
-0.0064317
9.15816e-06
-0.00699322
1.03388e-05
-0.00755502
1.14156e-05
-0.00811766
1.23386e-05
-0.00868063
1.30602e-05
-0.00924453
1.35049e-05
-0.00980892
1.36525e-05
-0.0103743
1.33802e-05
-0.0109402
1.2728e-05
-0.0115071
1.14686e-05
-0.0120751
9.80049e-06
-0.0126429
7.18787e-06
-0.0132141
3.97525e-06
-0.000279255
-0.000837798
9.46525e-08
-0.00139641
3.77503e-07
-0.00195512
8.42635e-07
-0.00251399
1.48131e-06
-0.00307299
2.27778e-06
-0.00363228
3.21677e-06
-0.00419171
4.27195e-06
-0.00475156
5.4222e-06
-0.00531157
6.63076e-06
-0.00587213
7.87125e-06
-0.00643287
9.09755e-06
-0.00699429
1.02749e-05
-0.00755593
1.13516e-05
-0.00811837
1.2278e-05
-0.00868106
1.30057e-05
-0.00924467
1.34582e-05
-0.00980863
1.36118e-05
-0.0103736
1.33437e-05
-0.0109389
1.26877e-05
-0.0115054
1.14318e-05
-0.0120724
9.75371e-06
-0.0126399
7.16247e-06
-0.0132099
3.93829e-06
-0.00027935
-0.00083808
9.35334e-08
-0.00139687
3.7302e-07
-0.00195575
8.32675e-07
-0.00251478
1.46382e-06
-0.00307393
2.251e-06
-0.00363333
3.17895e-06
-0.00419286
4.22181e-06
-0.00475276
5.35854e-06
-0.0053128
6.55301e-06
-0.00587335
7.77948e-06
-0.00643404
8.9927e-06
-0.00699536
1.01592e-05
-0.00755685
1.12281e-05
-0.00811909
1.21516e-05
-0.00868151
1.28815e-05
-0.00924481
1.33413e-05
-0.00980834
1.3505e-05
-0.0103729
1.32486e-05
-0.0109376
1.25983e-05
-0.0115037
1.13462e-05
-0.0120698
9.65094e-06
-0.0126369
7.08802e-06
-0.0132057
4.19326e-06
-0.000279443
-0.000838359
9.19931e-08
-0.00139733
3.66915e-07
-0.00195638
8.19142e-07
-0.00251556
1.44012e-06
-0.00307485
2.21488e-06
-0.00363436
3.12824e-06
-0.00419399
4.1549e-06
-0.00475395
5.27393e-06
-0.00531402
6.44976e-06
-0.00587456
7.65723e-06
-0.0064352
8.85165e-06
-0.00699642
1.00009e-05
-0.00755776
1.10551e-05
-0.00811981
1.19687e-05
-0.00868195
1.26948e-05
-0.00924496
1.31584e-05
-0.00980807
1.33332e-05
-0.0103723
1.3095e-05
-0.0109364
1.24647e-05
-0.011502
1.1234e-05
-0.0120672
9.54479e-06
-0.012634
7.01676e-06
-0.0132015
4.16759e-06
-0.000279535
-0.000838633
9.00931e-08
-0.00139778
3.5934e-07
-0.001957
8.02371e-07
-0.00251633
1.41083e-06
-0.00307576
2.17037e-06
-0.00363538
3.06596e-06
-0.0041951
4.07315e-06
-0.00475512
5.17114e-06
-0.00531522
6.32504e-06
-0.00587574
7.51009e-06
-0.00643634
8.68204e-06
-0.00699746
9.80971e-06
-0.00755866
1.08439e-05
-0.00812053
1.17415e-05
-0.0086824
1.24569e-05
-0.00924512
1.29182e-05
-0.00980782
1.31002e-05
-0.0103716
1.2881e-05
-0.0109351
1.22794e-05
-0.0115003
1.10875e-05
-0.0120647
9.43572e-06
-0.0126311
6.93764e-06
-0.0131973
4.12041e-06
-0.000279625
-0.000838902
8.78707e-08
-0.00139822
3.5053e-07
-0.00195761
7.82854e-07
-0.00251709
1.37673e-06
-0.00307666
2.11856e-06
-0.00363639
2.9936e-06
-0.0041962
3.97842e-06
-0.00475627
5.05255e-06
-0.0053164
6.18193e-06
-0.00587691
7.34228e-06
-0.00643746
8.48964e-06
-0.00699849
9.59363e-06
-0.00755955
1.06052e-05
-0.00812123
1.14831e-05
-0.00868285
1.21825e-05
-0.00924529
1.26349e-05
-0.00980759
1.28168e-05
-0.010371
1.26111e-05
-0.0109339
1.20388e-05
-0.0114986
1.0893e-05
-0.0120622
9.29179e-06
-0.0126283
6.85777e-06
-0.0131932
4.06574e-06
-0.000279712
-0.000839163
8.5422e-08
-0.00139865
3.40766e-07
-0.0019582
7.61201e-07
-0.00251783
1.33884e-06
-0.00307753
2.0609e-06
-0.00363736
2.91294e-06
-0.00419727
3.87281e-06
-0.00475739
4.92049e-06
-0.00531756
6.02303e-06
-0.00587805
7.15682e-06
-0.00643855
8.27836e-06
-0.00699949
9.358e-06
-0.00756041
1.03466e-05
-0.00812192
1.12041e-05
-0.0086833
1.18855e-05
-0.00924547
1.23249e-05
-0.00980737
1.24999e-05
-0.0103704
1.22993e-05
-0.0109328
1.17487e-05
-0.011497
1.0647e-05
-0.0120597
9.10968e-06
-0.0126255
6.77561e-06
-0.0131891
4.00647e-06
-0.000279797
-0.000839418
8.28089e-08
-0.00139907
3.30379e-07
-0.00195878
7.38114e-07
-0.00251854
1.2983e-06
-0.00307838
1.99902e-06
-0.00363832
2.82611e-06
-0.00419831
3.75878e-06
-0.00475849
4.77761e-06
-0.00531868
5.85095e-06
-0.00587916
6.95618e-06
-0.00643962
8.05057e-06
-0.00700047
9.10549e-06
-0.00756126
1.00719e-05
-0.00812259
1.09104e-05
-0.00868372
1.15755e-05
-0.00924563
1.20023e-05
-0.00980716
1.2168e-05
-0.0103699
1.19658e-05
-0.0109317
1.1425e-05
-0.0114954
1.03534e-05
-0.0120574
8.87506e-06
-0.0126227
6.64965e-06
-0.0131851
3.92997e-06
-0.00027988
-0.000839665
8.01259e-08
-0.00139947
3.1966e-07
-0.00195934
7.14241e-07
-0.00251924
1.25627e-06
-0.0030792
1.93461e-06
-0.00363924
2.73533e-06
-0.00419933
3.63904e-06
-0.00475956
4.62688e-06
-0.00531978
5.6687e-06
-0.00588025
6.74302e-06
-0.00644067
7.80829e-06
-0.00700143
8.8373e-06
-0.00756208
9.78161e-06
-0.00812324
1.06028e-05
-0.00868414
1.1255e-05
-0.00924579
1.16733e-05
-0.00980695
1.18338e-05
-0.0103693
1.1631e-05
-0.0109306
1.10945e-05
-0.0114939
1.00392e-05
-0.0120552
8.59215e-06
-0.0126199
6.42231e-06
-0.0131811
3.81942e-06
-0.00027996
-0.000839904
7.7413e-08
-0.00139987
3.0884e-07
-0.00195988
6.90095e-07
-0.00251991
1.21361e-06
-0.00308
1.86904e-06
-0.00364014
2.64254e-06
-0.00420031
3.51608e-06
-0.00476059
4.47127e-06
-0.00532085
5.47943e-06
-0.00588131
6.52036e-06
-0.00644169
7.55384e-06
-0.00700237
8.55454e-06
-0.0075629
9.47517e-06
-0.00812388
1.02788e-05
-0.00868455
1.09201e-05
-0.00924594
1.13342e-05
-0.00980674
1.14975e-05
-0.0103688
1.13022e-05
-0.0109295
1.07767e-05
-0.0114925
9.73843e-06
-0.012053
8.31302e-06
-0.0126173
6.18916e-06
-0.0131773
3.67673e-06
-0.000280037
-0.000840134
7.47121e-08
-0.00140024
2.98035e-07
-0.0019604
6.65955e-07
-0.00252056
1.17088e-06
-0.00308078
1.8032e-06
-0.00364101
2.54905e-06
-0.00420126
3.39172e-06
-0.00476159
4.31312e-06
-0.00532189
5.28595e-06
-0.00588234
6.29118e-06
-0.00644269
7.29002e-06
-0.00700329
8.25905e-06
-0.00756369
9.15252e-06
-0.00812451
9.93562e-06
-0.00868496
1.05646e-05
-0.00924609
1.09757e-05
-0.00980654
1.1148e-05
-0.0103682
1.09698e-05
-0.0109285
1.04692e-05
-0.011491
9.45853e-06
-0.0120508
8.05839e-06
-0.0126148
5.97126e-06
-0.0131736
3.49062e-06
-0.000280111
-0.000840357
7.20131e-08
-0.00140061
2.87239e-07
-0.00196091
6.4181e-07
-0.00252119
1.12808e-06
-0.00308152
1.73718e-06
-0.00364184
2.45514e-06
-0.00420218
3.26651e-06
-0.00476256
4.15334e-06
-0.00532289
5.08958e-06
-0.00588333
6.05722e-06
-0.00644365
7.01879e-06
-0.00700417
7.95258e-06
-0.00756446
8.8144e-06
-0.00812512
9.57173e-06
-0.00868536
1.01833e-05
-0.00924626
1.05874e-05
-0.00980636
1.07692e-05
-0.0103677
1.06123e-05
-0.0109275
1.01507e-05
-0.0114896
9.1847e-06
-0.0120487
7.83639e-06
-0.0126123
5.78938e-06
-0.0131701
3.31727e-06
-0.000280183
-0.000840571
6.92914e-08
-0.00140096
2.76357e-07
-0.00196139
6.17467e-07
-0.00252179
1.0849e-06
-0.00308224
1.67052e-06
-0.00364265
2.36026e-06
-0.00420307
3.13988e-06
-0.00476349
3.9914e-06
-0.00532385
4.89003e-06
-0.00588429
5.81851e-06
-0.00644458
6.74068e-06
-0.00700503
7.63599e-06
-0.00756521
8.46176e-06
-0.00812572
9.18734e-06
-0.00868576
9.77438e-06
-0.00924643
1.01634e-05
-0.00980619
1.03478e-05
-0.0103672
1.02073e-05
-0.0109265
9.78757e-06
-0.0114883
8.8745e-06
-0.0120467
7.60967e-06
-0.0126098
5.6417e-06
-0.0131668
3.29249e-06
-0.000280252
-0.000840777
6.65032e-08
-0.0014013
2.65183e-07
-0.00196186
5.92459e-07
-0.00252237
1.04055e-06
-0.00308293
1.60206e-06
-0.00364342
2.2628e-06
-0.00420392
3.00977e-06
-0.00476438
3.82484e-06
-0.00532477
4.68449e-06
-0.0058852
5.5721e-06
-0.00644546
6.45286e-06
-0.00700585
7.3068e-06
-0.00756593
8.09277e-06
-0.00812629
8.78113e-06
-0.00868615
9.33668e-06
-0.0092466
9.70116e-06
-0.00980603
9.87704e-06
-0.0103668
9.7405e-06
-0.0109255
9.35205e-06
-0.011487
8.48175e-06
-0.0120447
7.3061e-06
-0.0126074
5.4284e-06
-0.0131635
3.22642e-06
-0.000280318
-0.000840975
6.35628e-08
-0.00140162
2.53437e-07
-0.00196231
5.66167e-07
-0.00252293
9.93885e-07
-0.0030836
1.53005e-06
-0.00364416
2.16032e-06
-0.00420474
2.87288e-06
-0.00476524
3.64957e-06
-0.00532566
4.46795e-06
-0.00588608
5.31235e-06
-0.00644631
6.14877e-06
-0.00700663
6.95867e-06
-0.00756661
7.7005e-06
-0.00812684
8.34812e-06
-0.00868651
8.86492e-06
-0.00924676
9.19913e-06
-0.00980588
9.35182e-06
-0.0103664
9.20896e-06
-0.0109247
8.82805e-06
-0.0114858
7.98758e-06
-0.0120428
6.87866e-06
-0.0126052
5.09322e-06
-0.0131603
3.0427e-06
-0.000280381
-0.000841164
6.07525e-08
-0.00140193
2.42122e-07
-0.00196274
5.40835e-07
-0.00252346
9.49002e-07
-0.00308423
1.46084e-06
-0.00364486
2.062e-06
-0.00420551
2.74177e-06
-0.00476605
3.48206e-06
-0.0053265
4.26134e-06
-0.00588691
5.06536e-06
-0.00644711
5.86031e-06
-0.00700736
6.63015e-06
-0.00756725
7.33133e-06
-0.00812735
7.94367e-06
-0.00868684
8.42558e-06
-0.0092469
8.73596e-06
-0.00980572
8.86449e-06
-0.010366
8.71817e-06
-0.0109238
8.33333e-06
-0.0114847
7.52008e-06
-0.012041
6.45462e-06
-0.0126031
4.75169e-06
-0.0131572
2.81477e-06
-0.000280441
-0.000841344
5.82459e-08
-0.00140223
2.32119e-07
-0.00196315
5.1846e-07
-0.00252396
9.09352e-07
-0.00308483
1.39991e-06
-0.00364553
1.97573e-06
-0.00420625
2.62726e-06
-0.00476682
3.33638e-06
-0.0053273
4.08294e-06
-0.00588769
4.85323e-06
-0.00644788
5.61526e-06
-0.00700806
6.35308e-06
-0.00756786
7.02526e-06
-0.00812782
7.61194e-06
-0.00868714
8.07584e-06
-0.00924701
8.37339e-06
-0.00980556
8.49816e-06
-0.0103656
8.35436e-06
-0.010923
7.98651e-06
-0.0114836
7.19642e-06
-0.0120393
6.19396e-06
-0.0126012
4.54962e-06
-0.0131544
2.73719e-06
-0.000280499
-0.000841517
5.55639e-08
-0.00140251
2.21286e-07
-0.00196354
4.94223e-07
-0.00252445
8.66508e-07
-0.00308541
1.33401e-06
-0.00364617
1.88248e-06
-0.00420696
2.50352e-06
-0.00476756
3.17899e-06
-0.00532806
3.89024e-06
-0.00588845
4.62398e-06
-0.00644861
5.35028e-06
-0.00700872
6.05308e-06
-0.00756844
6.69363e-06
-0.00812827
7.25212e-06
-0.00868744
7.69756e-06
-0.00924712
7.98203e-06
-0.0098054
8.10408e-06
-0.0103653
7.96203e-06
-0.0109222
7.6134e-06
-0.0114826
6.84243e-06
-0.0120377
5.89231e-06
-0.0125994
4.30203e-06
-0.0131516
2.65588e-06
-0.000280554
-0.000841682
5.26186e-08
-0.00140278
2.09538e-07
-0.00196392
4.67951e-07
-0.00252491
8.20032e-07
-0.00308596
1.26259e-06
-0.00364679
1.7815e-06
-0.00420764
2.36953e-06
-0.00476827
3.00872e-06
-0.00532879
3.68197e-06
-0.00588917
4.37633e-06
-0.0064493
5.06393e-06
-0.00700936
5.72867e-06
-0.00756899
6.33472e-06
-0.00812871
6.86217e-06
-0.00868772
7.28756e-06
-0.00924723
7.55815e-06
-0.00980526
7.67726e-06
-0.0103649
7.53827e-06
-0.0109215
7.21819e-06
-0.0114817
6.47158e-06
-0.012036
5.56799e-06
-0.0125977
4.01319e-06
-0.013149
2.4584e-06
-0.000280606
-0.000841838
4.94601e-08
-0.00140304
1.96766e-07
-0.00196427
4.39401e-07
-0.00252534
7.69692e-07
-0.00308649
1.18519e-06
-0.00364736
1.67215e-06
-0.00420828
2.22452e-06
-0.00476893
2.82465e-06
-0.00532948
3.45716e-06
-0.00588985
4.10929e-06
-0.00644996
4.75544e-06
-0.00700996
5.37913e-06
-0.00756951
5.9482e-06
-0.00812912
6.44158e-06
-0.00868798
6.84541e-06
-0.00924734
7.09956e-06
-0.00980512
7.21368e-06
-0.0103645
7.07514e-06
-0.0109207
6.79254e-06
-0.0114807
6.07993e-06
-0.0120345
5.25495e-06
-0.0125962
4.06557e-06
-0.0131465
2.29764e-06
-0.000280655
-0.000841984
4.59828e-08
-0.00140327
1.82914e-07
-0.0019646
4.08473e-07
-0.00252575
7.1514e-07
-0.00308698
1.10139e-06
-0.00364791
1.55388e-06
-0.00420888
2.06771e-06
-0.00476956
2.6258e-06
-0.00533013
3.21474e-06
-0.00589049
3.82163e-06
-0.00645058
4.42361e-06
-0.00701052
5.00328e-06
-0.00757001
5.53334e-06
-0.00812951
5.98975e-06
-0.00868822
6.37121e-06
-0.00924745
6.60639e-06
-0.00980499
6.71413e-06
-0.0103642
6.56977e-06
-0.01092
6.3189e-06
-0.0114799
5.64138e-06
-0.012033
4.96455e-06
-0.0125946
3.6538e-06
-0.0131442
2.17009e-06
-0.000280701
-0.000842121
4.22671e-08
-0.0014035
1.67907e-07
-0.00196491
3.74987e-07
-0.00252613
6.56269e-07
-0.00308743
1.01089e-06
-0.00364841
1.42622e-06
-0.00420944
1.89849e-06
-0.00477014
2.41136e-06
-0.00533073
2.95367e-06
-0.00589108
3.51207e-06
-0.00645115
4.0671e-06
-0.00701105
4.5996e-06
-0.00757046
5.08881e-06
-0.00812987
5.50516e-06
-0.00868845
5.86414e-06
-0.00924756
6.07803e-06
-0.00980484
6.18376e-06
-0.010364
6.03073e-06
-0.0109193
5.81126e-06
-0.0114793
5.14524e-06
-0.0120316
4.60014e-06
-0.0125932
3.34293e-06
-0.013142
1.9946e-06
-0.000280742
-0.000842245
3.82168e-08
-0.0014037
1.51785e-07
-0.0019652
3.39013e-07
-0.00252648
5.9295e-07
-0.00308785
9.13612e-07
-0.00364887
1.28907e-06
-0.00420995
1.71665e-06
-0.00477068
2.18096e-06
-0.00533129
2.67338e-06
-0.00589163
3.17965e-06
-0.00645168
3.68482e-06
-0.00701153
4.16667e-06
-0.00757088
4.61356e-06
-0.00813021
4.98599e-06
-0.00868864
5.32271e-06
-0.00924766
5.51114e-06
-0.00980467
5.62163e-06
-0.0103638
5.45852e-06
-0.0109186
5.29637e-06
-0.0114787
5.04506e-06
-0.0120303
4.07321e-06
-0.0125918
3.03112e-06
-0.01314
1.80227e-06
-0.00028078
-0.000842358
3.39576e-08
-0.00140389
1.34581e-07
-0.00196545
3.00578e-07
-0.00252679
5.25433e-07
-0.00308823
8.09702e-07
-0.00364929
1.14261e-06
-0.00421042
1.5225e-06
-0.00477116
1.93489e-06
-0.00533179
2.37395e-06
-0.00589213
2.82398e-06
-0.00645215
3.27643e-06
-0.00701198
3.70374e-06
-0.00757126
4.10754e-06
-0.00813053
4.43114e-06
-0.00868882
4.748e-06
-0.00924777
4.90447e-06
-0.00980449
5.0269e-06
-0.0103636
4.83772e-06
-0.0109181
4.80934e-06
-0.011478
4.35874e-06
-0.0120293
3.66775e-06
-0.0125906
2.72982e-06
-0.0131382
1.61669e-06
-0.000280813
-0.000842458
2.93953e-08
-0.00140405
1.16396e-07
-0.00196568
2.59903e-07
-0.00252707
4.53877e-07
-0.00308857
6.99541e-07
-0.00364966
9.87482e-07
-0.00421083
1.31691e-06
-0.00477159
1.67424e-06
-0.00533223
2.05647e-06
-0.00589257
2.44567e-06
-0.00645258
2.84289e-06
-0.00701238
3.21092e-06
-0.00757158
3.57303e-06
-0.00813083
3.84059e-06
-0.00868896
4.14446e-06
-0.00924789
4.25951e-06
-0.00980431
4.41074e-06
-0.0103636
4.56482e-06
-0.0109175
4.11971e-06
-0.0114774
3.75256e-06
-0.0120283
3.20625e-06
-0.0125895
2.39831e-06
-0.0131366
1.42043e-06
-0.000280842
-0.000842544
2.45996e-08
-0.00140419
9.72103e-08
-0.00196588
2.17069e-07
-0.00252731
3.78779e-07
-0.00308886
5.83867e-07
-0.00364999
8.24705e-07