/*--------------------------------*- C++ -*----------------------------------*\
  =========                 |
  \\      /  F ield         | OpenFOAM: The Open Source CFD Toolbox
   \\    /   O peration     | Website:  https://openfoam.org
    \\  /    A nd           | Version:  10
     \\/     M anipulation  |
\*---------------------------------------------------------------------------*/
FoamFile
{
    format      ascii;
    class       volScalarField;
    location    "0.15";
    object      rho;
}
// * * * * * * * * * * * * * * * * * * * * * * * * * * * * * * * * * * * * * //

dimensions      [1 -3 0 0 0 0 0];

internalField   nonuniform List<scalar> 
4176
(
0.0308542
0.0308571
0.0308643
0.0308731
0.0308881
0.0309024
0.0309252
0.030945
0.0309754
0.031001
0.031038
0.0310704
0.0311124
0.0311532
0.0311981
0.0312495
0.0312927
0.0313605
0.0313989
0.0314843
0.0315164
0.0316215
0.0316417
0.0317559
0.0308616
0.0308643
0.0308706
0.0308789
0.0308917
0.0309056
0.0309251
0.0309441
0.0309703
0.0309947
0.031027
0.0310573
0.0310947
0.0311321
0.031173
0.031219
0.031259
0.0313193
0.0313549
0.0314313
0.0314588
0.0315588
0.0315796
0.0317085
0.030881
0.0308837
0.0308903
0.0308989
0.0309123
0.0309265
0.0309469
0.0309664
0.0309939
0.0310189
0.0310528
0.0310838
0.0311231
0.0311614
0.0312045
0.0312518
0.0312941
0.031357
0.0313927
0.0314728
0.0315005
0.0315993
0.0316182
0.0317392
0.0309094
0.0309121
0.0309185
0.0309268
0.0309399
0.0309536
0.0309736
0.0309924
0.0310193
0.0310434
0.0310767
0.0311064
0.0311453
0.0311819
0.0312246
0.0312702
0.0313121
0.0313751
0.0314061
0.0314886
0.0315139
0.0316114
0.0316292
0.0317413
0.0309488
0.0309515
0.0309578
0.0309662
0.0309792
0.030993
0.0310128
0.0310319
0.0310585
0.0310829
0.0311159
0.031146
0.0311846
0.0312214
0.0312641
0.0313091
0.031353
0.0314128
0.0314476
0.0315279
0.0315549
0.031652
0.0316712
0.0317849
0.0309981
0.0310008
0.031007
0.0310153
0.031028
0.0310418
0.0310612
0.0310802
0.0311062
0.0311305
0.0311627
0.0311927
0.0312305
0.031267
0.0313093
0.0313533
0.0313976
0.0314545
0.0314925
0.0315689
0.0315968
0.0316927
0.0317128
0.031828
0.0310579
0.0310605
0.0310667
0.031075
0.0310876
0.0311013
0.0311204
0.0311393
0.031165
0.0311891
0.0312211
0.0312508
0.0312884
0.0313243
0.0313665
0.0314097
0.0314543
0.0315095
0.0315485
0.031623
0.0316521
0.0317464
0.0317668
0.03188
0.0311279
0.0311305
0.0311366
0.0311448
0.0311572
0.0311708
0.0311897
0.0312084
0.0312337
0.0312576
0.0312891
0.0313184
0.0313555
0.031391
0.0314328
0.0314752
0.0315197
0.0315732
0.0316133
0.0316851
0.0317153
0.0318079
0.0318289
0.0319408
0.0312083
0.0312109
0.0312169
0.0312251
0.0312373
0.0312507
0.0312694
0.0312879
0.0313129
0.0313365
0.0313676
0.0313965
0.0314332
0.0314681
0.0315096
0.0315511
0.0315957
0.0316474
0.0316884
0.0317578
0.0317891
0.0318796
0.0319011
0.0320112
0.031299
0.0313016
0.0313075
0.0313156
0.0313277
0.0313409
0.0313593
0.0313776
0.0314022
0.0314255
0.0314562
0.0314847
0.0315209
0.0315551
0.0315963
0.0316369
0.0316813
0.0317314
0.0317731
0.0318401
0.0318725
0.0319603
0.0319825
0.0320908
0.0314002
0.0314027
0.0314086
0.0314166
0.0314285
0.0314416
0.0314597
0.0314777
0.031502
0.0315249
0.0315551
0.0315831
0.031619
0.0316525
0.0316932
0.0317329
0.0317771
0.0318257
0.0318679
0.0319325
0.0319654
0.0320513
0.0320737
0.03218
0.0315118
0.0315143
0.0315201
0.031528
0.0315397
0.0315526
0.0315704
0.0315882
0.0316121
0.0316346
0.0316644
0.0316919
0.0317272
0.03176
0.0318002
0.0318389
0.0318828
0.03193
0.0319725
0.0320347
0.0320684
0.0321516
0.0321743
0.0322786
0.0316341
0.0316365
0.0316422
0.0316499
0.0316615
0.0316742
0.0316917
0.0317091
0.0317326
0.0317547
0.0317841
0.031811
0.0318458
0.0318778
0.0319176
0.0319552
0.0319987
0.0320444
0.0320872
0.0321471
0.0321814
0.032262
0.0322848
0.0323868
0.0317669
0.0317693
0.0317748
0.0317825
0.0317938
0.0318063
0.0318234
0.0318405
0.0318636
0.0318853
0.0319141
0.0319404
0.0319747
0.032006
0.0320452
0.0320817
0.0321248
0.032169
0.0322119
0.0322694
0.032304
0.0323823
0.032405
0.0325047
0.0319104
0.0319128
0.0319183
0.0319258
0.0319369
0.031949
0.0319659
0.0319826
0.0320052
0.0320264
0.0320547
0.0320804
0.0321141
0.0321445
0.0321832
0.0322186
0.0322611
0.0323039
0.0323467
0.0324019
0.0324371
0.0325125
0.0325353
0.0326325
0.0320647
0.0320671
0.0320724
0.0320798
0.0320906
0.0321025
0.032119
0.0321353
0.0321575
0.0321781
0.0322059
0.0322309
0.032264
0.0322935
0.0323315
0.0323658
0.0324078
0.032449
0.0324916
0.0325444
0.0325799
0.0326525
0.0326758
0.0327701
0.0322299
0.0322323
0.0322375
0.0322447
0.0322553
0.0322669
0.032283
0.0322989
0.0323205
0.0323406
0.0323677
0.032392
0.0324244
0.032453
0.0324903
0.0325235
0.0325648
0.0326045
0.0326468
0.0326972
0.0327331
0.0328027
0.0328263
0.0329177
0.0324061
0.0324084
0.0324135
0.0324205
0.0324309
0.0324422
0.0324579
0.0324733
0.0324944
0.0325138
0.0325403
0.0325638
0.0325954
0.0326231
0.0326596
0.0326916
0.0327322
0.0327704
0.0328122
0.0328602
0.0328964
0.032963
0.032987
0.0330753
0.0325934
0.0325957
0.0326007
0.0326075
0.0326175
0.0326285
0.0326438
0.0326587
0.0326792
0.032698
0.0327238
0.0327464
0.0327773
0.0328039
0.0328396
0.0328704
0.0329102
0.0329468
0.0329881
0.0330338
0.0330701
0.0331337
0.033158
0.0332432
0.0327919
0.0327942
0.0327989
0.0328056
0.0328153
0.0328259
0.0328407
0.0328551
0.032875
0.0328932
0.0329182
0.03294
0.03297
0.0329956
0.0330304
0.0330598
0.0330988
0.0331337
0.0331744
0.0332176
0.0332541
0.0333146
0.0333393
0.0334211
0.0330017
0.033004
0.0330086
0.033015
0.0330244
0.0330346
0.0330489
0.0330628
0.0330821
0.0330995
0.0331237
0.0331446
0.0331737
0.0331982
0.033232
0.0332601
0.0332981
0.0333314
0.0333714
0.0334123
0.0334488
0.0335061
0.033531
0.0336095
0.0332229
0.0332251
0.0332296
0.0332357
0.0332448
0.0332546
0.0332684
0.0332817
0.0333003
0.0333169
0.0333403
0.0333603
0.0333885
0.0334118
0.0334446
0.0334713
0.0335083
0.0335398
0.0335789
0.0336175
0.0336539
0.0337079
0.0337331
0.0338082
0.0334556
0.0334578
0.0334621
0.033468
0.0334767
0.0334861
0.0334993
0.033512
0.0335299
0.0335457
0.0335683
0.0335872
0.0336145
0.0336366
0.0336683
0.0336937
0.0337294
0.0337592
0.0337974
0.0338337
0.0338698
0.0339205
0.0339458
0.0340175
0.0337
0.0337021
0.0337062
0.0337118
0.0337202
0.0337291
0.0337417
0.0337538
0.0337709
0.0337859
0.0338075
0.0338255
0.0338517
0.0338726
0.0339033
0.0339271
0.0339617
0.0339897
0.0340269
0.0340608
0.0340966
0.0341439
0.0341691
0.0342372
0.033956
0.0339581
0.033962
0.0339674
0.0339753
0.0339838
0.0339958
0.0340072
0.0340235
0.0340377
0.0340583
0.0340752
0.0341004
0.03412
0.0341495
0.0341719
0.0342053
0.0342314
0.0342675
0.0342991
0.0343343
0.0343784
0.0344034
0.0344678
0.0342238
0.0342258
0.0342295
0.0342346
0.0342422
0.0342501
0.0342616
0.0342722
0.0342877
0.034301
0.0343207
0.0343365
0.0343605
0.0343788
0.0344072
0.034428
0.0344602
0.0344844
0.0345194
0.0345485
0.0345832
0.0346238
0.0346487
0.0347091
0.0345034
0.0345054
0.0345089
0.0345138
0.0345209
0.0345284
0.0345392
0.0345492
0.0345638
0.0345762
0.0345949
0.0346095
0.0346324
0.0346494
0.0346764
0.0346956
0.0347265
0.0347489
0.0347827
0.0348094
0.0348432
0.0348805
0.0349055
0.034962
0.034795
0.0347969
0.0348002
0.0348048
0.0348115
0.0348185
0.0348287
0.0348379
0.0348518
0.0348632
0.0348809
0.0348943
0.034916
0.0349316
0.0349573
0.0349749
0.0350045
0.0350249
0.0350574
0.0350817
0.0351147
0.0351483
0.0351735
0.0352256
0.0350985
0.0351005
0.0351036
0.0351079
0.0351142
0.0351207
0.0351302
0.0351388
0.0351517
0.0351622
0.0351788
0.0351911
0.0352116
0.0352257
0.0352501
0.035266
0.0352942
0.0353126
0.0353438
0.0353658
0.0353977
0.0354278
0.035453
0.0355007
0.0354143
0.0354161
0.0354191
0.0354231
0.0354289
0.0354349
0.0354438
0.0354516
0.0354637
0.0354733
0.0354888
0.0354999
0.0355191
0.0355318
0.0355549
0.035569
0.0355957
0.0356122
0.035642
0.0356615
0.0356924
0.0357189
0.0357436
0.0357875
0.0357422
0.0357441
0.0357468
0.0357505
0.0357559
0.0357614
0.0357696
0.0357767
0.0357879
0.0357965
0.035811
0.035821
0.0358389
0.0358501
0.0358718
0.0358842
0.0359094
0.0359238
0.0359522
0.0359692
0.0359989
0.0360221
0.0360464
0.0360861
0.0360825
0.0360842
0.0360867
0.0360902
0.0360951
0.0361001
0.0361076
0.036114
0.0361244
0.036132
0.0361454
0.0361541
0.0361709
0.0361806
0.0362009
0.0362115
0.0362353
0.0362475
0.0362744
0.0362888
0.0363173
0.0363372
0.0363615
0.0363962
0.0364351
0.0364369
0.0364391
0.0364423
0.0364468
0.0364513
0.0364581
0.0364638
0.0364732
0.0364799
0.0364922
0.0364998
0.0365153
0.0365235
0.0365425
0.0365513
0.0365736
0.0365836
0.036609
0.0366209
0.036648
0.0366647
0.0366885
0.0367188
0.0368002
0.0368018
0.0368039
0.0368068
0.0368108
0.0368149
0.036821
0.0368259
0.0368345
0.0368402
0.0368515
0.0368578
0.036872
0.0368788
0.0368964
0.0369035
0.0369243
0.0369322
0.0369561
0.0369653
0.0369909
0.0370043
0.0370278
0.0370534
0.0371778
0.0371795
0.0371813
0.037184
0.0371876
0.0371911
0.0371965
0.0372008
0.0372084
0.0372132
0.0372234
0.0372285
0.0372415
0.0372468
0.037263
0.0372683
0.0372877
0.0372934
0.0373158
0.0373225
0.0373466
0.0373567
0.0373796
0.0374004
0.0375682
0.0375697
0.0375713
0.0375738
0.0375768
0.03758
0.0375847
0.0375883
0.037595
0.0375988
0.0376079
0.0376118
0.0376236
0.0376274
0.0376422
0.0376457
0.0376636
0.0376673
0.0376881
0.0376923
0.0377149
0.0377219
0.0377437
0.0377599
0.0379712
0.0379728
0.0379742
0.0379764
0.037979
0.0379817
0.0379857
0.0379886
0.0379945
0.0379974
0.0380054
0.038008
0.0380185
0.0380208
0.0380343
0.038036
0.0380524
0.0380539
0.0380733
0.038075
0.0380962
0.0381
0.0381206
0.0381321
0.0383871
0.0383886
0.0383898
0.0383918
0.0383939
0.0383962
0.0383996
0.0384018
0.0384068
0.0384087
0.0384157
0.0384172
0.0384264
0.0384272
0.0384392
0.0384391
0.0384541
0.0384534
0.0384713
0.0384704
0.0384902
0.0384909
0.0385106
0.0385171
0.038816
0.0388175
0.0388185
0.0388203
0.0388219
0.0388238
0.0388265
0.0388281
0.0388322
0.0388332
0.0388391
0.0388394
0.0388474
0.0388467
0.0388573
0.0388554
0.0388689
0.038866
0.0388823
0.0388788
0.0388973
0.0388948
0.0389136
0.0389154
0.039258
0.0392594
0.0392602
0.0392618
0.039263
0.0392645
0.0392664
0.0392674
0.0392706
0.0392708
0.0392756
0.0392747
0.0392815
0.0392794
0.0392886
0.0392849
0.0392969
0.0392917
0.0393065
0.0393003
0.0393173
0.0393117
0.0393293
0.039327
0.0397133
0.0397147
0.0397152
0.0397166
0.0397173
0.0397184
0.0397197
0.03972
0.0397224
0.0397216
0.0397254
0.0397234
0.039729
0.0397253
0.0397331
0.0397277
0.0397382
0.0397308
0.0397442
0.0397351
0.0397508
0.0397417
0.0397581
0.0397521
0.0401819
0.0401832
0.0401835
0.0401848
0.0401849
0.0401857
0.0401862
0.0401859
0.0401874
0.0401857
0.0401885
0.0401853
0.0401897
0.0401846
0.040191
0.0401838
0.0401929
0.0401832
0.0401952
0.0401832
0.0401976
0.0401851
0.0402003
0.0401901
0.040664
0.0406653
0.0406653
0.0406665
0.0406661
0.0406665
0.0406662
0.0406654
0.0406659
0.0406633
0.0406651
0.0406607
0.0406639
0.0406573
0.0406624
0.0406534
0.0406612
0.0406491
0.04066
0.040645
0.0406584
0.0406421
0.0406564
0.0406415
0.0411596
0.041161
0.0411607
0.0411617
0.0411607
0.0411608
0.0411598
0.0411583
0.041158
0.0411545
0.0411551
0.0411495
0.0411515
0.0411434
0.0411473
0.0411364
0.0411428
0.0411285
0.0411381
0.0411204
0.0411326
0.0411127
0.0411262
0.0411067
0.0416691
0.0416703
0.0416698
0.0416706
0.0416691
0.0416689
0.0416671
0.041665
0.0416637
0.0416593
0.0416589
0.0416521
0.0416529
0.0416433
0.0416458
0.0416331
0.0416382
0.0416215
0.04163
0.0416094
0.0416206
0.041597
0.0416101
0.041586
0.042192
0.0421934
0.0421926
0.0421932
0.0421912
0.0421906
0.042188
0.0421853
0.0421831
0.0421778
0.0421763
0.0421683
0.0421678
0.0421568
0.0421579
0.0421434
0.0421471
0.0421282
0.0421353
0.042112
0.0421222
0.0420947
0.0421077
0.0420786
0.0427292
0.0427303
0.0427293
0.0427298
0.0427271
0.0427262
0.0427228
0.0427195
0.0427164
0.0427101
0.0427076
0.0426984
0.0426967
0.0426841
0.0426839
0.0426676
0.0426699
0.0426487
0.0426545
0.0426282
0.0426378
0.0426061
0.0426195
0.042585
0.0432796
0.0432811
0.0432798
0.0432801
0.0432768
0.0432756
0.0432714
0.0432675
0.0432634
0.0432562
0.0432526
0.0432422
0.0432393
0.0432253
0.0432237
0.0432055
0.0432066
0.043183
0.0431875
0.0431581
0.043167
0.0431312
0.043145
0.0431053
0.0438446
0.0438456
0.0438441
0.0438443
0.0438404
0.0438389
0.0438339
0.0438294
0.0438244
0.0438163
0.0438116
0.0438
0.0437959
0.0437803
0.0437774
0.0437573
0.0437572
0.0437311
0.0437348
0.0437019
0.0437106
0.0436704
0.0436842
0.0436398
0.0444226
0.044424
0.0444222
0.0444222
0.0444179
0.044416
0.0444102
0.0444051
0.0443991
0.0443901
0.0443844
0.0443716
0.0443663
0.0443492
0.0443451
0.0443229
0.0443217
0.044293
0.044296
0.0442594
0.0442685
0.0442232
0.0442373
0.0441881
0.0450152
0.0450161
0.0450141
0.0450141
0.0450091
0.0450069
0.0450003
0.0449946
0.0449878
0.0449778
0.0449711
0.044957
0.0449506
0.044932
0.0449267
0.0449025
0.0449004
0.0448687
0.0448714
0.0448309
0.0448408
0.0447902
0.0448046
0.0447507
0.0456206
0.045622
0.0456197
0.0456195
0.0456139
0.0456115
0.0456041
0.0455978
0.0455902
0.0455793
0.0455716
0.0455563
0.0455489
0.0455285
0.0455223
0.0454959
0.045493
0.0454582
0.045461
0.0454167
0.0454258
0.045372
0.0453856
0.0453275
0.0462405
0.0462413
0.0462388
0.0462386
0.0462324
0.0462297
0.0462216
0.0462148
0.0462063
0.0461945
0.0461859
0.0461693
0.046161
0.0461388
0.046132
0.0461031
0.0460998
0.0460616
0.0460653
0.0460163
0.0460255
0.0459679
0.045981
0.0459186
0.0468729
0.0468742
0.0468714
0.0468709
0.0468644
0.0468614
0.0468525
0.0468452
0.0468359
0.0468232
0.0468139
0.0467958
0.0467869
0.0467626
0.0467557
0.0467239
0.0467208
0.0466794
0.0466821
0.0466304
0.0466388
0.0465781
0.0465904
0.046524
0.0475193
0.0475202
0.0475172
0.0475168
0.0475096
0.0475064
0.0474969
0.047489
0.047479
0.0474653
0.0474555
0.0474358
0.0474268
0.0473999
0.0473936
0.0473583
0.0473559
0.0473106
0.0473133
0.0472592
0.0472661
0.0472025
0.047214
0.0471438
0.048178
0.0481794
0.0481761
0.0481755
0.0481679
0.0481645
0.0481543
0.048146
0.0481354
0.0481206
0.0481106
0.0480889
0.0480804
0.0480506
0.0480451
0.0480062
0.0480039
0.0479567
0.047958
0.0479016
0.0479074
0.047841
0.0478518
0.0477777
0.0488502
0.0488513
0.0488478
0.0488473
0.0488392
0.0488356
0.0488248
0.0488159
0.0488051
0.0487888
0.0487793
0.0487551
0.0487472
0.0487154
0.0487089
0.0486691
0.0486652
0.0486167
0.0486164
0.0485582
0.0485629
0.0484937
0.0485037
0.048426
0.0495344
0.049536
0.0495319
0.0495317
0.049523
0.0495195
0.049508
0.0494984
0.0494879
0.04947
0.0494605
0.0494352
0.0494263
0.0493937
0.0493862
0.0493452
0.04934
0.0492899
0.0492886
0.0492285
0.0492319
0.0491604
0.0491696
0.0490884
0.0502315
0.0502329
0.0502287
0.0502287
0.0502191
0.050216
0.0502037
0.0501942
0.0501826
0.0501646
0.0501542
0.0501283
0.0501185
0.0500851
0.0500766
0.0500345
0.0500283
0.0499768
0.0499744
0.0499125
0.049915
0.049841
0.0498494
0.049765
0.0509405
0.050942
0.0509377
0.0509375
0.050928
0.0509245
0.0509115
0.0509026
0.0508897
0.0508717
0.0508605
0.0508341
0.0508235
0.0507895
0.0507798
0.050737
0.0507296
0.050677
0.0506734
0.0506099
0.0506113
0.0505353
0.0505429
0.0504554
0.0516616
0.0516631
0.0516589
0.0516585
0.0516489
0.0516452
0.0516319
0.0516232
0.0516088
0.0515917
0.051579
0.0515525
0.0515412
0.0515064
0.0514959
0.0514524
0.0514439
0.0513903
0.0513858
0.0513208
0.0513212
0.0512431
0.05125
0.0511596
0.0523945
0.0523961
0.0523918
0.0523914
0.0523816
0.0523779
0.0523642
0.0523555
0.0523402
0.0523237
0.0523093
0.0522836
0.0522711
0.0522357
0.0522245
0.0521803
0.0521709
0.0521163
0.0521108
0.0520444
0.0520438
0.051964
0.0519702
0.0518771
0.0531392
0.0531409
0.0531365
0.0531361
0.0531262
0.0531224
0.0531085
0.0530998
0.0530837
0.0530677
0.053052
0.0530269
0.0530128
0.0529776
0.0529655
0.0529207
0.0529103
0.052855
0.0528485
0.0527809
0.0527795
0.0526981
0.0527035
0.052608
0.0538956
0.0538972
0.0538929
0.0538924
0.0538824
0.0538786
0.0538645
0.0538557
0.0538392
0.0538233
0.0538067
0.0537819
0.0537662
0.0537318
0.0537184
0.053673
0.0536618
0.0536057
0.0535984
0.0535297
0.0535273
0.0534445
0.0534492
0.0533514
0.0546635
0.0546654
0.054661
0.0546605
0.0546504
0.0546466
0.0546322
0.0546234
0.0546064
0.0545907
0.0545731
0.0545486
0.054532
0.0544973
0.0544831
0.0544371
0.0544253
0.0543683
0.0543603
0.0542904
0.0542874
0.0542032
0.0542072
0.0541075
0.0554434
0.0554451
0.0554406
0.0554403
0.05543
0.0554261
0.0554114
0.0554025
0.055385
0.0553694
0.055351
0.0553266
0.0553092
0.0552741
0.055259
0.0552128
0.0552001
0.0551423
0.0551333
0.0550628
0.0550587
0.0549736
0.0549769
0.0548753
0.0562346
0.0562367
0.0562321
0.0562317
0.0562212
0.0562173
0.0562022
0.0561932
0.0561752
0.0561596
0.0561402
0.0561158
0.0560974
0.0560622
0.056046
0.0559996
0.0559861
0.0559273
0.0559179
0.0558464
0.0558416
0.0557554
0.0557579
0.0556549
0.0570379
0.0570397
0.057035
0.0570347
0.0570238
0.0570197
0.0570043
0.056995
0.0569764
0.0569606
0.0569401
0.0569159
0.0568963
0.0568609
0.0568439
0.0567968
0.0567829
0.0567233
0.0567128
0.0566407
0.0566348
0.056548
0.0565499
0.0564455
0.0578521
0.0578544
0.0578494
0.0578489
0.0578377
0.0578334
0.0578174
0.0578078
0.0577885
0.0577723
0.0577507
0.0577267
0.0577056
0.0576703
0.0576519
0.0576046
0.0575898
0.0575295
0.0575185
0.0574454
0.057439
0.0573514
0.0573525
0.0572472
0.0586777
0.0586796
0.0586745
0.0586738
0.0586622
0.0586574
0.0586409
0.0586308
0.0586108
0.0585942
0.0585714
0.0585474
0.0585245
0.0584897
0.0584701
0.058422
0.0584066
0.0583462
0.0583338
0.0582603
0.058253
0.0581651
0.0581655
0.0580593
0.0595126
0.0595149
0.0595095
0.0595085
0.0594966
0.0594913
0.0594743
0.0594635
0.0594428
0.0594256
0.0594019
0.0593779
0.0593532
0.0593191
0.0592974
0.0592499
0.0592326
0.0591724
0.0591595
0.0590854
0.0590776
0.058989
0.0589889
0.0588822
0.0603561
0.060358
0.0603527
0.0603514
0.0603393
0.0603336
0.0603162
0.0603049
0.0602836
0.0602659
0.0602414
0.0602173
0.060191
0.0601576
0.0601335
0.0600874
0.0600681
0.0600084
0.0599945
0.0599206
0.0599117
0.0598232
0.0598225
0.0597153
0.0612053
0.0612076
0.0612023
0.0612009
0.0611888
0.0611829
0.0611653
0.0611539
0.0611323
0.0611143
0.0610894
0.0610652
0.0610378
0.0610052
0.060979
0.0609346
0.0609136
0.0608539
0.0608391
0.060766
0.0607563
0.0606677
0.0606668
0.0605595
0.0620588
0.0620609
0.0620558
0.0620546
0.0620428
0.0620372
0.0620199
0.0620087
0.0619874
0.0619697
0.0619448
0.061921
0.0618931
0.0618614
0.0618339
0.0617909
0.0617676
0.0617103
0.0616929
0.0616216
0.0616109
0.0615229
0.0615216
0.0614144
0.0629141
0.0629165
0.0629118
0.062911
0.0628998
0.062895
0.0628785
0.0628683
0.0628478
0.0628311
0.062807
0.0627841
0.0627566
0.0627262
0.062698
0.0626569
0.0626318
0.0625768
0.062558
0.0624875
0.0624767
0.0623889
0.0623877
0.0622808
0.0637706
0.0637731
0.063769
0.0637691
0.0637588
0.0637552
0.0637399
0.0637312
0.0637123
0.0636972
0.0636747
0.0636536
0.0636273
0.0635988
0.0635712
0.0635322
0.0635066
0.0634537
0.0634346
0.0633637
0.0633535
0.0632661
0.0632649
0.0631583
0.0646291
0.064632
0.0646285
0.0646295
0.0646203
0.0646182
0.0646046
0.0645978
0.0645809
0.064568
0.0645476
0.064529
0.0645048
0.0644787
0.0644528
0.0644166
0.0643916
0.0643416
0.0643216
0.0642534
0.0642426
0.0641549
0.0641541
0.0640474
0.0654929
0.065496
0.0654931
0.0654951
0.0654869
0.0654863
0.0654742
0.0654694
0.0654545
0.065444
0.0654259
0.0654101
0.0653882
0.0653652
0.0653419
0.0653086
0.0652857
0.0652388
0.06522
0.0651543
0.0651443
0.0650568
0.0650561
0.0649483
0.0663676
0.0663713
0.0663683
0.0663714
0.0663636
0.0663644
0.066353
0.0663501
0.0663362
0.0663279
0.0663116
0.0662983
0.0662787
0.0662582
0.0662383
0.0662067
0.0661885
0.0661425
0.0661289
0.0660638
0.0660582
0.0659716
0.0659722
0.0658638
0.067261
0.0672654
0.0672615
0.067266
0.0672568
0.0672596
0.0672466
0.067246
0.0672307
0.0672249
0.0672082
0.0671968
0.067178
0.0671592
0.0671433
0.0671094
0.0671004
0.0670488
0.0670461
0.0669782
0.0669797
0.0668954
0.0668997
0.0667969
0.0681823
0.0681863
0.0681832
0.0681858
0.0681777
0.0681777
0.0681659
0.0681621
0.0681482
0.0681395
0.0681233
0.0681108
0.0680913
0.0680742
0.0680557
0.0680245
0.0680154
0.0679657
0.0679646
0.0678989
0.0679037
0.0678212
0.0678303
0.0677352
0.0691399
0.0691435
0.0691399
0.0691415
0.0691319
0.0691303
0.0691163
0.0691102
0.0690936
0.0690822
0.0690633
0.0690479
0.0690258
0.0690069
0.0689835
0.0689556
0.068939
0.0688928
0.06889
0.0688234
0.0688304
0.0687462
0.0687587
0.0686638
0.0701404
0.0701438
0.0701392
0.0701395
0.0701278
0.0701239
0.0701068
0.0700974
0.0700767
0.0700612
0.0700375
0.0700174
0.0699901
0.0699663
0.0699371
0.069906
0.0698825
0.0698365
0.0698263
0.0697574
0.0697646
0.0696753
0.0696902
0.0695912
0.0711868
0.0711905
0.0711844
0.0711837
0.0711695
0.0711633
0.0711425
0.0711296
0.0711039
0.0710837
0.0710538
0.0710279
0.0709933
0.0709628
0.0709252
0.0708872
0.0708552
0.0708017
0.0707855
0.0707077
0.0707124
0.0706144
0.07063
0.0705225
0.0722795
0.0722837
0.0722758
0.0722748
0.072258
0.07225
0.0722252
0.07221
0.0721783
0.0721554
0.072117
0.0720873
0.0720429
0.0720057
0.0719588
0.0719108
0.0718707
0.0718017
0.0717791
0.0716872
0.0716845
0.0715731
0.0715863
0.0714651
0.073415
0.0734184
0.0734114
0.073408
0.0733911
0.07338
0.0733544
0.0733344
0.0733018
0.0732718
0.0732322
0.0731936
0.0731458
0.0730997
0.073044
0.0729902
0.0729321
0.0728588
0.0728183
0.0727134
0.0726963
0.0725662
0.0725712
0.0724279
0.0745869
0.0745901
0.074583
0.074579
0.0745613
0.0745492
0.0745222
0.0745007
0.0744659
0.0744336
0.0743909
0.074349
0.074297
0.074246
0.0741846
0.0741238
0.0740548
0.0739806
0.0739123
0.0738098
0.073766
0.0736185
0.0736069
0.0734305
0.0757868
0.07579
0.0757829
0.0757788
0.0757609
0.0757486
0.0757212
0.0756991
0.0756637
0.0756305
0.0755869
0.0755434
0.07549
0.0754368
0.075373
0.0753092
0.0752359
0.0751577
0.0750791
0.0749782
0.074905
0.0747603
0.0747217
0.0745077
0.0770065
0.0770096
0.0770028
0.076999
0.0769814
0.0769695
0.0769423
0.0769207
0.0768857
0.0768529
0.0768097
0.0767668
0.0767137
0.0766611
0.0765976
0.0765341
0.0764612
0.0763832
0.0763039
0.0762049
0.0761254
0.0759891
0.075933
0.0757071
0.0782367
0.0782403
0.0782338
0.0782305
0.0782134
0.0782024
0.0781761
0.0781557
0.0781217
0.0780903
0.0780486
0.0780074
0.0779562
0.0779056
0.0778443
0.0777834
0.077713
0.0776382
0.0775639
0.0774658
0.0773984
0.0772605
0.0772209
0.0770224
0.0794703
0.0794741
0.0794679
0.0794654
0.079449
0.0794392
0.079414
0.0793952
0.0793628
0.0793335
0.0792938
0.0792551
0.0792063
0.0791588
0.0791008
0.0790435
0.0789769
0.0789068
0.0788368
0.0787449
0.0786829
0.0785529
0.0785161
0.0783321
0.0806994
0.0807036
0.0806978
0.0806962
0.0806806
0.0806722
0.0806483
0.0806313
0.0806008
0.0805738
0.0805365
0.0805008
0.0804549
0.080411
0.0803565
0.0803034
0.080241
0.080176
0.0801111
0.0800254
0.0799682
0.0798478
0.0798133
0.0796431
0.0819185
0.0819232
0.0819176
0.0819171
0.0819022
0.0818954
0.0818727
0.081858
0.0818291
0.0818051
0.0817698
0.0817378
0.0816945
0.0816549
0.0816037
0.0815554
0.0814973
0.0814383
0.0813771
0.0812985
0.0812464
0.0811355
0.0811033
0.0809469
0.0831223
0.0831274
0.0831216
0.0831228
0.0831081
0.0831035
0.0830815
0.0830697
0.0830417
0.0830216
0.0829875
0.0829603
0.0829186
0.0828845
0.0828356
0.0827931
0.0827387
0.0826852
0.0826292
0.0825571
0.0825091
0.0824082
0.082378
0.0822354
0.0843068
0.0843121
0.0843066
0.084309
0.0842946
0.0842922
0.0842707
0.0842621
0.0842349
0.0842189
0.0841855
0.0841638
0.0841226
0.0840953
0.084047
0.0840124
0.0839595
0.0839131
0.0838616
0.0837959
0.0837518
0.0836612
0.0836331
0.0835039
0.0854681
0.0854734
0.0854689
0.0854711
0.0854589
0.0854563
0.0854382
0.0854294
0.0854064
0.0853906
0.0853623
0.0853412
0.0853055
0.08528
0.0852371
0.0852057
0.0851578
0.085117
0.0850687
0.0850103
0.0849704
0.0848893
0.0848632
0.084747
0.0866038
0.0866091
0.0866052
0.0866078
0.0865969
0.0865952
0.086579
0.0865714
0.0865513
0.0865368
0.0865124
0.0864926
0.0864619
0.0864379
0.0864007
0.0863718
0.0863292
0.0862934
0.0862482
0.0861989
0.0861617
0.0860898
0.0860658
0.085962
0.0877109
0.0877164
0.087713
0.0877161
0.0877063
0.0877056
0.087691
0.0876849
0.087667
0.0876543
0.087633
0.0876153
0.0875886
0.0875671
0.0875345
0.0875087
0.0874708
0.0874393
0.0873984
0.0873575
0.0873215
0.087259
0.0872371
0.0871454
0.0887883
0.0887938
0.0887908
0.0887946
0.0887855
0.088786
0.0887727
0.0887683
0.0887524
0.0887417
0.088723
0.0887077
0.0886843
0.0886655
0.0886368
0.0886145
0.0885811
0.0885542
0.0885174
0.0884829
0.0884485
0.0883961
0.0883762
0.088296
0.0898341
0.0898394
0.0898369
0.0898411
0.089833
0.0898344
0.0898225
0.0898195
0.0898055
0.0897967
0.0897805
0.0897675
0.0897472
0.0897312
0.0897062
0.0896872
0.0896578
0.0896349
0.0896026
0.0895734
0.0895418
0.089498
0.0894803
0.0894109
0.0908473
0.0908527
0.0908504
0.0908552
0.0908477
0.0908503
0.0908395
0.090838
0.0908257
0.0908187
0.0908048
0.090794
0.0907765
0.0907632
0.0907416
0.0907257
0.0907003
0.0906815
0.0906531
0.0906291
0.0906004
0.0905656
0.0905485
0.0904899
0.091827
0.0918323
0.0918304
0.0918353
0.0918291
0.0918319
0.0918228
0.0918222
0.0918118
0.0918064
0.0917947
0.091786
0.0917712
0.0917605
0.0917419
0.0917292
0.0917072
0.0916919
0.0916672
0.0916478
0.0916232
0.0915955
0.0915799
0.0915307
0.0927729
0.0927782
0.0927763
0.0927824
0.0927755
0.0927806
0.0927712
0.0927729
0.0927633
0.09276
0.09275
0.0927434
0.092731
0.0927227
0.0927071
0.0926971
0.0926786
0.0926669
0.092646
0.0926306
0.0926093
0.0925883
0.0925744
0.0925337
0.0936844
0.0936893
0.0936887
0.0936931
0.0936896
0.0936924
0.093687
0.0936872
0.0936808
0.0936779
0.0936704
0.0936654
0.0936554
0.0936493
0.0936364
0.0936293
0.0936136
0.0936051
0.0935874
0.0935765
0.0935585
0.0935425
0.09353
0.0934981
0.0945618
0.0945672
0.0945648
0.0945732
0.0945653
0.0945743
0.0945643
0.0945703
0.0945618
0.0945624
0.0945553
0.0945527
0.0945445
0.0945406
0.0945302
0.0945254
0.0945129
0.0945073
0.0944931
0.0944853
0.0944708
0.0944596
0.0944488
0.0944248
0.0954049
0.0954091
0.0954102
0.0954128
0.0954137
0.0954139
0.095414
0.0954131
0.0954116
0.0954096
0.0954064
0.0954042
0.0953985
0.0953964
0.0953883
0.0953859
0.0953758
0.0953731
0.0953613
0.0953574
0.0953452
0.0953383
0.0953301
0.0953131
0.0962141
0.0962197
0.0962167
0.0962271
0.0962179
0.0962309
0.0962196
0.0962301
0.0962215
0.0962264
0.0962211
0.0962223
0.0962174
0.0962174
0.0962113
0.0962111
0.0962035
0.0962033
0.0961945
0.0961933
0.0961842
0.0961811
0.0961747
0.0961643
0.0969901
0.0969933
0.0969965
0.0969965
0.0970023
0.0969989
0.0970052
0.0970016
0.0970056
0.0970035
0.0970045
0.0970043
0.0970024
0.0970035
0.0969996
0.0970013
0.0969959
0.096998
0.0969913
0.0969934
0.0969864
0.0969869
0.0969833
0.096978
0.0977326
0.0977384
0.0977346
0.0977472
0.0977362
0.0977531
0.09774
0.0977549
0.0977458
0.0977546
0.0977504
0.097755
0.0977528
0.0977562
0.0977536
0.0977574
0.0977538
0.0977582
0.097754
0.0977586
0.0977541
0.0977582
0.0977557
0.097756
0.0984437
0.0984458
0.0984514
0.0984482
0.0984591
0.0984513
0.0984641
0.098457
0.0984667
0.0984636
0.0984685
0.0984697
0.0984712
0.0984748
0.0984744
0.0984794
0.0984779
0.0984841
0.0984815
0.0984888
0.0984861
0.098493
0.0984926
0.0984974
0.0991221
0.0991282
0.0991236
0.0991378
0.0991254
0.0991455
0.0991308
0.0991494
0.0991396
0.0991518
0.0991485
0.0991558
0.0991558
0.0991619
0.0991623
0.0991691
0.099169
0.0991769
0.0991766
0.0991858
0.099185
0.0991947
0.099195
0.0992046
0.0997714
0.0997725
0.0997797
0.0997743
0.0997888
0.0997782
0.0997955
0.099786
0.0997998
0.0997963
0.0998041
0.0998066
0.0998104
0.0998164
0.0998186
0.0998265
0.0998279
0.0998376
0.0998379
0.0998495
0.0998501
0.0998622
0.0998637
0.099877
0.100389
0.100395
0.100391
0.100405
0.100393
0.100413
0.1004
0.100419
0.10041
0.100424
0.100422
0.100431
0.100433
0.100441
0.100444
0.100453
0.100456
0.100467
0.100469
0.100482
0.100484
0.100498
0.100501
0.100517
0.10098
0.100981
0.100988
0.100983
0.100997
0.100988
0.101005
0.100997
0.101011
0.101009
0.101018
0.101022
0.101028
0.101036
0.10104
0.10105
0.101053
0.101066
0.101068
0.101083
0.101086
0.101103
0.101106
0.101125
0.101541
0.101546
0.101543
0.101554
0.101547
0.101562
0.101555
0.10157
0.101566
0.101578
0.101579
0.101589
0.101592
0.101602
0.101607
0.101618
0.101622
0.101635
0.10164
0.101656
0.10166
0.101678
0.101682
0.101703
0.102077
0.102078
0.102083
0.102082
0.102091
0.102088
0.102099
0.102098
0.102108
0.102111
0.102118
0.102125
0.102131
0.10214
0.102146
0.102158
0.102163
0.102178
0.102182
0.102199
0.102204
0.102224
0.102229
0.102251
0.102585
0.102588
0.102589
0.102594
0.102595
0.102602
0.102604
0.102611
0.102615
0.102623
0.102628
0.102636
0.102642
0.102653
0.102659
0.102671
0.102677
0.102692
0.102698
0.102717
0.102722
0.102743
0.102747
0.102773
0.10307
0.103072
0.103074
0.103077
0.10308
0.103086
0.103088
0.103096
0.103099
0.103108
0.103113
0.103122
0.103128
0.103139
0.103146
0.103159
0.103166
0.103182
0.103188
0.103207
0.103213
0.103235
0.10324
0.103268
0.103529
0.103532
0.103535
0.103536
0.103542
0.103543
0.103552
0.103553
0.103562
0.103567
0.103575
0.103583
0.103591
0.103602
0.103609
0.103622
0.10363
0.103646
0.103653
0.103673
0.10368
0.103703
0.103709
0.103737
0.103967
0.103969
0.10397
0.103976
0.103976
0.103985
0.103985
0.103995
0.103996
0.104008
0.104012
0.104023
0.104029
0.104041
0.104048
0.104063
0.10407
0.104087
0.104094
0.104115
0.104122
0.104146
0.104152
0.104181
0.104383
0.104384
0.104387
0.104389
0.104395
0.104396
0.104404
0.104407
0.104416
0.104421
0.104429
0.104438
0.104446
0.104457
0.104466
0.10448
0.104488
0.104505
0.104513
0.104535
0.104542
0.104567
0.104573
0.104604
0.104777
0.104779
0.10478
0.104785
0.104786
0.104793
0.104796
0.104804
0.104808
0.104817
0.104823
0.104834
0.104841
0.104853
0.104861
0.104876
0.104884
0.104902
0.104911
0.104931
0.104939
0.104965
0.104972
0.105003
0.105152
0.105153
0.105156
0.105158
0.105162
0.105166
0.105171
0.105177
0.105183
0.105191
0.105198
0.105208
0.105216
0.105228
0.105237
0.105252
0.10526
0.105278
0.105287
0.105309
0.105317
0.105343
0.105349
0.105382
0.105507
0.105509
0.10551
0.105514
0.105517
0.105522
0.105526
0.105533
0.105539
0.105547
0.105554
0.105564
0.105572
0.105584
0.105593
0.105608
0.105617
0.105635
0.105644
0.105665
0.105674
0.1057
0.105707
0.10574
0.105844
0.105846
0.105848
0.10585
0.105854
0.105858
0.105863
0.10587
0.105875
0.105884
0.105891
0.105901
0.105909
0.105922
0.10593
0.105946
0.105954
0.105973
0.105981
0.106004