/*--------------------------------*- C++ -*----------------------------------*\
  =========                 |
  \\      /  F ield         | OpenFOAM: The Open Source CFD Toolbox
   \\    /   O peration     | Website:  https://openfoam.org
    \\  /    A nd           | Version:  10
     \\/     M anipulation  |
\*---------------------------------------------------------------------------*/
FoamFile
{
    format      ascii;
    class       volScalarField;
    location    "0.15";
    object      T;
}
// * * * * * * * * * * * * * * * * * * * * * * * * * * * * * * * * * * * * * //

dimensions      [0 0 0 1 0 0 0];

internalField   nonuniform List<scalar> 
4176
(
180.357
180.362
180.377
180.396
180.429
180.46
180.51
180.551
180.62
180.671
180.758
180.819
180.923
180.994
181.11
181.201
181.316
181.439
181.544
181.713
181.786
182.02
182.035
182.336
180.366
180.372
180.387
180.407
180.44
180.472
180.523
180.566
180.635
180.688
180.777
180.839
180.946
181.019
181.138
181.231
181.349
181.474
181.581
181.754
181.828
182.072
182.089
182.42
180.394
180.399
180.414
180.434
180.466
180.497
180.546
180.589
180.656
180.708
180.794
180.855
180.96
181.031
181.148
181.238
181.355
181.476
181.581
181.75
181.82
182.059
182.076
182.418
180.445
180.451
180.466
180.485
180.517
180.549
180.598
180.64
180.707
180.759
180.846
180.906
181.012
181.081
181.2
181.289
181.408
181.531
181.631
181.805
181.872
182.107
182.122
182.448
180.52
180.525
180.54
180.559
180.591
180.622
180.67
180.712
180.779
180.83
180.916
180.975
181.08
181.148
181.267
181.353
181.473
181.594
181.692
181.867
181.933
182.165
182.181
182.496
180.619
180.624
180.639
180.658
180.689
180.72
180.768
180.81
180.875
180.926
181.011
181.07
181.174
181.241
181.36
181.444
181.567
181.681
181.785
181.955
182.024
182.253
182.271
182.587
180.741
180.747
180.761
180.78
180.811
180.842
180.889
180.93
180.995
181.045
181.129
181.187
181.29
181.357
181.474
181.557
181.68
181.789
181.898
182.061
182.132
182.358
182.378
182.692
180.888
180.894
180.908
180.927
180.957
180.987
181.034
181.075
181.139
181.188
181.272
181.329
181.431
181.496
181.613
181.693
181.816
181.922
182.033
182.19
182.263
182.487
182.508
182.818
181.058
181.064
181.078
181.097
181.127
181.157
181.203
181.243
181.306
181.355
181.437
181.493
181.594
181.658
181.774
181.853
181.975
182.077
182.189
182.341
182.416
182.635
182.658
182.963
181.253
181.259
181.272
181.291
181.32
181.35
181.395
181.435
181.497
181.545
181.626
181.681
181.78
181.844
181.958
182.035
182.157
182.255
182.368
182.516
182.592
182.807
182.83
183.13
181.471
181.476
181.49
181.508
181.537
181.566
181.611
181.65
181.711
181.759
181.838
181.893
181.99
182.052
182.165
182.24
182.361
182.456
182.57
182.711
182.792
182.997
183.023
183.318
181.712
181.718
181.732
181.749
181.778
181.806
181.851
181.889
181.949
181.996
182.074
182.127
182.223
182.284
182.395
182.469
182.588
182.68
182.794
182.931
183.011
183.212
183.239
183.528
181.978
181.984
181.997
182.014
182.042
182.07
182.114
182.151
182.211
182.256
182.333
182.385
182.479
182.539
182.648
182.72
182.837
182.926
183.04
183.171
183.253
183.449
183.475
183.759
182.267
182.273
182.286
182.303
182.33
182.358
182.4
182.437
182.495
182.54
182.615
182.666
182.759
182.817
182.924
182.994
183.109
183.196
183.309
183.435
183.518
183.707
183.734
184.011
182.58
182.586
182.598
182.615
182.642
182.669
182.71
182.746
182.803
182.847
182.921
182.97
183.061
183.118
183.223
183.29
183.404
183.487
183.6
183.721
183.804
183.987
184.014
184.285
182.917
182.922
182.935
182.951
182.977
183.004
183.044
183.079
183.135
183.177
183.25
183.298
183.387
183.442
183.544
183.61
183.722
183.802
183.914
184.029
184.113
184.289
184.317
184.581
183.277
183.282
183.295
183.311
183.336
183.362
183.401
183.435
183.49
183.531
183.601
183.648
183.735
183.788
183.889
183.952
184.061
184.139
184.249
184.359
184.443
184.613
184.641
184.898
183.661
183.667
183.678
183.694
183.719
183.744
183.782
183.815
183.868
183.908
183.977
184.022
184.106
184.158
184.256
184.317
184.424
184.498
184.607
184.712
184.795
184.959
184.987
185.237
184.069
184.074
184.086
184.101
184.125
184.149
184.187
184.218
184.27
184.308
184.375
184.419
184.501
184.55
184.646
184.705
184.809
184.88
184.986
185.086
185.169
185.327
185.355
185.598
184.501
184.506
184.517
184.532
184.555
184.578
184.615
184.645
184.695
184.732
184.797
184.839
184.918
184.966
185.058
185.115
185.217
185.285
185.389
185.484
185.566
185.717
185.745
185.981
184.956
184.961
184.972
184.986
185.008
185.031
185.066
185.095
185.144
185.179
185.241
185.282
185.359
185.404
185.494
185.547
185.646
185.711
185.812
185.903
185.984
186.128
186.156
186.384
185.435
185.44
185.45
185.464
185.486
185.507
185.541
185.569
185.615
185.649
185.71
185.748
185.822
185.865
185.952
186.003
186.099
186.16
186.259
186.345
186.424
186.562
186.59
186.81
185.938
185.942
185.952
185.965
185.986
186.007
186.039
186.066
186.11
186.142
186.201
186.237
186.308
186.349
186.433
186.481
186.574
186.632
186.727
186.808
186.886
187.017
187.045
187.256
186.464
186.468
186.478
186.49
186.51
186.53
186.56
186.586
186.629
186.659
186.715
186.749
186.818
186.856
186.937
186.982
187.071
187.126
187.218
187.294
187.371
187.495
187.522
187.725
187.013
187.017
187.027
187.039
187.057
187.076
187.105
187.129
187.17
187.198
187.252
187.283
187.35
187.385
187.463
187.505
187.591
187.642
187.73
187.802
187.877
187.993
188.02
188.214
187.586
187.59
187.599
187.61
187.628
187.645
187.673
187.696
187.735
187.761
187.812
187.841
187.905
187.937
188.012
188.051
188.134
188.181
188.266
188.333
188.405
188.515
188.54
188.727
188.182
188.186
188.194
188.205
188.222
188.238
188.264
188.285
188.322
188.346
188.395
188.422
188.483
188.512
188.584
188.619
188.699
188.742
188.823
188.886
188.956
189.058
189.082
189.261
188.801
188.805
188.812
188.823
188.838
188.854
188.879
188.898
188.933
188.955
189.001
189.025
189.083
189.11
189.178
189.21
189.286
189.326
189.403
189.462
189.528
189.624
189.646
189.817
189.443
189.446
189.453
189.463
189.478
189.492
189.515
189.533
189.566
189.586
189.63
189.651
189.706
189.73
189.795
189.823
189.896
189.931
190.005
190.059
190.122
190.21
190.23
190.396
190.107
190.11
190.117
190.126
190.14
190.153
190.175
190.191
190.222
190.239
190.281
190.3
190.352
190.372
190.434
190.459
190.528
190.559
190.63
190.678
190.738
190.82
190.84
190.994
190.794
190.797
190.803
190.812
190.824
190.836
190.857
190.871
190.9
190.915
190.955
190.971
191.02
191.037
191.096
191.117
191.182
191.21
191.276
191.32
191.376
191.451
191.47
191.613
191.503
191.506
191.512
191.519
191.532
191.542
191.561
191.573
191.601
191.614
191.651
191.664
191.711
191.725
191.78
191.797
191.859
191.882
191.944
191.984
192.036
192.105
192.121
192.258
192.234
192.237
192.243
192.249
192.26
192.269
192.287
192.298
192.323
192.334
192.369
192.38
192.423
192.434
192.486
192.5
192.558
192.577
192.635
192.669
192.718
192.78
192.796
192.921
192.987
192.99
192.995
193.001
193.011
193.019
193.036
193.044
193.068
193.077
193.109
193.117
193.158
193.166
193.215
193.225
193.279
193.294
193.348
193.378
193.422
193.478
193.492
193.608
193.762
193.764
193.769
193.774
193.784
193.79
193.806
193.813
193.834
193.841
193.871
193.877
193.915
193.92
193.965
193.971
194.022
194.033
194.083
194.107
194.148
194.198
194.21
194.317
194.558
194.561
194.565
194.569
194.578
194.583
194.597
194.603
194.623
194.627
194.655
194.658
194.693
194.695
194.737
194.74
194.787
194.794
194.841
194.86
194.897
194.94
194.95
195.047
195.376
195.378
195.382
195.385
195.394
195.397
195.41
195.414
195.432
195.435
195.46
195.46
195.493
195.492
195.531
195.53
195.574
195.576
195.619
195.633
195.667
195.704
195.71
195.799
196.214
196.216
196.22
196.223
196.23
196.233
196.245
196.246
196.263
196.264
196.286
196.284
196.314
196.31
196.346
196.341
196.382
196.38
196.42
196.429
196.459
196.491
196.494
196.573
197.073
197.075
197.079
197.08
197.088
197.088
197.099
197.1
197.115
197.113
197.134
197.129
197.156
197.149
197.183
197.174
197.212
197.205
197.242
197.245
197.272
197.298
197.298
197.368
197.953
197.955
197.959
197.959
197.966
197.965
197.975
197.974
197.987
197.984
198.002
197.996
198.02
198.01
198.04
198.028
198.062
198.051
198.085
198.084
198.107
198.127
198.124
198.186
198.853
198.855
198.858
198.858
198.864
198.862
198.872
198.868
198.88
198.875
198.891
198.882
198.904
198.891
198.919
198.902
198.934
198.919
198.949
198.942
198.962
198.976
198.97
199.024
199.774
199.775
199.779
199.778
199.784
199.78
199.789
199.783
199.794
199.787
199.801
199.79
199.809
199.793
199.818
199.798
199.827
199.807
199.834
199.822
199.839
199.846
199.838
199.884
200.714
200.716
200.719
200.717
200.723
200.718
200.725
200.718
200.728
200.718
200.731
200.717
200.734
200.715
200.738
200.714
200.74
200.716
200.74
200.723
200.736
200.737
200.727
200.765
201.675
201.676
201.679
201.676
201.682
201.675
201.682
201.674
201.681
201.67
201.68
201.664
201.679
201.657
201.678
201.65
201.674
201.645
201.667
201.644
201.656
201.649
201.637
201.666
202.654
202.656
202.659
202.655
202.66
202.652
202.658
202.648
202.654
202.641
202.65
202.631
202.644
202.619
202.637
202.606
202.627
202.594
202.613
202.584
202.594
202.582
202.567
202.588
203.655
203.655
203.658
203.653
203.658
203.649
203.654
203.642
203.647
203.632
203.638
203.618
203.628
203.601
203.616
203.581
203.6
203.562
203.579
203.545
203.554
203.535
203.517
203.53
204.672
204.673
204.676
204.67
204.675
204.664
204.669
204.655
204.658
204.642
204.646
204.623
204.631
204.601
204.614
204.576
204.592
204.55
204.565
204.524
204.532
204.506
204.488
204.491
205.71
205.71
205.713
205.706
205.711
205.698
205.702
205.687
205.689
205.67
205.673
205.648
205.653
205.621
205.631
205.589
205.603
205.556
205.571
205.524
205.53
205.497
205.478
205.473
206.764
206.765
206.768
206.76
206.765
206.75
206.754
206.737
206.737
206.717
206.718
206.69
206.694
206.658
206.667
206.621
206.633
206.581
206.594
206.542
206.545
206.504
206.49
206.473
207.838
207.838
207.841
207.832
207.836
207.82
207.824
207.805
207.804
207.782
207.781
207.751
207.753
207.714
207.721
207.672
207.681
207.626
207.636
207.579
207.581
207.533
207.518
207.493
208.927
208.928
208.931
208.92
208.925
208.908
208.911
208.89
208.888
208.864
208.861
208.83
208.829
208.788
208.792
208.74
208.748
208.688
208.696
208.633
208.635
208.579
208.563
208.53
210.036
210.035
210.038
210.027
210.031
210.012
210.014
209.992
209.989
209.964
209.959
209.925
209.923
209.879
209.882
209.825
209.832
209.768
209.775
209.703
209.71
209.643
209.628
209.587
211.157
211.158
211.161
211.148
211.153
211.133
211.134
211.11
211.107
211.079
211.073
211.037
211.033
210.986
210.988
210.927
210.934
210.864
210.87
210.792
210.798
210.726
210.71
210.661
212.297
212.296
212.299
212.286
212.29
212.269
212.27
212.245
212.24
212.211
212.203
212.165
212.16
212.11
212.11
212.045
212.053
211.973
211.987
211.9
211.904
211.827
211.81
211.754
213.449
213.449
213.452
213.438
213.442
213.42
213.421
213.394
213.388
213.357
213.349
213.308
213.303
213.249
213.249
213.179
213.188
213.104
213.113
213.023
213.027
212.944
212.926
212.863
214.618
214.616
214.619
214.605
214.609
214.585
214.586
214.558
214.551
214.519
214.51
214.466
214.461
214.403
214.403
214.33
214.337
214.249
214.258
214.163
214.166
214.078
214.059
213.989
215.797
215.797
215.8
215.785
215.788
215.764
215.764
215.735
215.728
215.693
215.685
215.638
215.634
215.57
215.573
215.495
215.501
215.41
215.417
215.319
215.319
215.227
215.207
215.131
216.991
216.99
216.993
216.978
216.981
216.956
216.955
216.925
216.918
216.881
216.873
216.823
216.819
216.754
216.754
216.675
216.679
216.587
216.591
216.49
216.489
216.393
216.372
216.29
218.195
218.195
218.197
218.182
218.185
218.16
218.159
218.127
218.121
218.082
218.073
218.022
218.017
217.95
217.949
217.869
217.87
217.776
217.779
217.675
217.672
217.573
217.551
217.464
219.412
219.411
219.414
219.399
219.401
219.376
219.373
219.342
219.334
219.295
219.286
219.234
219.227
219.16
219.157
219.075
219.075
218.98
218.98
218.875
218.871
218.767
218.745
218.652
220.638
220.638
220.64
220.625
220.627
220.602
220.599
220.568
220.558
220.52
220.509
220.457
220.448
220.381
220.376
220.293
220.292
220.196
220.194
220.087
220.081
219.974
219.951
219.854
221.875
221.875
221.877
221.861
221.864
221.838
221.835
221.804
221.793
221.756
221.742
221.691
221.681
221.614
221.607
221.524
221.521
221.423
221.42
221.312
221.305
221.195
221.171
221.07
223.121
223.121
223.123
223.107
223.109
223.084
223.08
223.05
223.037
223.001
222.985
222.935
222.923
222.857
222.848
222.765
222.761
222.662
222.657
222.547
222.539
222.427
222.403
222.298
224.376
224.376
224.379
224.362
224.365
224.339
224.335
224.305
224.291
224.256
224.238
224.19
224.177
224.108
224.099
224.016
224.011
223.911
223.905
223.794
223.785
223.67
223.646
223.537
225.64
225.639
225.642
225.626
225.628
225.603
225.598
225.568
225.554
225.52
225.501
225.453
225.437
225.371
225.36
225.276
225.27
225.17
225.162
225.051
225.04
224.923
224.899
224.787
226.911
226.912
226.914
226.898
226.9
226.875
226.87
226.84
226.826
226.792
226.771
226.724
226.706
226.641
226.63
226.544
226.537
226.437
226.429
226.316
226.305
226.186
226.161
226.047
228.192
228.191
228.194
228.178
228.18
228.155
228.15
228.12
228.104
228.071
228.049
228.002
227.984
227.919
227.907
227.819
227.812
227.712
227.702
227.589
227.576
227.456
227.432
227.314
229.479
229.48
229.483
229.466
229.468
229.442
229.437
229.407
229.391
229.357
229.334
229.288
229.268
229.203
229.19
229.102
229.094
228.993
228.983
228.869
228.857
228.734
228.71
228.59
230.776
230.775
230.777
230.762
230.762
230.737
230.731
230.7
230.684
230.65
230.626
230.58
230.558
230.493
230.48
230.39
230.382
230.28
230.269
230.155
230.141
230.019
229.994
229.873
232.077
232.078
232.08
232.063
232.064
232.038
232.031
232
231.983
231.949
231.923
231.878
231.854
231.79
231.772
231.686
231.677
231.571
231.561
231.448
231.433
231.309
231.285
231.162
233.385
233.384
233.386
233.37
233.37
233.343
233.336
233.304
233.286
233.251
233.224
233.18
233.153
233.09
233.069
232.986
232.976
232.868
232.857
232.744
232.728
232.605
232.58
232.457
234.695
234.695
234.697
234.68
234.68
234.652
234.645
234.612
234.593
234.558
234.529
234.485
234.456
234.395
234.372
234.289
234.277
234.169
234.16
234.045
234.03
233.906
233.881
233.758
236.006
236.006
236.008
235.99
235.99
235.962
235.955
235.921
235.902
235.866
235.837
235.794
235.762
235.703
235.677
235.596
235.578
235.48
235.467
235.349
235.334
235.212
235.187
235.063
237.314
237.314
237.316
237.299
237.299
237.271
237.264
237.23
237.212
237.176
237.146
237.103
237.071
237.014
236.984
236.908
236.887
236.789
236.778
236.658
236.645
236.523
236.498
236.375
238.617
238.616
238.619
238.602
238.603
238.576
238.57
238.537
238.519
238.484
238.455
238.414
238.381
238.326
238.296
238.221
238.199
238.103
238.091
237.972
237.959
237.838
237.814
237.691
239.911
239.911
239.915
239.898
239.901
239.874
239.87
239.839
239.823
239.79
239.763
239.724
239.693
239.64
239.61
239.539
239.515
239.423
239.404
239.297
239.281
239.159
239.137
239.014
241.197
241.198
241.202
241.187
241.191
241.166
241.164
241.136
241.122
241.093
241.068
241.032
241.003
240.954
240.925
240.859
240.834
240.747
240.729
240.621
240.607
240.486
240.464
240.343
242.478
242.479
242.484
242.47
242.476
242.454
242.454
242.428
242.418
242.392
242.371
242.339
242.313
242.268
242.242
242.18
242.158
242.076
242.059
241.954
241.94
241.82
241.8
241.678
243.759
243.76
243.766
243.754
243.761
243.74
243.743
243.72
243.712
243.689
243.671
243.644
243.621
243.581
243.559
243.501
243.484
243.405
243.392
243.29
243.28
243.161
243.142
243.019
245.049
245.052
245.057
245.046
245.053
245.035
245.038
245.017
245.011
244.991
244.974
244.95
244.93
244.893
244.877
244.819
244.812
244.731
244.728
244.627
244.625
244.508
244.493
244.373
246.36
246.363
246.368
246.357
246.364
246.346
246.348
246.328
246.321
246.302
246.286
246.263
246.243
246.21
246.195
246.138
246.138
246.056
246.061
245.959
245.966
245.852
245.843
245.732
247.704
247.706
247.712
247.699
247.706
247.685
247.687
247.663
247.655
247.633
247.616
247.591
247.57
247.537
247.518
247.466
247.461
247.385
247.388
247.29
247.3
247.188
247.186
247.081
249.09
249.091
249.096
249.082
249.087
249.062
249.062
249.034
249.023
248.996
248.975
248.945
248.919
248.882
248.857
248.806
248.791
248.715
248.72
248.618
248.63
248.515
248.517
248.411
250.524
250.526
250.529
250.513
250.515
250.488
250.483
250.451
250.434
250.402
250.373
250.337
250.303
250.259
250.225
250.168
250.144
250.064
250.06
249.952
249.963
249.84
249.845
249.732
252.009
252.01
252.012
251.994
251.994
251.963
251.954
251.918
251.893
251.856
251.818
251.776
251.731
251.679
251.633
251.566
251.53
251.439
251.424
251.303
251.309
251.172
251.177
251.05
253.541
253.543
253.543
253.524
253.521
253.488
253.475
253.434
253.405
253.362
253.317
253.267
253.213
253.152
253.093
253.017
252.965
252.86
252.83
252.694
252.686
252.528
252.528
252.377
255.113
255.114
255.115
255.094
255.091
255.055
255.04
254.995
254.964
254.915
254.867
254.809
254.75
254.68
254.611
254.527
254.455
254.347
254.29
254.144
254.112
253.931
253.917
253.731
256.716
256.717
256.718
256.696
256.692
256.655
256.639
256.593
256.56
256.509
256.458
256.397
256.333
256.259
256.185
256.095
256.012
255.901
255.817
255.676
255.607
255.416
255.376
255.144
258.336
258.336
258.338
258.316
258.312
258.275
258.26
258.213
258.18
258.129
258.078
258.016
257.952
257.877
257.8
257.709
257.622
257.511
257.417
257.277
257.186
256.999
256.932
256.665
259.962
259.963
259.965
259.943
259.941
259.904
259.89
259.845
259.812
259.763
259.712
259.653
259.589
259.517
259.441
259.353
259.267
259.159
259.066
258.93
258.838
258.657
258.587
258.322
261.583
261.584
261.587
261.566
261.564
261.529
261.516
261.473
261.442
261.395
261.347
261.291
261.23
261.162
261.089
261.006
260.923
260.821
260.734
260.604
260.522
260.346
260.287
260.046
263.189
263.191
263.194
263.174
263.173
263.14
263.129
263.088
263.06
263.016
262.971
262.919
262.861
262.798
262.73
262.653
262.575
262.482
262.399
262.279
262.203
262.04
261.987
261.765
264.772
264.774
264.778
264.759
264.759
264.728
264.719
264.681
264.655
264.615
264.573
264.526
264.472
264.414
264.35
264.28
264.207
264.121
264.047
263.934
263.867
263.716
263.667
263.464
266.326
266.328
266.332
266.315
266.316
266.287
266.279
266.245
266.221
266.185
266.145
266.104
266.053
266.003
265.942
265.88
265.812
265.736
265.666
265.562
265.501
265.364
265.319
265.135
267.844
267.847
267.851
267.835
267.837
267.811
267.804
267.773
267.751
267.721
267.682
267.648
267.598
267.556
267.498
267.445
267.38
267.312
267.248
267.156
267.099
266.975
266.933
266.768
269.323
269.327
269.331
269.317
269.32
269.295
269.291
269.262
269.243
269.216
269.18
269.151
269.105
269.069
269.014
268.97
268.908
268.851
268.789
268.71
268.655
268.546
268.507
268.359
270.76
270.764
270.769
270.755
270.761
270.736
270.735
270.707
270.692
270.667
270.637
270.609
270.569
270.537
270.488
270.448
270.393
270.342
270.285
270.218
270.165
270.071
270.033
269.903
272.154
272.157
272.163
272.149
272.157
272.133
272.135
272.108
272.097
272.073
272.048
272.023
271.988
271.959
271.916
271.881
271.831
271.788
271.734
271.678
271.63
271.547
271.512
271.398
273.5
273.503
273.51
273.497
273.506
273.483
273.487
273.462
273.454
273.433
273.411
273.389
273.358
273.333
273.295
273.265
273.22
273.183
273.135
273.087
273.043
272.972
272.938
272.841
274.8
274.803
274.811
274.798
274.808
274.787
274.792
274.77
274.763
274.745
274.726
274.707
274.681
274.659
274.626
274.6
274.561
274.53
274.486
274.448
274.404
274.348
274.313
274.232
276.052
276.055
276.063
276.05
276.062
276.041
276.049
276.028
276.024
276.008
275.992
275.976
275.953
275.935
275.906
275.885
275.849
275.824
275.785
275.754
275.714
275.667
275.637
275.568
277.256
277.259
277.267
277.256
277.266
277.25
277.256
277.239
277.236
277.223
277.209
277.196
277.176
277.162
277.136
277.119
277.089
277.069
277.034
277.01
276.972
276.937
276.907
276.852
278.412
278.414
278.424
278.41
278.428
278.404
278.42
278.397
278.401
278.387
278.377
278.366
278.35
278.338
278.316
278.304
278.276
278.262
278.23
278.213
278.179
278.152
278.123
278.081
279.521
279.524
279.53
279.526
279.529
279.525
279.524
279.518
279.512
279.507
279.496
279.489
279.475
279.466
279.448
279.438
279.415
279.405
279.378
279.365
279.335
279.317
279.289
279.257
280.582
280.583
280.598
280.576
280.607
280.572
280.603
280.573
280.587
280.572
280.569
280.562
280.551
280.545
280.53
280.524
280.504
280.497
280.473
280.467
280.439
280.428
280.401
280.38
281.598
281.603
281.603
281.611
281.6
281.615
281.599
281.611
281.596
281.602
281.59
281.591
281.58
281.577
281.564
281.561
281.545
281.542
281.522
281.519
281.496
281.49
281.465
281.453
282.568
282.568
282.587
282.56
282.6
282.556
282.6
282.561
282.588
282.568
282.574
282.568
282.563
282.562
282.552
282.552
282.537
282.538
282.52
282.522
282.501
282.501
282.479
282.474
283.495
283.502
283.496
283.515
283.492
283.523
283.492
283.522
283.497
283.515
283.501
283.508
283.499
283.502
283.493
283.496
283.484
283.489
283.474
283.479
283.462
283.467
283.446
283.448
284.379
284.376
284.399
284.367
284.416
284.364
284.419
284.373
284.41
284.387
284.4
284.394
284.395
284.396
284.391
284.396
284.387
284.393
284.38
284.389
284.373
284.383
284.366
284.373
285.22
285.23
285.217
285.247
285.211
285.259
285.214
285.26
285.225
285.254
285.237
285.25
285.243
285.25
285.245
285.253
285.245
285.255
285.245
285.257
285.243
285.258
285.241
285.254
286.024
286.019
286.044
286.009
286.063
286.007
286.069
286.019
286.063
286.037
286.056
286.051
286.056
286.06
286.058
286.067
286.062
286.074
286.064
286.079
286.067
286.086
286.072
286.088
286.784
286.796
286.779
286.815
286.773
286.829
286.778
286.832
286.793
286.828
286.811
286.827
286.823
286.833
286.831
286.841
286.838
286.851
286.845
286.862
286.852
286.874
286.861
286.881
287.513
287.508
287.532
287.499
287.55
287.499
287.558
287.512
287.556
287.533
287.553
287.55
287.557
287.564
287.565
287.576
287.574
287.59
287.584
287.604
287.594
287.619
287.608
287.632
288.199
288.21
288.195
288.228
288.192
288.242
288.198
288.246
288.215
288.246
288.234
288.25
288.249
288.261
288.262
288.274
288.274
288.29
288.288
288.309
288.301
288.328
288.316
288.346
288.857
288.854
288.872
288.851
288.886
288.854
288.895
288.867
288.898
288.886
288.902
288.904
288.91
288.92
288.923
288.936
288.937
288.956
288.952
288.976
288.968
288.998
288.986
289.02
289.476
289.485
289.477
289.497
289.479
289.507
289.488
289.515
289.502
289.522
289.519
289.532
289.535
289.547
289.55
289.565
289.567
289.585
289.585
289.609
289.603
289.635
289.621
289.662
290.069
290.069
290.077
290.073
290.085
290.081
290.094
290.093
290.103
290.107
290.114
290.123
290.128
290.141
290.145
290.16
290.163
290.184
290.182
290.207
290.202
290.236
290.228
290.261
290.628
290.632
290.633
290.637
290.642
290.644
290.652
290.655
290.664
290.669
290.676
290.685
290.691
290.704
290.709
290.725
290.728
290.749
290.75
290.776
290.772
290.806
290.799
290.835
291.16
291.163
291.163
291.171
291.168
291.182
291.176
291.194
291.189
291.206
291.205
291.22
291.223
291.238
291.243
291.26
291.263
291.286
291.286
291.313
291.309
291.345
291.337
291.377
291.664
291.665
291.67
291.668
291.68
291.675
291.692
291.685
291.703
291.702
291.715
291.722
291.73
291.743
291.75
291.766
291.771
291.793
291.795
291.824
291.82
291.856
291.849
291.89
292.141
292.144
292.143
292.152
292.149
292.163
292.157
292.175
292.171
292.187
292.188
292.203
292.207
292.223
292.229
292.246
292.251
292.274
292.276
292.303
292.302
292.339
292.332
292.373
292.594
292.594
292.6
292.599
292.608
292.607
292.618
292.619
292.63
292.635
292.644
292.654
292.662
292.676
292.683
292.7
292.707
292.729
292.731
292.762
292.759
292.796
292.789
292.834
293.022
293.025
293.025
293.032
293.032
293.04
293.042
293.051
293.057
293.066
293.073
293.084
293.091
293.106
293.112
293.131
293.136
293.159
293.164
293.191
293.191
293.228
293.222
293.265
293.428
293.429
293.433
293.434
293.44
293.444
293.449
293.457
293.462
293.472
293.478
293.491
293.497
293.512
293.519
293.538
293.544
293.567
293.57
293.601
293.6
293.637
293.631
293.676
293.813
293.815
293.816
293.821
293.823
293.83
293.834
293.841
293.848
293.856
293.864
293.875
293.883
293.897
293.905
293.923
293.929
293.952
293.957
293.985
293.986
294.023
294.017
294.062
294.177
294.179
294.181
294.183
294.189
294.191
294.199
294.203
294.212
294.219
294.228
294.239
294.247
294.262
294.268
294.288
294.294
294.318
294.32
294.351
294.351
294.388
294.384
294.427
294.523
294.524
294.525
294.531
294.53
294.542
294.539
294.554
294.553
294.568
294.571
294.585
294.591
294.606
294.614
294.632
294.639
294.661
294.667
294.695
294.696
294.733
294.728
294.772
294.849
294.849
294.854
294.852
294.863
294.859
294.874
294.871
294.886
294.888
294.9
294.908
294.918
294.932
294.94
294.959
294.965
294.989
294.993
295.021
295.023
295.059
295.055
295.098
295.158
295.162
295.159
295.17
295.163
295.181
295.171
295.192
295.186
295.205
295.205
295.221
295.226
295.242
295.249
295.268
295.274
295.296
295.302
295.331
295.331
295.367
295.363
295.406
295.452
295.45
295.458
295.451
295.469
295.457
295.479
295.469
295.489
295.488
295.503
295.509
295.52
295.533
295.541
295.56
295.566
295.589
295.594
295.621
295.625
295.658
295.655
295.697
295.728
295.733
295.726
295.744
295.727
295.756
295.736
295.765
295.753
295.775
295.774
295.79
295.795
295.811
295.817
295.836
295.843
295.865
295.87
295.899
295.901
295.933
295.932
295.974
295.992
295.988
296.002
295.985
296.014
295.989
296.024
296.004
296.031
296.025
296.042
296.048
296.058
296.071
296.079
296.097
296.104
296.126
296.132
296.158
296.163
296.194
296.192
296.233
296.239
296.246
296.235
296.259
296.233
296.271
296.243
296.278
296.262
296.286
296.284
296.3
296.305
296.32
296.327
296.345
296.352
296.374
296.379
296.407
296.406
296.443
296.44
296.48
296.476
296.472
296.485
296.469
296.496
296.475
296.505
296.49
296.512
296.51
296.523
296.531
296.54
296.553
296.561
296.579
296.586
296.607
296.612
296.639
296.642
296.675
296.673
296.712
296.698
296.702
296.697
296.709
296.702
296.718
296.711
296.727
296.726
296.739
296.743
296.756
296.762
296.776
296.783
296.801
296.808
296.829
296.834
296.861
296.864
296.895
296.893
296.934
296.909
296.91
296.91
296.917
296.912
296.927
296.921
296.935
296.936
296.947
296.953
296.964
296.972
296.986
296.993
297.01
297.017
297.038
297.042
297.069
297.073
297.103
297.102
297.139
297.11
297.108
297.12
297.102
297.135
297.106
297.141
297.123
297.145
297.144
297.155
297.164
297.172
297.185
297.191
297.209
297.215
297.236
297.242
297.268
297.268
297.303
297.299
297.338
297.297
297.303
297.288
297.322
297.282
297.335
297.293
297.335
297.316
297.34
297.338
297.352
297.358
297.373
297.379
297.396
297.403
297.424
297.428
297.453
297.456
297.487
297.485
297.522
297.479
297.473
297.495
297.46
297.512
297.462
297.518
297.484
297.517
297.509
297.523
297.53
297.538
297.551
297.557
297.574
297.58
297.601
297.605
297.632
297.633
297.665
297.663
297.698
297.645
297.653
297.633
297.673
297.627
297.685
297.639
297.684
297.663
297.687
297.685
297.699
297.704
297.719
297.725
297.741
297.748
297.768
297.772
297.797
297.799
297.831
297.826
297.864
297.809
297.803
297.823
297.794
297.839
297.797
297.843
297.816
297.843
297.839
297.851
297.859
297.865
297.879
297.885
297.901
297.907
297.927
297.932
297.958
297.958
297.988
297.988
298.02
297.957
297.962
297.95
297.977
297.947
297.986
297.959
297.989
297.978
297.996
297.996
298.009
298.014
298.029
298.035
298.051
298.056
298.077
298.081
298.104
298.105
298.137
298.132
298.17
298.104
298.102
298.112
298.099
298.122
298.104
298.128
298.118
298.133
298.136
298.144
298.154
298.158
298.171
298.177
298.195
298.199
298.22
298.223
298.25
298.249
298.278
298.278
298.309
298.237
298.239
298.235
298.247
298.237
298.255
298.246
298.262
298.26
298.272
298.275
298.287
298.292
298.305
298.312
298.328
298.331
298.353
298.355
298.38
298.379
298.411
298.406
298.442
298.367
298.368
298.371
298.37
298.378
298.376
298.385
298.387
298.394
298.401
298.406
298.417
298.42
298.434
298.439
298.457
298.46
298.48
298.484
298.508
298.509
298.537
298.536
298.567
298.487
298.486
298.488
298.491
298.491
298.498
298.499
298.507
298.51
298.519
298.522
298.535
298.539
298.554
298.558
298.575
298.577
298.599
298.599
298.626
298.623
298.655
298.651
298.683
298.603
298.605
298.605
298.608
298.61
298.614
298.617
298.624
298.627
298.636
298.64
298.651
298.654
298.668
298.672
298.69
298.693
298.714
298.716
298.739
298.741
298.768
298.765
298.797
298.708
298.708
298.71
298.712
298.714
298.718
298.721
298.728
298.731
298.74
298.743
298.756
298.76
298.774
298.778
298.794
298.797
298.817
298.818
298.843
298.841
298.872
298.868
298.899
298.813
298.814
298.814
298.818
298.819
298.824
298.826
298.834
298.836
298.845
298.848
298.859
298.861
298.876
298.879
298.897
298.899
298.921
298.922
298.944
298.947
298.973
298.971
299.001
298.905
298.906
298.907
298.909
298.911
298.915
298.918
298.925
298.927
298.937
298.94
298.953
298.956
298.97
298.973
298.989
298.991
299.011
299.011
299.037
299.036
299.063
299.06
299.091
299
299
299.001
299.004
299.005
299.01
299.012
299.019
299.022
299.031
299.033
299.044
299.046
299.061
299.064
299.081
299.083
299.104
299.106
299.126
299.128
299.155
299.153
299.181
299.08
299.081
299.082
299.084
299.086
299.09
299.093
299.099
299.102
299.111
299.115
299.127
299.129
299.143
299.145
299.161
299.164
299.183
299.183
299.208
299.209
299.231
299.232
299.26
299.164
299.165
299.166
299.169
299.17
299.175
299.177
299.184
299.186
299.195
299.196
299.207
299.21
299.224
299.227
299.244
299.246
299.266
299.268
299.288
299.289
299.316
299.314
299.342
299.235
299.236
299.237
299.239
299.24
299.244
299.247
299.253
299.256
299.265
299.269
299.28
299.282
299.296
299.297
299.313
299.317
299.334
299.335
299.359
299.36
299.381
299.384
299.408
299.31
299.31
299.311
299.314
299.316
299.32
299.322
299.328
299.331
299.338
299.341
299.352
299.354
299.368
299.371
299.387
299.389
299.41
299.409
299.431
299.431
299.457
299.456
299.482
299.372