/*--------------------------------*- C++ -*----------------------------------*\
  =========                 |
  \\      /  F ield         | OpenFOAM: The Open Source CFD Toolbox
   \\    /   O peration     | Website:  https://openfoam.org
    \\  /    A nd           | Version:  10
     \\/     M anipulation  |
\*---------------------------------------------------------------------------*/
FoamFile
{
    format      ascii;
    class       volVectorField;
    location    "0.15";
    object      U;
}
// * * * * * * * * * * * * * * * * * * * * * * * * * * * * * * * * * * * * * //

dimensions      [0 1 -1 0 0 0 0];

internalField   nonuniform List<vector> 
4176
(
(497.442 -0.0148592 -2.44049e-09)
(497.429 0.0648753 7.62697e-10)
(497.398 -1.48504e-05 -1.88129e-10)
(497.359 0.0919274 2.62169e-11)
(497.293 0.0492305 1.07965e-10)
(497.231 0.0913487 -1.25991e-10)
(497.128 0.123828 -2.67676e-10)
(497.046 0.0625502 -9.57881e-11)
(496.905 0.223011 7.43998e-11)
(496.804 0.00712435 1.36797e-10)
(496.625 0.341887 5.89675e-11)
(496.504 -0.0665113 1.63232e-10)
(496.291 0.467014 2.12354e-10)
(496.146 -0.136527 3.85493e-11)
(495.909 0.56467 -9.66474e-11)
(495.727 -0.132272 -7.48542e-11)
(495.49 0.5251 -1.53124e-10)
(495.24 0.0270809 -1.22397e-10)
(495.027 0.331181 1.49532e-10)
(494.684 0.326564 1.66783e-10)
(494.53 -0.0206171 -2.50666e-11)
(494.052 0.77536 -1.02774e-10)
(494.022 -0.519781 8.56123e-12)
(493.398 1.44589 5.19892e-11)
(497.423 0.00421769 -2.44141e-09)
(497.41 0.115674 7.63353e-10)
(497.379 0.075038 -1.88476e-10)
(497.338 0.204801 2.56151e-11)
(497.272 0.184487 1.08125e-10)
(497.207 0.266037 -1.25859e-10)
(497.103 0.319739 -2.68886e-10)
(497.017 0.297621 -9.59842e-11)
(496.875 0.479975 7.49293e-11)
(496.769 0.30022 1.37059e-10)
(496.588 0.660375 5.86771e-11)
(496.463 0.281251 1.6356e-10)
(496.246 0.847522 2.11104e-10)
(496.096 0.261286 3.87502e-11)
(495.854 1.00931 -9.65226e-11)
(495.668 0.305362 -7.45502e-11)
(495.423 1.0388 -1.54529e-10)
(495.17 0.514127 -1.22611e-10)
(494.95 0.910738 1.48676e-10)
(494.601 0.858708 1.66504e-10)
(494.445 0.624823 -2.50372e-11)
(493.947 1.33436 -1.05174e-10)
(493.911 0.12154 9.32131e-12)
(493.224 1.99607 5.15377e-11)
(497.368 0.0225663 -2.44478e-09)
(497.355 0.162314 7.62393e-10)
(497.325 0.146214 -1.90532e-10)
(497.284 0.309119 2.67251e-11)
(497.221 0.312091 1.08156e-10)
(497.156 0.428201 -1.2677e-10)
(497.057 0.503865 -2.66822e-10)
(496.97 0.516825 -9.46056e-11)
(496.834 0.720694 7.66787e-11)
(496.728 0.574849 1.3738e-10)
(496.553 0.95814 5.78685e-11)
(496.429 0.608613 1.63153e-10)
(496.218 1.20328 2.13215e-10)
(496.072 0.636804 3.90693e-11)
(495.831 1.42545 -9.68018e-11)
(495.653 0.717063 -7.3563e-11)
(495.409 1.51924 -1.57599e-10)
(495.164 0.969344 -1.24449e-10)
(494.949 1.45348 1.49498e-10)
(494.609 1.34729 1.66311e-10)
(494.462 1.244 -2.59841e-11)
(493.972 1.88556 -1.02674e-10)
(493.938 0.83505 9.51946e-12)
(493.227 2.61211 5.24152e-11)
(497.264 0.0412994 -2.44335e-09)
(497.251 0.209805 7.66247e-10)
(497.221 0.218709 -1.91542e-10)
(497.181 0.415414 2.98782e-11)
(497.117 0.44206 1.07708e-10)
(497.053 0.593532 -1.31167e-10)
(496.953 0.691425 -2.67372e-10)
(496.867 0.740431 -9.76064e-11)
(496.73 0.965905 6.96959e-11)
(496.625 0.85513 1.40867e-10)
(496.449 1.26146 5.89292e-11)
(496.327 0.942929 1.61837e-10)
(496.113 1.56592 2.15258e-10)
(495.969 1.02095 3.77602e-11)
(495.726 1.85029 -1.03938e-10)
(495.549 1.1385 -7.50239e-11)
(495.302 2.01362 -1.55531e-10)
(495.053 1.42982 -1.25021e-10)
(494.847 2.00548 1.51917e-10)
(494.497 1.84403 1.65923e-10)
(494.355 1.85459 -2.87806e-11)
(493.872 2.42344 -1.03657e-10)
(493.843 1.52192 7.64702e-12)
(493.162 3.20878 4.28179e-11)
(497.114 0.0596298 -2.44521e-09)
(497.101 0.256317 7.7253e-10)
(497.071 0.289628 -1.87556e-10)
(497.031 0.519583 2.99677e-11)
(496.968 0.569197 1.11288e-10)
(496.904 0.755678 -1.25855e-10)
(496.806 0.874898 -2.69806e-10)
(496.721 0.959953 -9.59386e-11)
(496.585 1.20578 7.49024e-11)
(496.482 1.13058 1.38772e-10)
(496.307 1.55823 5.92204e-11)
(496.187 1.2717 1.65142e-10)
(495.974 1.92116 2.1234e-10)
(495.834 1.39866 3.69875e-11)
(495.59 2.26799 -1.02021e-10)
(495.419 1.55314 -7.77783e-11)
(495.167 2.50892 -1.5694e-10)
(494.924 1.87299 -1.24422e-10)
(494.721 2.55048 1.46605e-10)
(494.368 2.34184 1.719e-10)
(494.228 2.4491 -2.10664e-11)
(493.751 2.9493 -1.00855e-10)
(493.721 2.16441 1.11579e-11)
(493.06 3.76661 5.35321e-11)
(496.914 0.0779526 -2.45714e-09)
(496.901 0.302536 7.69726e-10)
(496.872 0.360395 -1.85991e-10)
(496.832 0.623171 2.5382e-11)
(496.77 0.696029 1.00481e-10)
(496.706 0.916972 -1.30892e-10)
(496.609 1.05794 -2.67999e-10)
(496.524 1.17843 -1.00358e-10)
(496.39 1.44506 7.51881e-11)
(496.286 1.40496 1.44191e-10)
(496.114 1.85412 5.95964e-11)
(495.993 1.59963 1.59792e-10)
(495.782 2.27479 2.10126e-10)
(495.643 1.77627 3.96238e-11)
(495.4 2.68239 -1.05041e-10)
(495.232 1.97205 -7.53937e-11)
(494.975 2.99953 -1.46748e-10)
(494.745 2.31583 -1.21751e-10)
(494.529 3.09994 1.56541e-10)
(494.188 2.83854 1.74237e-10)
(494.042 3.04537 -2.53056e-11)
(493.569 3.47734 -1.11735e-10)
(493.534 2.81118 7.84794e-12)
(492.871 4.32351 5.36868e-11)
(496.666 0.0960986 -2.45619e-09)
(496.653 0.348092 7.66534e-10)
(496.624 0.430372 -2.01821e-10)
(496.584 0.725323 2.55226e-11)
(496.523 0.821405 1.15474e-10)
(496.46 1.07605 -1.30028e-10)
(496.364 1.23887 -2.7994e-10)
(496.279 1.39397 -9.62929e-11)
(496.147 1.6816 8.14151e-11)
(496.044 1.67583 1.3938e-10)
(495.874 2.14656 5.68273e-11)
(495.754 1.92378 1.71203e-10)
(495.546 2.62403 2.26376e-10)
(495.407 2.15025 4.17682e-11)
(495.166 3.0907 -1.00542e-10)
(495.002 2.38931 -7.22927e-11)
(494.743 3.47912 -1.56534e-10)
(494.523 2.76046 -1.27624e-10)
(494.296 3.64733 1.51141e-10)
(493.969 3.32335 1.71979e-10)
(493.818 3.64053 -2.67117e-11)
(493.352 4.00494 -1.11984e-10)
(493.312 3.46768 1.00512e-11)
(492.651 4.88575 5.86392e-11)
(496.37 0.114107 -2.47032e-09)
(496.357 0.393185 7.76266e-10)
(496.328 0.499726 -1.81354e-10)
(496.289 0.826458 2.90561e-11)
(496.228 0.945611 1.03009e-10)
(496.165 1.23354 -1.27096e-10)
(496.07 1.41805 -2.64012e-10)
(495.986 1.60736 -9.80453e-11)
(495.856 1.91581 6.29262e-11)
(495.753 1.9441 1.36844e-10)
(495.585 2.43607 6.77455e-11)
(495.466 2.24504 1.65893e-10)
(495.26 2.96967 2.01307e-10)
(495.123 2.52125 3.33608e-11)
(494.883 3.49452 -9.34676e-11)
(494.723 2.80407 -8.05692e-11)
(494.463 3.95133 -1.53242e-10)
(494.252 3.20269 -1.1127e-10)
(494.018 4.19004 1.55069e-10)
(493.703 3.80373 1.57484e-10)
(493.545 4.23381 -2.68877e-11)
(493.087 4.52769 -9.59983e-11)
(493.044 4.11889 7.42947e-12)
(492.391 5.44075 3.53203e-11)
(496.025 0.131934 -2.47987e-09)
(496.012 0.437724 7.62065e-10)
(495.983 0.568297 -2.03083e-10)
(495.944 0.926367 1.68892e-11)
(495.884 1.06836 1.03266e-10)
(495.822 1.38909 -1.35422e-10)
(495.728 1.59505 -2.79851e-10)
(495.645 1.8181 -1.01718e-10)
(495.516 2.14709 6.91801e-11)
(495.415 2.20908 1.33707e-10)
(495.248 2.72191 5.59387e-11)
(495.131 2.56253 1.64746e-10)
(494.926 3.31084 2.10181e-10)
(494.792 2.88826 3.49022e-11)
(494.553 3.8929 -1.00122e-10)
(494.397 3.21499 -7.76623e-11)
(494.137 4.41506 -1.5786e-10)
(493.934 3.64197 -1.22562e-10)
(493.695 4.72594 1.51696e-10)
(493.391 4.27748 1.64575e-10)
(493.228 4.82451 -2.88354e-11)
(492.779 5.04569 -1.07222e-10)
(492.732 4.76572 9.07915e-12)
(492.087 5.9891 5.15809e-11)
(495.631 0.149578 -2.46184e-09)
(495.619 0.481719 7.90462e-10)
(495.59 0.636079 -1.84202e-10)
(495.552 1.02507 4.0132e-11)
(495.492 1.18964 1.22187e-10)
(495.43 1.54274 -1.18369e-10)
(495.338 1.76987 -2.63412e-10)
(495.256 2.02622 -8.4867e-11)
(495.128 2.3754 8.72667e-11)
(495.028 2.47074 1.5037e-10)
(494.863 3.00397 7.42687e-11)
(494.748 2.87612 1.80922e-10)
(494.545 3.64742 2.2919e-10)
(494.414 3.25103 4.78585e-11)
(494.176 4.28574 -8.6405e-11)
(494.023 3.62178 -6.71087e-11)
(493.763 4.87066 -1.44379e-10)
(493.568 4.07751 -1.1186e-10)
(493.325 5.25434 1.65621e-10)
(493.033 4.74527 1.76373e-10)
(492.864 5.41027 -1.6688e-11)
(492.426 5.55676 -9.51876e-11)
(492.374 5.40656 1.84268e-11)
(491.74 6.52909 6.06437e-11)
(495.189 0.16701 -2.48012e-09)
(495.177 0.525114 7.7854e-10)
(495.149 0.702976 -1.93725e-10)
(495.11 1.12246 3.27128e-11)
(495.052 1.30931 1.1564e-10)
(494.991 1.69433 -1.26283e-10)
(494.9 1.94231 -2.68939e-10)
(494.818 2.23151 -8.71407e-11)
(494.692 2.60051 8.52418e-11)
(494.593 2.72878 1.48599e-10)
(494.431 3.28192 7.4561e-11)
(494.317 3.1854 1.83755e-10)
(494.116 3.97895 2.32306e-10)
(493.987 3.60898 4.98698e-11)
(493.752 4.67257 -8.16748e-11)
(493.603 4.02371 -6.12386e-11)
(493.343 5.31802 -1.37209e-10)
(493.155 4.50877 -1.0591e-10)
(492.909 5.77443 1.76106e-10)
(492.628 5.2067 1.87341e-10)
(492.454 5.9893 -2.83364e-11)
(492.027 6.0597 -1.29234e-10)
(491.972 6.04111 -1.0844e-11)
(491.348 7.06032 2.93775e-11)
(494.699 0.18421 -2.48562e-09)
(494.686 0.567866 7.80746e-10)
(494.659 0.768911 -1.96849e-10)
(494.621 1.21843 2.73643e-11)
(494.563 1.42725 1.10859e-10)
(494.502 1.84374 -1.32205e-10)
(494.413 2.11222 -2.77496e-10)
(494.332 2.43384 -9.75606e-11)
(494.208 2.82224 7.51042e-11)
(494.111 2.98306 1.3908e-10)
(493.95 3.55555 6.40285e-11)
(493.838 3.4901 1.74831e-10)
(493.64 4.30515 2.21836e-10)
(493.513 3.9617 4.0449e-11)
(493.28 5.05299 -9.61979e-11)
(493.135 4.42018 -7.50824e-11)
(492.876 5.75716 -1.54608e-10)
(492.695 4.93533 -1.19551e-10)
(492.446 6.28549 1.57692e-10)
(492.177 5.66098 1.69075e-10)
(491.998 6.56063 -2.33753e-11)
(491.584 6.55375 -1.00034e-10)
(491.525 6.66808 1.50205e-11)
(490.912 7.58216 5.57759e-11)
(494.159 0.201148 -2.49135e-09)
(494.147 0.609916 7.7979e-10)
(494.12 0.833784 -2.02861e-10)
(494.082 1.31286 2.15622e-11)
(494.026 1.54329 1.02859e-10)
(493.966 1.99078 -1.44492e-10)
(493.877 2.2794 -2.92466e-10)
(493.798 2.63298 -1.14606e-10)
(493.675 3.04036 5.80661e-11)
(493.579 3.23331 1.20307e-10)
(493.421 3.82462 3.77503e-11)
(493.311 3.78993 1.49002e-10)
(493.115 4.62568 1.89403e-10)
(492.992 4.30876 3.51669e-11)
(492.76 5.42655 -7.22621e-11)
(492.62 4.8105 -5.78666e-11)
(492.363 6.18795 -1.36809e-10)
(492.188 5.35686 -1.07429e-10)
(491.936 6.78693 1.70256e-10)
(491.679 6.10756 1.79614e-10)
(491.495 7.12312 -1.51954e-11)
(491.094 7.03778 -9.49771e-11)
(491.032 7.28642 2.02762e-11)
(490.431 8.0941 5.88398e-11)
(493.571 0.217802 -2.4885e-09)
(493.559 0.651212 8.03619e-10)
(493.532 0.897503 -2.03738e-10)
(493.495 1.40563 2.15165e-12)
(493.439 1.65726 1.00181e-10)
(493.38 2.13527 -1.35593e-10)
(493.293 2.44363 -2.71942e-10)
(493.215 2.82871 -7.76587e-11)
(493.094 3.25464 7.73675e-11)
(493 3.4793 1.20834e-10)
(492.844 4.08887 5.07772e-11)
(492.736 4.08462 1.7277e-10)
(492.543 4.94029 2.32129e-10)
(492.422 4.64981 5.46412e-11)
(492.193 5.79292 -1.05329e-10)
(492.057 5.19417 -9.88862e-11)
(491.802 6.60999 -1.7345e-10)
(491.634 5.77275 -1.26336e-10)
(491.38 7.27827 1.64548e-10)
(491.135 6.54589 1.85515e-10)
(490.947 7.67626 -2.75067e-11)
(490.558 7.51091 -1.23922e-10)
(490.494 7.89468 3.3883e-12)
(489.905 8.5956 5.59947e-11)
(492.934 0.234147 -2.50959e-09)
(492.922 0.691702 7.64398e-10)
(492.895 0.95998 -1.94997e-10)
(492.859 1.49661 5.8795e-11)
(492.804 1.76901 1.26172e-10)
(492.746 2.27701 -1.32786e-10)
(492.66 2.60465 -2.92579e-10)
(492.584 3.02076 -1.23945e-10)
(492.465 3.46475 7.45515e-11)
(492.372 3.72071 1.63036e-10)
(492.218 4.34797 7.15762e-11)
(492.113 4.37384 1.67305e-10)
(491.922 5.24865 1.98231e-10)
(491.805 4.98451 3.32945e-11)
(491.579 6.15174 -8.11742e-11)
(491.447 5.57071 -6.98425e-11)
(491.193 7.02284 -1.63496e-10)
(491.032 6.18228 -1.37973e-10)
(490.778 7.75891 1.23941e-10)
(490.544 6.97567 1.56598e-10)
(490.352 8.21962 -1.45086e-11)
(489.976 7.97228 -9.97509e-11)
(489.91 8.49161 3.50121e-12)
(489.334 9.08613 3.05883e-11)
(492.247 0.250163 -2.50018e-09)
(492.235 0.731343 8.15084e-10)
(492.209 1.02113 -2.02068e-10)
(492.173 1.58569 -9.33745e-13)
(492.119 1.87837 9.91358e-11)
(492.062 2.41579 -1.33414e-10)
(491.978 2.76223 -2.65327e-10)
(491.903 3.20882 -7.0907e-11)
(491.787 3.67038 7.86754e-11)
(491.696 3.95717 1.22345e-10)
(491.545 4.60156 5.7378e-11)
(491.442 4.65721 1.81477e-10)
(491.254 5.55042 2.43147e-10)
(491.14 5.31248 3.00366e-11)
(490.916 6.50271 -1.375e-10)
(490.789 5.93969 -9.53363e-11)
(490.538 7.42613 -1.64115e-10)
(490.383 6.58464 -1.13363e-10)
(490.129 8.22806 1.79937e-10)
(489.906 7.39663 1.63312e-10)
(489.71 8.75256 -5.3414e-11)
(489.349 8.42159 -1.13068e-10)
(489.279 9.07664 1.68267e-11)
(488.718 9.56497 6.80709e-11)
(491.511 0.265827 -2.52081e-09)
(491.499 0.770086 7.7882e-10)
(491.474 1.08089 -2.20659e-10)
(491.438 1.67276 -4.71069e-12)
(491.386 1.98518 1.10134e-10)
(491.33 2.55142 -1.07033e-10)
(491.247 2.91611 -2.62427e-10)
(491.174 3.39262 -8.9699e-11)
(491.059 3.87118 7.55568e-11)
(490.971 4.1883 1.33881e-10)
(490.822 4.84923 4.6234e-11)
(490.722 4.9343 1.50249e-10)
(490.537 5.84518 2.24276e-10)
(490.427 5.63332 6.09491e-11)
(490.206 6.84547 -8.68532e-11)
(490.084 6.30073 -7.20461e-11)
(489.835 7.8196 -1.6079e-10)
(489.687 6.97897 -1.3007e-10)
(489.433 8.68492 1.37857e-10)
(489.222 7.80844 1.40355e-10)
(489.023 9.27354 -6.49743e-11)
(488.676 8.85947 -1.09937e-10)
(488.601 9.65021 3.47026e-11)
(488.056 10.0308 6.47385e-11)
(490.725 0.281115 -2.51936e-09)
(490.713 0.807878 8.04821e-10)
(490.689 1.13915 -1.87263e-10)
(490.654 1.7577 5.00022e-11)
(490.602 2.08929 1.33817e-10)
(490.548 2.6837 -1.11744e-10)
(490.467 3.06603 -2.55467e-10)
(490.395 3.57184 -6.58357e-11)
(490.283 4.06679 1.16217e-10)
(490.197 4.41371 1.4609e-10)
(490.051 5.09053 3.02737e-11)
(489.954 5.20462 1.47227e-10)
(489.772 6.13246 1.92051e-10)
(489.666 5.9465 9.43839e-12)
(489.448 7.17958 -1.28919e-10)
(489.331 6.65339 -9.73983e-11)
(489.085 8.20301 -1.78144e-10)
(488.943 7.36455 -1.33813e-10)
(488.69 9.12882 1.51079e-10)
(488.491 8.21081 1.68984e-10)
(488.288 9.78213 -2.14053e-11)
(487.957 9.28551 -9.57184e-11)
(487.878 10.2115 2.35312e-11)
(487.348 10.4833 6.87392e-11)
(489.89 0.295997 -2.53262e-09)
(489.878 0.844654 7.93063e-10)
(489.854 1.19582 -2.08206e-10)
(489.82 1.84036 2.37955e-11)
(489.769 2.19052 1.01496e-10)
(489.716 2.81242 -1.5535e-10)
(489.637 3.21176 -3.02188e-10)
(489.567 3.74621 -1.1623e-10)
(489.457 4.25689 5.77917e-11)
(489.374 4.633 1.22066e-10)
(489.231 5.32504 4.33436e-11)
(489.137 5.46768 1.52044e-10)
(488.959 6.41172 1.88471e-10)
(488.856 6.25147 1.48094e-12)
(488.642 7.50452 -1.46959e-10)
(488.53 6.99712 -1.20437e-10)
(488.287 8.57591 -1.65855e-10)
(488.152 7.74086 -9.32047e-11)
(487.901 9.55932 1.91114e-10)
(487.712 8.60332 1.9553e-10)
(487.507 10.2778 -5.6282e-13)
(487.191 9.69937 -8.45932e-11)
(487.107 10.7599 3.17062e-11)
(486.595 10.9218 7.29198e-11)
(489.004 0.31044 -2.55534e-09)
(488.992 0.880337 8.06088e-10)
(488.968 1.25077 -1.79543e-10)
(488.935 1.92058 2.88159e-11)
(488.886 2.28866 1.27685e-10)
(488.834 2.93735 -1.06393e-10)
(488.757 3.35303 -2.81422e-10)
(488.689 3.91544 -1.20719e-10)
(488.582 4.44114 7.59039e-11)
(488.502 4.84582 1.61465e-10)
(488.362 5.55233 5.71341e-11)
(488.271 5.72302 1.82359e-10)
(488.096 6.68247 2.39142e-10)
(487.998 6.54765 2.17301e-11)
(487.788 7.81971 -1.01938e-10)
(487.681 7.3313 -6.0913e-11)
(487.441 8.93777 -1.71179e-10)
(487.314 8.10734 -1.55948e-10)
(487.064 9.97602 1.41717e-10)
(486.887 8.98556 1.68807e-10)
(486.679 10.7601 -5.38644e-11)
(486.378 10.1007 -1.12792e-10)
(486.291 11.2948 1.92725e-11)
(485.795 11.3459 3.62356e-11)
(488.067 0.324404 -2.54228e-09)
(488.056 0.914836 8.19672e-10)
(488.033 1.30385 -1.80441e-10)
(488.001 1.99817 6.32519e-11)
(487.953 2.38348 1.46326e-10)
(487.902 3.05822 -1.44821e-10)
(487.827 3.48955 -3.28302e-10)
(487.762 4.07923 -1.30077e-10)
(487.657 4.61923 5.78688e-11)
(487.58 5.05182 1.30624e-10)
(487.443 5.77202 5.74796e-11)
(487.356 5.9702 1.78811e-10)
(487.185 6.9442 2.30627e-10)
(487.091 6.83448 4.72738e-11)
(486.885 8.12456 -8.35066e-11)
(486.784 7.65524 -5.70237e-11)
(486.548 9.28799 -1.33509e-10)
(486.428 8.4633 -1.31696e-10)
(486.18 10.3785 1.13809e-10)
(486.014 9.35716 1.3669e-10)
(485.804 11.2283 -5.41576e-11)
(485.519 10.4893 -1.25632e-10)
(485.427 11.8157 -7.20702e-12)
(484.949 11.7553 4.50067e-11)
(487.08 0.337849 -2.56873e-09)
(487.069 0.948061 7.74321e-10)
(487.047 1.35493 -2.04514e-10)
(487.015 2.07295 6.36557e-11)
(486.969 2.47476 1.23343e-10)
(486.92 3.17478 -1.45596e-10)
(486.848 3.62103 -3.05719e-10)
(486.784 4.23725 -8.6819e-11)
(486.683 4.7908 1.21244e-10)
(486.608 5.25064 1.69084e-10)
(486.475 5.98374 7.24982e-11)
(486.392 6.20881 1.65959e-10)
(486.225 7.19649 1.87206e-10)
(486.136 7.11145 2.4673e-11)
(485.934 8.41852 -8.8972e-11)
(485.838 7.96828 -7.91969e-11)
(485.606 9.62593 -1.79069e-10)
(485.493 8.80793 -1.53526e-10)
(485.249 10.7665 1.59228e-10)
(485.093 9.71776 1.92534e-10)
(484.882 11.6815 -2.04237e-11)
(484.613 10.8645 -1.17373e-10)
(484.517 12.3221 -2.10629e-11)
(484.057 12.1495 4.96899e-11)
(486.042 0.350737 -2.57982e-09)
(486.031 0.979925 7.77652e-10)
(486.01 1.40387 -2.05484e-10)
(485.979 2.14471 6.93462e-11)
(485.935 2.56224 1.33772e-10)
(485.888 3.28673 -1.41042e-10)
(485.817 3.74714 -3.06905e-10)
(485.756 4.38917 -1.37091e-10)
(485.658 4.95551 7.18791e-11)
(485.586 5.44193 1.74799e-10)
(485.457 6.18711 8.30761e-11)
(485.378 6.43849 1.76495e-10)
(485.215 7.43894 1.98314e-10)
(485.13 7.37812 3.38282e-11)
(484.933 8.70109 -7.90862e-11)
(484.843 8.26984 -7.49701e-11)
(484.616 9.95095 -1.74619e-10)
(484.511 9.14036 -1.44904e-10)
(484.269 11.1397 1.70214e-10)
(484.125 10.0669 2.0204e-10)
(483.913 12.1188 -1.04595e-11)
(483.66 11.226 -1.08811e-10)
(483.56 12.8134 -6.36994e-12)
(483.118 12.5281 2.24417e-11)
(484.954 0.363036 -2.59581e-09)
(484.943 1.01036 8.21267e-10)
(484.922 1.45054 -1.81372e-10)
(484.893 2.21329 2.58812e-11)
(484.849 2.64572 7.84782e-11)
(484.804 3.39383 -1.57914e-10)
(484.736 3.86759 -2.82442e-10)
(484.678 4.53466 -1.21575e-10)
(484.583 5.11298 7.75844e-11)
(484.514 5.62531 1.6551e-10)
(484.389 6.38175 5.7334e-11)
(484.314 6.65885 1.92402e-10)
(484.155 7.67114 2.57528e-10)
(484.076 7.63408 2.8817e-11)
(483.883 8.97187 -1.48965e-10)
(483.799 8.55941 -9.9134e-11)
(483.577 10.2625 -1.59234e-10)
(483.479 9.4599 -1.4057e-10)
(483.242 11.4975 1.65543e-10)
(483.108 10.4041 1.88862e-10)
(482.896 12.5392 -3.69265e-11)
(482.659 11.5728 -9.52071e-11)
(482.556 13.2886 4.457e-11)
(482.133 12.8907 5.58961e-11)
(483.814 0.374726 -2.57343e-09)
(483.803 1.0393 8.48396e-10)
(483.783 1.49485 -1.66791e-10)
(483.755 2.27856 3.73054e-11)
(483.713 2.72502 8.41366e-11)
(483.67 3.49585 -1.58899e-10)
(483.605 3.9821 -2.88943e-10)
(483.549 4.67339 -7.84953e-11)
(483.457 5.26287 1.15919e-10)
(483.392 5.8004 1.45417e-10)
(483.271 6.56725 3.05434e-11)
(483.2 6.86947 1.62405e-10)
(483.046 7.8927 2.20271e-10)
(482.972 7.87895 3.87028e-11)
(482.784 9.23045 -8.88855e-11)
(482.706 8.83656 -5.01283e-11)
(482.489 10.5602 -1.70834e-10)
(482.399 9.766 -1.60209e-10)
(482.166 11.8394 1.38588e-10)
(482.043 10.7286 1.60894e-10)
(481.831 12.9421 -2.08351e-11)
(481.61 11.9041 -8.58648e-11)
(481.504 13.7464 5.01287e-11)
(481.101 13.2366 5.60892e-11)
(482.623 0.38579 -2.57704e-09)
(482.612 1.06672 8.21196e-10)
(482.593 1.53676 -2.26867e-10)
(482.566 2.34044 4.93094e-11)
(482.526 2.80001 1.11551e-10)
(482.485 3.5926 -1.6551e-10)
(482.422 4.09044 -2.73761e-10)
(482.369 4.80509 -1.00742e-10)
(482.281 5.40482 5.57067e-11)
(482.22 5.96681 1.62696e-10)
(482.102 6.74319 7.00801e-11)
(482.036 7.06995 1.6341e-10)
(481.887 8.10318 2.43811e-10)
(481.818 8.1123 2.81467e-11)
(481.635 9.47643 -1.40874e-10)
(481.564 9.10091 -8.09982e-11)
(481.351 10.8436 -1.82755e-10)
(481.27 10.0582 -1.50615e-10)
(481.041 12.1648 1.68135e-10)
(480.928 11.0396 1.56516e-10)
(480.717 13.327 -6.08042e-11)
(480.513 12.219 -1.05995e-10)
(480.405 14.1856 -9.68059e-12)
(480.022 13.5653 2.1026e-11)
(481.38 0.396219 -2.64481e-09)
(481.37 1.0926 7.99458e-10)
(481.352 1.5762 -2.28036e-10)
(481.326 2.39884 1.98425e-11)
(481.288 2.87058 1.12245e-10)
(481.248 3.68396 -1.43218e-10)
(481.188 4.19242 -2.86263e-10)
(481.139 4.92952 -8.34539e-11)
(481.054 5.53854 1.02007e-10)
(480.996 6.1242 1.74894e-10)
(480.883 6.90917 1.05235e-10)
(480.822 7.25985 1.70012e-10)
(480.677 8.30215 2.15778e-10)
(480.614 8.33371 2.24343e-11)
(480.436 9.7094 -1.1832e-10)
(480.372 9.35205 -8.65668e-11)
(480.164 11.1124 -1.65922e-10)
(480.091 10.336 -1.14853e-10)
(479.867 12.4736 1.80863e-10)
(479.765 11.3366 1.87467e-10)
(479.556 13.693 -6.12244e-11)
(479.368 12.5175 -1.31782e-10)
(479.257 14.6056 -9.31689e-12)
(478.894 13.8766 3.68568e-11)
(480.087 0.406 -2.61351e-09)
(480.077 1.11691 8.55669e-10)
(480.059 1.61315 -1.7216e-10)
(480.034 2.45372 3.24859e-11)
(479.998 2.93667 7.85155e-11)
(479.961 3.76983 -1.74139e-10)
(479.904 4.28792 -3.0484e-10)
(479.857 5.04651 -8.95416e-11)
(479.775 5.66382 1.02648e-10)
(479.722 6.2723 1.87443e-10)
(479.613 7.06486 7.04378e-11)
(479.556 7.43879 1.48254e-10)
(479.417 8.48915 2.04777e-10)
(479.359 8.54271 1.66722e-11)
(479.187 9.92891 -1.13155e-10)
(479.13 9.58954 -7.06895e-11)
(478.928 11.3662 -1.36634e-10)
(478.862 10.5991 -7.79504e-11)
(478.643 12.7655 1.70048e-10)
(478.552 11.6186 1.35832e-10)
(478.345 14.0389 -4.94766e-11)
(478.175 12.7996 -1.1118e-10)
(478.061 15.0073 2.59602e-11)
(477.718 14.1707 8.49932e-11)
(478.742 0.415125 -2.61059e-09)
(478.732 1.13961 8.26698e-10)
(478.715 1.64756 -2.48898e-10)
(478.692 2.50502 2.65331e-11)
(478.657 2.99821 1.49589e-10)
(478.622 3.85012 -1.37949e-10)
(478.568 4.37684 -3.18112e-10)
(478.524 5.15594 -8.95899e-11)
(478.446 5.7805 6.74454e-11)
(478.396 6.4109 1.11031e-10)
(478.292 7.20999 7.09164e-11)
(478.24 7.60642 2.19251e-10)
(478.106 8.6638 2.30425e-10)
(478.054 8.73884 5.01964e-12)
(477.888 10.1345 -1.07777e-10)
(477.837 9.81289 -4.86505e-11)
(477.641 11.6046 -1.62019e-10)
(477.584 10.847 -1.43701e-10)
(477.37 13.0402 1.8382e-10)
(477.289 11.8848 1.63168e-10)
(477.086 14.3639 -6.84756e-11)
(476.932 13.0657 -1.16932e-10)
(476.815 15.3893 3.81336e-11)
(476.494 14.4456 5.81153e-11)
(477.346 0.423574 -2.68101e-09)
(477.336 1.16069 8.03255e-10)
(477.32 1.67939 -2.37936e-10)
(477.298 2.55267 1.38977e-11)
(477.265 3.05512 1.02232e-10)
(477.232 3.92474 -1.64019e-10)
(477.18 4.45908 -3.07454e-10)
(477.139 5.25772 -1.0211e-10)
(477.065 5.88846 8.05451e-11)
(477.02 6.53988 1.48336e-10)
(476.92 7.34437 7.75793e-11)
(476.873 7.76253 2.0255e-10)
(476.744 8.82577 2.4424e-10)
(476.699 8.92174 3.98362e-11)
(476.538 10.3257 -1.02085e-10)
(476.494 10.0216 -7.17671e-11)
(476.304 11.8271 -1.56165e-10)
(476.255 11.0792 -1.1031e-10)
(476.047 13.2972 1.91518e-10)
(475.977 12.135 1.96892e-10)
(475.777 14.6672 9.2201e-13)
(475.64 13.3147 -1.39357e-10)
(475.521 15.7509 -2.37476e-11)
(475.221 14.7015 3.04617e-11)
(475.898 0.431335 -2.61648e-09)
(475.888 1.18009 8.70488e-10)
(475.873 1.70857 -1.96846e-10)
(475.852 2.5966 5.39319e-11)
(475.821 3.10731 1.33578e-10)
(475.79 3.99362 -1.39092e-10)
(475.741 4.53456 -2.90211e-10)
(475.703 5.35177 -8.94661e-11)
(475.633 5.98761 8.76989e-11)
(475.592 6.65916 1.49226e-10)
(475.496 7.4679 7.17174e-11)
(475.455 7.90699 1.85346e-10)
(475.331 8.97485 2.19839e-10)
(475.291 9.09113 1.56193e-11)
(475.137 10.502 -1.41492e-10)
(475.1 10.2152 -1.19042e-10)
(474.916 12.0331 -2.09085e-10)
(474.876 11.2953 -9.90284e-11)
(474.674 13.5362 1.93157e-10)
(474.614 12.3686 1.86537e-10)
(474.418 14.9486 -1.19128e-11)
(474.298 13.5459 -1.00639e-10)
(474.177 16.0916 1.44895e-11)
(473.899 14.9386 5.913e-11)
(474.398 0.438388 -2.64457e-09)
(474.389 1.19779 8.46256e-10)
(474.375 1.73505 -2.35322e-10)
(474.355 2.63673 5.39521e-11)
(474.326 3.15471 1.21838e-10)
(474.297 4.05667 -1.66551e-10)
(474.251 4.60319 -2.78954e-10)
(474.216 5.43799 -9.59087e-11)
(474.15 6.07789 6.91989e-11)
(474.112 6.76868 1.7574e-10)
(474.021 7.58053 7.86812e-11)
(473.985 8.03976 1.80215e-10)
(473.866 9.11095 2.59989e-10)
(473.833 9.24688 3.38548e-11)
(473.684 10.6634 -1.3591e-10)
(473.655 10.3934 -7.15519e-11)
(473.478 12.2222 -1.76924e-10)
(473.447 11.4945 -1.46133e-10)
(473.25 13.7567 1.9453e-10)
(473.201 12.585 1.7568e-10)
(473.01 15.2081 -5.19579e-11)
(472.905 13.7598 -8.94411e-11)
(472.782 16.41 1.50829e-11)
(472.527 15.1555 3.64989e-11)
(472.847 0.444734 -2.70687e-09)
(472.838 1.21377 8.50049e-10)
(472.825 1.75882 -1.98613e-10)
(472.806 2.67304 1.34054e-11)
(472.779 3.19726 1.28849e-10)
(472.752 4.1138 -1.20289e-10)
(472.709 4.66488 -3.19078e-10)
(472.677 5.5163 -8.94108e-11)
(472.614 6.15921 1.15623e-10)
(472.581 6.86837 1.37772e-10)
(472.495 7.68219 8.56653e-11)
(472.463 8.1608 2.32345e-10)
(472.35 9.23403 2.28109e-10)
(472.323 9.38897 3.99018e-11)
(472.18 10.8096 -8.30487e-11)
(472.159 10.556 -1.02454e-10)
(471.987 12.394 -1.71146e-10)
(471.965 11.6765 -9.85581e-11)
(471.775 13.958 1.61932e-10)
(471.737 12.7832 1.82247e-10)
(471.551 15.4462 1.80398e-12)
(471.461 13.9571 -1.18999e-10)
(471.337 16.7053 2.20096e-11)
(471.105 15.3518 8.38758e-11)
(471.244 0.450363 -2.6809e-09)
(471.235 1.22803 8.91457e-10)
(471.223 1.77987 -1.67612e-10)
(471.205 2.7055 4.87592e-11)
(471.18 3.23495 9.08354e-11)
(471.155 4.16498 -1.62334e-10)
(471.115 4.71958 -2.87779e-10)
(471.086 5.58663 -6.26155e-11)
(471.027 6.23148 1.43105e-10)
(470.998 6.95815 1.71887e-10)
(470.917 7.77281 4.58723e-11)
(470.89 8.27007 1.88401e-10)
(470.782 9.34407 2.5629e-10)
(470.761 9.51742 6.52344e-11)
(470.624 10.9406 -6.32426e-11)
(470.61 10.7029 -8.43172e-11)
(470.445 12.5485 -2.20464e-10)
(470.432 11.8408 -1.41538e-10)
(470.248 14.1397 1.77044e-10)
(470.222 12.9625 1.95158e-10)
(470.041 15.6623 2.23086e-11)
(469.966 14.1375 -1.07909e-10)
(469.841 16.9768 -3.24335e-11)
(469.632 15.5268 3.63967e-11)
(469.589 0.455291 -2.75206e-09)
(469.58 1.24059 8.20873e-10)
(469.569 1.79821 -2.5341e-10)
(469.552 2.73414 -2.47885e-13)
(469.529 3.26778 9.13833e-11)
(469.507 4.21023 -1.84247e-10)
(469.469 4.76728 -3.35841e-10)
(469.444 5.64896 -1.31061e-10)
(469.389 6.29465 5.66347e-11)
(469.363 7.03794 1.25719e-10)
(469.286 7.85229 4.62786e-11)
(469.265 8.36749 1.69802e-10)
(469.162 9.44099 2.09654e-10)
(469.148 9.63223 3.26831e-13)
(469.016 11.0565 -1.538e-10)
(469.01 10.8344 -1.22853e-10)
(468.851 12.6857 -2.14547e-10)
(468.847 11.9876 -1.60476e-10)
(468.67 14.3016 1.36431e-10)
(468.654 13.1225 1.41151e-10)
(468.479 15.8557 -6.89447e-11)
(468.419 14.3007 -1.44751e-10)
(468.295 17.2241 -2.53597e-11)
(468.108 15.6804 2.4658e-11)
(467.882 0.459521 -2.69871e-09)
(467.873 1.25147 8.63935e-10)
(467.863 1.81391 -2.419e-10)
(467.848 2.75901 6.44794e-11)
(467.826 3.29582 1.32134e-10)
(467.806 4.24959 -1.64262e-10)
(467.772 4.80803 -2.69862e-10)
(467.749 5.70329 -8.26129e-11)
(467.698 6.3487 8.4642e-11)
(467.676 7.1077 2.0167e-10)
(467.604 7.92056 1.01961e-10)
(467.588 8.45297 1.97817e-10)
(467.491 9.52469 2.87262e-10)
(467.482 9.73332 5.25962e-11)
(467.357 11.1573 -1.19544e-10)
(467.358 10.9503 -1.10454e-10)
(467.205 12.8056 -2.22692e-10)
(467.21 12.1169 -1.22988e-10)
(467.039 14.4438 1.59368e-10)
(467.035 13.2629 1.41954e-10)
(466.866 16.0262 -1.94764e-11)
(466.82 14.4454 -1.20904e-10)
(466.697 17.4462 -2.52045e-11)
(466.533 15.8125 6.81927e-11)
(466.123 0.463073 -2.70401e-09)
(466.115 1.26071 8.76372e-10)
(466.105 1.827 -2.36895e-10)
(466.091 2.78017 7.21987e-11)
(466.072 3.31915 1.39676e-10)
(466.053 4.28315 -1.5837e-10)
(466.022 4.8419 -2.64403e-10)
(466.002 5.74971 -7.55286e-11)
(465.955 6.39369 9.21499e-11)
(465.937 7.16745 1.40664e-10)
(465.87 7.97757 3.98444e-11)
(465.858 8.52642 2.12688e-10)
(465.767 9.59502 2.32417e-10)
(465.765 9.82053 -7.66445e-13)
(465.645 11.2426 -1.06311e-10)
(465.654 11.0507 -9.79901e-11)
(465.507 12.9082 -2.09806e-10)
(465.522 12.229 -1.10373e-10)
(465.356 14.5667 1.75525e-10)
(465.363 13.3842 1.55285e-10)
(465.2 16.1743 -5.6565e-12)
(465.168 14.5703 -1.09398e-10)
(465.048 17.6412 -3.91455e-12)
(464.907 15.923 8.74873e-11)
(464.312 0.46595 -2.73523e-09)
(464.304 1.26832 9.27907e-10)
(464.295 1.83751 -2.11128e-10)
(464.282 2.79767 1.37184e-11)
(464.265 3.33783 1.40151e-10)
(464.248 4.31098 -1.0169e-10)
(464.219 4.86898 -2.93364e-10)
(464.203 5.7883 -1.25156e-10)
(464.159 6.42969 9.98909e-11)
(464.146 7.21725 2.04596e-10)
(464.083 8.02337 8.96506e-11)
(464.077 8.58783 1.79621e-10)
(463.99 9.65192 2.54949e-10)
(463.994 9.89374 7.31439e-11)
(463.881 11.3125 -1.21195e-10)
(463.897 11.1354 -1.24947e-10)
(463.757 12.9934 -1.82098e-10)
(463.78 12.3238 -9.75582e-11)
(463.622 14.6702 1.77397e-10)
(463.639 13.4865 1.43405e-10)
(463.481 16.3007 -3.53869e-11)
(463.463 14.6744 -9.1186e-11)
(463.346 17.8078 3.62936e-12)
(463.228 16.0118 1.8968e-11)
(462.449 0.468164 -2.77564e-09)
(462.441 1.27431 8.62115e-10)
(462.433 1.84549 -2.46218e-10)
(462.421 2.81155 -1.18784e-12)
(462.405 3.3519 7.88047e-11)
(462.391 4.33315 -2.11898e-10)
(462.365 4.88935 -3.02006e-10)
(462.351 5.81916 -3.19928e-11)
(462.311 6.45682 1.50123e-10)
(462.301 7.25721 2.12874e-10)
(462.243 8.05804 1.18726e-10)
(462.242 8.63728 2.29453e-10)
(462.161 9.69537 2.63497e-10)
(462.171 9.9529 3.90904e-11)
(462.064 11.3666 -1.29156e-10)
(462.088 11.204 -1.12166e-10)
(461.954 13.0608 -2.12429e-10)
(461.987 12.4011 -1.63308e-10)
(461.834 14.7542 1.27422e-10)
(461.863 13.57 1.24804e-10)
(461.711 16.4055 -2.88484e-11)
(461.706 14.7585 -5.97717e-11)
(461.593 17.9461 6.30838e-11)
(461.497 16.0782 9.53754e-11)
(460.533 0.46971 -2.81667e-09)
(460.525 1.2787 8.74827e-10)
(460.518 1.85093 -2.13677e-10)
(460.507 2.82182 -8.51075e-12)
(460.493 3.36141 9.98152e-11)
(460.481 4.34969 -1.61497e-10)
(460.458 4.90307 -2.96707e-10)
(460.446 5.84235 -6.79113e-11)
(460.41 6.47515 6.60921e-11)
(460.405 7.28743 1.56989e-10)
(460.351 8.08168 9.79726e-11)
(460.355 8.67488 1.67792e-10)
(460.279 9.72547 2.2851e-10)
(460.296 9.99807 3.20868e-11)
(460.194 11.405 -1.08148e-10)
(460.226 11.2566 -6.54981e-11)
(460.098 13.1102 -2.06076e-10)
(460.141 12.4604 -1.30624e-10)
(459.994 14.8182 1.95747e-10)
(460.034 13.6342 1.38323e-10)
(459.888 16.4887 -5.96827e-11)
(459.897 14.823 -1.17942e-10)
(459.787 18.0568 2.59596e-11)
(459.712 16.1228 8.29225e-11)
(458.564 0.470586 -2.75991e-09)
(458.557 1.28148 9.0372e-10)
(458.551 1.85382 -2.35802e-10)
(458.54 2.82847 6.53428e-12)
(458.529 3.36633 8.63772e-11)
(458.518 4.36059 -1.4035e-10)