/*--------------------------------*- C++ -*----------------------------------*\
  =========                 |
  \\      /  F ield         | OpenFOAM: The Open Source CFD Toolbox
   \\    /   O peration     | Website:  https://openfoam.org
    \\  /    A nd           | Version:  10
     \\/     M anipulation  |
\*---------------------------------------------------------------------------*/
FoamFile
{
    format      ascii;
    class       volScalarField;
    location    "0.33";
    object      Ma;
}
// * * * * * * * * * * * * * * * * * * * * * * * * * * * * * * * * * * * * * //

dimensions      [0 0 0 0 0 0 0];

internalField   nonuniform List<scalar> 
4176
(
1.84514
1.84506
1.84486
1.84463
1.8442
1.84383
1.84318
1.84268
1.84179
1.84116
1.84006
1.8393
1.83799
1.83708
1.83562
1.83448
1.83302
1.83147
1.83016
1.82805
1.8271
1.82417
1.82399
1.82018
1.84502
1.84494
1.84474
1.8445
1.84407
1.84368
1.84303
1.8425
1.84161
1.84095
1.83983
1.83904
1.83771
1.83677
1.83528
1.83412
1.83262
1.83104
1.82969
1.82753
1.82658
1.82353
1.82331
1.81912
1.84467
1.84459
1.84439
1.84415
1.84374
1.84335
1.84273
1.8422
1.84134
1.84069
1.83961
1.83883
1.83753
1.83661
1.83514
1.83402
1.83253
1.831
1.82969
1.82758
1.82668
1.82369
1.82346
1.81915
1.84402
1.84394
1.84375
1.8435
1.8431
1.84271
1.84208
1.84155
1.8407
1.84005
1.83896
1.83819
1.83688
1.83597
1.83449
1.83338
1.83187
1.83032
1.82907
1.82689
1.82603
1.82308
1.82289
1.81877
1.84307
1.84299
1.8428
1.84256
1.84216
1.84178
1.84116
1.84064
1.83979
1.83915
1.83808
1.83732
1.83602
1.83513
1.83365
1.83257
1.83105
1.82952
1.8283
1.82611
1.82526
1.82235
1.82215
1.81816
1.84182
1.84175
1.84156
1.84132
1.84092
1.84054
1.83993
1.83941
1.83858
1.83793
1.83688
1.83612
1.83484
1.83395
1.83248
1.83142
1.82987
1.82842
1.82712
1.82501
1.82413
1.82125
1.82101
1.81703
1.84027
1.8402
1.84001
1.83978
1.83939
1.839
1.8384
1.83789
1.83707
1.83643
1.83539
1.83464
1.83337
1.8325
1.83104
1.83
1.82845
1.82707
1.82571
1.82368
1.82277
1.81993
1.81967
1.81571
1.83842
1.83835
1.83817
1.83793
1.83755
1.83717
1.83658
1.83607
1.83526
1.83463
1.8336
1.83286
1.83161
1.83075
1.82931
1.82829
1.82674
1.8254
1.82402
1.82205
1.82112
1.81833
1.81805
1.81415
1.83628
1.8362
1.83602
1.83579
1.83541
1.83504
1.83446
1.83395
1.83316
1.83253
1.83152
1.83079
1.82956
1.82871
1.82728
1.82629
1.82475
1.82346
1.82205
1.82016
1.8192
1.81646
1.81617
1.81233
1.83383
1.83376
1.83358
1.83335
1.83298
1.83261
1.83204
1.83154
1.83076
1.83015
1.82915
1.82843
1.82722
1.82638
1.82497
1.824
1.82247
1.82123
1.81981
1.81798
1.817
1.81432
1.81402
1.81024
1.83109
1.83102
1.83085
1.83062
1.83025
1.82989
1.82933
1.82884
1.82807
1.82747
1.82649
1.82578
1.82458
1.82377
1.82238
1.82143
1.81992
1.81871
1.81729
1.81553
1.81452
1.81193
1.8116
1.8079
1.82806
1.82799
1.82782
1.82759
1.82723
1.82688
1.82632
1.82584
1.82509
1.82449
1.82353
1.82284
1.82166
1.82087
1.8195
1.81858
1.81708
1.81592
1.81449
1.8128
1.81177
1.80926
1.80892
1.80529
1.82473
1.82466
1.82449
1.82427
1.82392
1.82357
1.82303
1.82256
1.82181
1.82123
1.82029
1.81961
1.81846
1.81768
1.81634
1.81544
1.81396
1.81284
1.81141
1.80979
1.80876
1.80631
1.80597
1.80241
1.82111
1.82104
1.82087
1.82066
1.82031
1.81997
1.81944
1.81898
1.81825
1.81769
1.81676
1.8161
1.81496
1.81421
1.81289
1.81202
1.81057
1.80948
1.80806
1.8065
1.80546
1.8031
1.80275
1.79927
1.8172
1.81713
1.81696
1.81676
1.81642
1.81608
1.81556
1.81511
1.8144
1.81385
1.81294
1.8123
1.81119
1.81046
1.80916
1.80832
1.80689
1.80585
1.80444
1.80294
1.8019
1.79961
1.79926
1.79587
1.81299
1.81292
1.81276
1.81256
1.81223
1.81191
1.81139
1.81096
1.81026
1.80973
1.80884
1.80822
1.80713
1.80642
1.80515
1.80434
1.80294
1.80193
1.80054
1.79911
1.79807
1.79586
1.79551
1.7922
1.8085
1.80843
1.80827
1.80808
1.80775
1.80744
1.80694
1.80652
1.80584
1.80532
1.80446
1.80386
1.80279
1.80211
1.80087
1.80008
1.79871
1.79775
1.79637
1.79501
1.79397
1.79184
1.79149
1.78827
1.80371
1.80365
1.8035
1.8033
1.80299
1.80269
1.8022
1.8018
1.80113
1.80063
1.79979
1.79921
1.79818
1.79752
1.79631
1.79555
1.79421
1.79328
1.79194
1.79064
1.7896
1.78756
1.7872
1.78408
1.79864
1.79858
1.79843
1.79825
1.79794
1.79765
1.79718
1.79679
1.79614
1.79566
1.79484
1.79429
1.79328
1.79265
1.79147
1.79075
1.78944
1.78855
1.78723
1.786
1.78497
1.78301
1.78265
1.77962
1.79329
1.79322
1.79308
1.7929
1.79261
1.79232
1.79187
1.79149
1.79087
1.79041
1.78962
1.78908
1.78811
1.78751
1.78636
1.78567
1.7844
1.78355
1.78226
1.78109
1.78007
1.77819
1.77783
1.7749
1.78765
1.78758
1.78745
1.78728
1.78699
1.78672
1.78628
1.78592
1.78532
1.78488
1.78411
1.7836
1.78266
1.78209
1.78097
1.78032
1.77909
1.77828
1.77702
1.77592
1.77491
1.77312
1.77276
1.76993
1.78172
1.78166
1.78153
1.78137
1.78109
1.78083
1.78041
1.78007
1.77949
1.77907
1.77833
1.77785
1.77694
1.7764
1.77532
1.7747
1.77351
1.77275
1.77152
1.77048
1.76948
1.76778
1.76742
1.76469
1.77552
1.77546
1.77534
1.77518
1.77491
1.77467
1.77426
1.77394
1.77338
1.77299
1.77227
1.77182
1.77094
1.77044
1.76939
1.76882
1.76766
1.76694
1.76576
1.76477
1.7638
1.76218
1.76183
1.7592
1.76904
1.76898
1.76886
1.76871
1.76846
1.76823
1.76784
1.76754
1.767
1.76663
1.76594
1.76552
1.76467
1.7642
1.7632
1.76266
1.76155
1.76088
1.75974
1.7588
1.75786
1.75633
1.75598
1.75346
1.76229
1.76223
1.76212
1.76197
1.76173
1.76152
1.76115
1.76086
1.76035
1.76001
1.75935
1.75896
1.75814
1.7577
1.75674
1.75624
1.75517
1.75454
1.75345
1.75257
1.75166
1.75021
1.74988
1.74746
1.75526
1.75521
1.7551
1.75496
1.75474
1.75453
1.75418
1.75392
1.75343
1.75311
1.75248
1.75212
1.75134
1.75094
1.75001
1.74956
1.74853
1.74795
1.7469
1.74608
1.74519
1.74384
1.74353
1.74121
1.74797
1.74791
1.74781
1.74768
1.74747
1.74728
1.74695
1.7467
1.74624
1.74595
1.74535
1.74502
1.74428
1.74391
1.74303
1.74261
1.74162
1.7411
1.74009
1.73933
1.73848
1.73721
1.73691
1.7347
1.74041
1.74036
1.74026
1.74014
1.73994
1.73976
1.73945
1.73923
1.73879
1.73852
1.73796
1.73766
1.73695
1.73662
1.73578
1.73541
1.73446
1.73398
1.73302
1.73233
1.73151
1.73033
1.73005
1.72794
1.73259
1.73254
1.73245
1.73234
1.73215
1.73199
1.73169
1.73149
1.73108
1.73084
1.7303
1.73004
1.72936
1.72908
1.72827
1.72794
1.72705
1.72661
1.7257
1.72506
1.72429
1.72319
1.72294
1.72092
1.72451
1.72446
1.72438
1.72428
1.7241
1.72395
1.72367
1.72349
1.72311
1.72289
1.72239
1.72216
1.72152
1.72127
1.72051
1.72023
1.71937
1.71899
1.71813
1.71755
1.71681
1.7158
1.71556
1.71366
1.71618
1.71614
1.71606
1.71596
1.7158
1.71567
1.71541
1.71524
1.71488
1.7147
1.71422
1.71402
1.71342
1.71321
1.71249
1.71225
1.71145
1.71112
1.7103
1.70978
1.70909
1.70817
1.70793
1.70616
1.7076
1.70756
1.70748
1.7074
1.70725
1.70713
1.70689
1.70675
1.70641
1.70625
1.7058
1.70564
1.70507
1.7049
1.70423
1.70403
1.70327
1.70299
1.70222
1.70176
1.70112
1.70027
1.70007
1.6984
1.69877
1.69873
1.69867
1.69859
1.69845
1.69835
1.69812
1.698
1.69769
1.69755
1.69714
1.69701
1.69648
1.69634
1.69571
1.69556
1.69484
1.69462
1.6939
1.6935
1.6929
1.69213
1.69195
1.69039
1.68971
1.68967
1.68961
1.68954
1.68941
1.68932
1.68911
1.68901
1.68872
1.68862
1.68823
1.68813
1.68764
1.68754
1.68694
1.68684
1.68617
1.68599
1.68532
1.68498
1.68443
1.68374
1.68358
1.68214
1.6804
1.68036
1.68031
1.68025
1.68013
1.68005
1.67987
1.67979
1.67952
1.67944
1.67908
1.67901
1.67855
1.67849
1.67794
1.67787
1.67725
1.67713
1.6765
1.67622
1.67572
1.67511
1.67497
1.67365
1.67086
1.67083
1.67078
1.67072
1.67062
1.67056
1.67039
1.67032
1.67008
1.67002
1.6697
1.66966
1.66923
1.66921
1.66869
1.66867
1.66809
1.66802
1.66744
1.66722
1.66677
1.66623
1.66612
1.66491
1.6611
1.66106
1.66101
1.66097
1.66087
1.66083
1.66067
1.66063
1.66041
1.66038
1.66008
1.66007
1.65968
1.65969
1.65921
1.65923
1.65869
1.65867
1.65814
1.65798
1.65757
1.65711
1.65703
1.65594
1.6511
1.65107
1.65103
1.65099
1.6509
1.65087
1.65073
1.65071
1.65051
1.6505
1.65023
1.65025
1.64989
1.64994
1.6495
1.64957
1.64907
1.64909
1.6486
1.6485
1.64814
1.64774
1.64771
1.64672
1.64089
1.64085
1.64082
1.64079
1.64071
1.64069
1.64057
1.64056
1.64038
1.6404
1.64015
1.6402
1.63988
1.63996
1.63956
1.63967
1.63921
1.63929
1.63884
1.6388
1.63847
1.63815
1.63815
1.63727
1.63045
1.63042
1.63039
1.63036
1.6303
1.63029
1.63018
1.63019
1.63003
1.63007
1.62985
1.62993
1.62964
1.62976
1.62939
1.62954
1.62912
1.62925
1.62884
1.62886
1.62858
1.62833
1.62836
1.62759
1.6198
1.61977
1.61974
1.61973
1.61967
1.61967
1.61958
1.6196
1.61947
1.61953
1.61934
1.61944
1.61918
1.61933
1.619
1.61919
1.61881
1.61899
1.61862
1.61871
1.61846
1.61828
1.61835
1.61767
1.60894
1.60891
1.60889
1.60887
1.60883
1.60884
1.60876
1.60881
1.60869
1.60877
1.6086
1.60874
1.6085
1.60869
1.60839
1.60862
1.60828
1.60851
1.60818
1.60833
1.60812
1.60801
1.60812
1.60752
1.59787
1.59784
1.59782
1.59781
1.59778
1.5978
1.59774
1.5978
1.5977
1.5978
1.59766
1.59782
1.59761
1.59784
1.59757
1.59784
1.59753
1.59782
1.59752
1.59773
1.59755
1.59753
1.59766
1.59716
1.58659
1.58656
1.58655
1.58655
1.58652
1.58655
1.58651
1.58658
1.58651
1.58663
1.58651
1.5867
1.58652
1.58678
1.58653
1.58685
1.58657
1.58691
1.58664
1.58691
1.58676
1.58682
1.58698
1.58658
1.57511
1.57508
1.57507
1.57508
1.57506
1.57511
1.57508
1.57516
1.57511
1.57525
1.57516
1.57537
1.57522
1.57551
1.5753
1.57565
1.57541
1.57579
1.57555
1.57589
1.57576
1.5759
1.57607
1.57578
1.56343
1.56341
1.5634
1.56341
1.56341
1.56346
1.56344
1.56355
1.56351
1.56368
1.5636
1.56384
1.56372
1.56404
1.56386
1.56425
1.56404
1.56447
1.56426
1.56466
1.56456
1.56477
1.56496
1.56477
1.55156
1.55154
1.55154
1.55155
1.55156
1.55162
1.55162
1.55174
1.55172
1.5519
1.55186
1.55212
1.55202
1.55237
1.55222
1.55266
1.55247
1.55295
1.55277
1.55323
1.55315
1.55344
1.55364
1.55355
1.5395
1.53948
1.53948
1.5395
1.53952
1.53959
1.5396
1.53974
1.53974
1.53994
1.53992
1.5402
1.54013
1.54052
1.54039
1.54087
1.54071
1.54124
1.54108
1.5416
1.54154
1.54191
1.54212
1.54213
1.52725
1.52723
1.52724
1.52727
1.52729
1.52738
1.5274
1.52755
1.52757
1.52779
1.52779
1.5281
1.52806
1.52847
1.52837
1.52889
1.52875
1.52934
1.5292
1.52979
1.52974
1.5302
1.53039
1.53052
1.51483
1.51481
1.51482
1.51486
1.51489
1.51498
1.51502
1.51518
1.51522
1.51546
1.51548
1.51582
1.5158
1.51624
1.51617
1.51672
1.51661
1.51725
1.51713
1.51778
1.51774
1.5183
1.51848
1.5187
1.50224
1.50222
1.50223
1.50227
1.50231
1.50241
1.50247
1.50264
1.5027
1.50296
1.50299
1.50336
1.50336
1.50383
1.50379
1.50438
1.50429
1.50497
1.50487
1.50559
1.50555
1.5062
1.50638
1.5067
1.48947
1.48946
1.48947
1.48952
1.48957
1.48968
1.48974
1.48993
1.49
1.49028
1.49034
1.49072
1.49075
1.49125
1.49123
1.49186
1.49178
1.49253
1.49243
1.49324
1.49318
1.49392
1.4941
1.49451
1.47655
1.47654
1.47656
1.47661
1.47666
1.47678
1.47686
1.47706
1.47715
1.47744
1.47752
1.47793
1.47797
1.47851
1.4785
1.47917
1.47911
1.4799
1.47981
1.4807
1.48063
1.48145
1.48164
1.48214
1.46348
1.46346
1.46349
1.46354
1.4636
1.46373
1.46382
1.46403
1.46413
1.46444
1.46454
1.46497
1.46502
1.4656
1.4656
1.46632
1.46626
1.46713
1.46701
1.46798
1.46793
1.46881
1.46901
1.46958
1.45026
1.45025
1.45027
1.45033
1.4504
1.45053
1.45063
1.45086
1.45097
1.4513
1.4514
1.45186
1.45192
1.45254
1.45254
1.45332
1.45324
1.45418
1.45407
1.45509
1.45505
1.45599
1.4562
1.45685
1.4369
1.43689
1.43692
1.43698
1.43705
1.43719
1.4373
1.43754
1.43766
1.43801
1.43812
1.43861
1.43867
1.43933
1.43932
1.44016
1.44008
1.44107
1.44097
1.44203
1.44202
1.443
1.44323
1.44396
1.42341
1.4234
1.42343
1.4235
1.42358
1.42372
1.42384
1.42408
1.42421
1.42458
1.42469
1.42522
1.42527
1.42598
1.42596
1.42684
1.42678
1.4278
1.42772
1.42881
1.42882
1.42986
1.43009
1.43089
1.4098
1.40979
1.40982
1.40989
1.40998
1.41012
1.41025
1.4105
1.41063
1.41103
1.41113
1.41169
1.41174
1.41248
1.41247
1.41338
1.41333
1.41437
1.41432
1.41544
1.41547
1.41655
1.4168
1.41766
1.39607
1.39606
1.3961
1.39616
1.39626
1.3964
1.39654
1.3968
1.39693
1.39735
1.39745
1.39803
1.39809
1.39884
1.39886
1.39977
1.39975
1.40081
1.40078
1.40193
1.40198
1.4031
1.40335
1.40428
1.38223
1.38222
1.38226
1.38232
1.38243
1.38257
1.38272
1.38298
1.38312
1.38354
1.38366
1.38424
1.38432
1.38508
1.38511
1.38604
1.38603
1.38711
1.38711
1.38828
1.38834
1.3895
1.38976
1.39075
1.36829
1.36827
1.36832
1.36838
1.36849
1.36863
1.36879
1.36904
1.36921
1.36961
1.36975
1.37034
1.37043
1.37119
1.37125
1.37218
1.3722
1.37329
1.3733
1.37449
1.37457
1.37577
1.37604
1.37707
1.35425
1.35423
1.35427
1.35434
1.35444
1.35459
1.35476
1.355
1.35519
1.35558
1.35574
1.35632
1.35643
1.3572
1.35727
1.3582
1.35824
1.35934
1.35937
1.36058
1.36067
1.3619
1.36217
1.36326
1.34011
1.34009
1.34013
1.3402
1.3403
1.34045
1.34062
1.34086
1.34107
1.34144
1.34164
1.34219
1.34233
1.34309
1.34318
1.34412
1.34417
1.34528
1.34532
1.34655
1.34665
1.34791
1.34819
1.34932
1.32587
1.32586
1.3259
1.32597
1.32607
1.32622
1.32639
1.32663
1.32685
1.32721
1.32743
1.32797
1.32813
1.32888
1.32898
1.32993
1.32999
1.33111
1.33117
1.33241
1.33253
1.33381
1.33409
1.33526
1.31155
1.31153
1.31157
1.31164
1.31175
1.3119
1.31207
1.31231
1.31254
1.31289
1.31312
1.31365
1.31383
1.31458
1.3147
1.31564
1.31572
1.31685
1.31691
1.31817
1.31829
1.3196
1.31988
1.32109
1.29714
1.29712
1.29716
1.29723
1.29734
1.29749
1.29766
1.2979
1.29813
1.29848
1.29872
1.29925
1.29945
1.30018
1.30031
1.30127
1.30136
1.30249
1.30257
1.30384
1.30397
1.30529
1.30557
1.30682
1.28263
1.28261
1.28265
1.28272
1.28283
1.28298
1.28316
1.2834
1.28364
1.28398
1.28424
1.28476
1.28497
1.28571
1.28585
1.28681
1.28691
1.28805
1.28814
1.28941
1.28955
1.29089
1.29118
1.29245
1.26804
1.26802
1.26806
1.26813
1.26824
1.26839
1.26858
1.26882
1.26906
1.26941
1.26968
1.27019
1.27042
1.27116
1.27131
1.27228
1.27238
1.27353
1.27362
1.27491
1.27506
1.27641
1.2767
1.27799
1.25335
1.25333
1.25338
1.25345
1.25356
1.25372
1.25391
1.25415
1.25441
1.25475
1.25504
1.25555
1.2558
1.25653
1.2567
1.25767
1.25778
1.25893
1.25904
1.26033
1.26049
1.26185
1.26214
1.26346
1.23859
1.23857
1.23862
1.23869
1.23881
1.23897
1.23916
1.23941
1.23968
1.24003
1.24034
1.24083
1.24111
1.24183
1.24202
1.243
1.24311
1.24428
1.24439
1.24569
1.24585
1.24722
1.24751
1.24885
1.22375
1.22373
1.22378
1.22386
1.22399
1.22415
1.22435
1.22461
1.22489
1.22524
1.22557
1.22606
1.22637
1.22707
1.2273
1.22825
1.22839
1.22956
1.22968
1.23098
1.23115
1.23252
1.23281
1.23416
1.20887
1.20885
1.2089
1.20898
1.20911
1.20928
1.20949
1.20976
1.21004
1.2104
1.21074
1.21123
1.21157
1.21226
1.21252
1.21345
1.21361
1.21478
1.2149
1.2162
1.21638
1.21775
1.21804
1.2194
1.19396
1.19394
1.19399
1.19407
1.19421
1.19438
1.1946
1.19487
1.19516
1.19552
1.19587
1.19636
1.19672
1.19739
1.19768
1.19859
1.19879
1.19992
1.20006
1.20137
1.20154
1.20291
1.2032
1.20456
1.17906
1.17904
1.17909
1.17917
1.1793
1.17948
1.17969
1.17996
1.18025
1.18062
1.18097
1.18145
1.18182
1.18247
1.18279
1.18367
1.1839
1.18501
1.18516
1.18646
1.18663
1.188
1.18828
1.18965
1.16421
1.16419
1.16423
1.16431
1.16443
1.1646
1.1648
1.16506
1.16534
1.16569
1.16604
1.1665
1.16688
1.1675
1.16785
1.16868
1.16894
1.17002
1.17019
1.17148
1.17165
1.17301
1.17328
1.17464
1.14942
1.14939
1.14943
1.1495
1.1496
1.14976
1.14994
1.15018
1.15044
1.15077
1.1511
1.15154
1.1519
1.1525
1.15284
1.15364
1.15392
1.15495
1.15515
1.1564
1.15657
1.15793
1.15819
1.15955
1.13469
1.13466
1.13469
1.13474
1.13483
1.13496
1.13512
1.13533
1.13556
1.13586
1.13616
1.13656
1.13689
1.13745
1.13778
1.13853
1.13881
1.1398
1.14001
1.14123
1.1414
1.14275
1.14299
1.14436
1.11999
1.11996
1.11997
1.12001
1.12008
1.12019
1.12032
1.1205
1.1207
1.12095
1.12121
1.12157
1.12187
1.12238
1.12267
1.12337
1.12363
1.12457
1.12476
1.12595
1.12611
1.12746
1.12769
1.12906
1.10525
1.10521
1.10522
1.10524
1.1053
1.10538
1.10549
1.10564
1.1058
1.10602
1.10625
1.10656
1.10682
1.10728
1.10752
1.10818
1.10838
1.10928
1.10943
1.11058
1.1107
1.11205
1.11225
1.11364
1.09036
1.09031
1.09032
1.09032
1.09038
1.09044
1.09055
1.09067
1.09083
1.09101
1.09122
1.09149
1.09172
1.09214
1.09232
1.09298
1.09307
1.09399
1.09402
1.09518
1.0952
1.09653
1.09669
1.09805
1.07518
1.07512
1.07514
1.07514
1.07521
1.07527
1.07538
1.07549
1.07565
1.07583
1.07603
1.07629
1.07652
1.0769
1.07707
1.07772
1.07773
1.07867
1.0786
1.07976
1.07969
1.08098
1.08107
1.08234
1.05957
1.05952
1.05953
1.05956
1.05962
1.05971
1.05983
1.05998
1.06015
1.06036
1.06058
1.06086
1.06111
1.06149
1.0617
1.06231
1.06236
1.06326
1.06318
1.06433
1.0642
1.06549
1.0655
1.0667
1.0434
1.04336
1.04338
1.04343
1.04352
1.04364
1.04379
1.04399
1.04421
1.04447
1.04474
1.04508
1.04538
1.0458
1.0461
1.04669
1.04685
1.04772
1.04769
1.04886
1.0487
1.05004
1.04999
1.05121
1.0266
1.02656
1.0266
1.02666
1.02678
1.02694
1.02715
1.0274
1.02768
1.02801
1.02837
1.02878
1.02918
1.02968
1.03009
1.03075
1.03103
1.03195
1.032
1.03326
1.03311
1.03455
1.03446
1.03577
1.00912
1.00907
1.00913
1.00921
1.00937
1.00957
1.00983
1.01013
1.0105
1.01089
1.01135
1.01184
1.01237
1.01298
1.01352
1.0143
1.01472
1.01579
1.01596
1.01737
1.01729
1.01889
1.01881
1.02029
0.990971
0.990925
0.990999
0.991097
0.991281
0.991514
0.991818
0.99217
0.992602
0.993064
0.993617
0.994199
0.994844
0.995565
0.996257
0.997155
0.99777
0.999005
0.999344
1.00097
1.00104
1.00289
1.00287
1.00463
0.97223
0.97219
0.972261
0.972384
0.972576
0.972842
0.973167
0.97357
0.974032
0.974567
0.975163
0.975839
0.976556
0.977383
0.978199
0.979195
0.980044
0.981327
0.982011
0.983731
0.984107
0.986242
0.986389
0.988582
0.952998
0.952962
0.953031
0.953162
0.953362
0.953642
0.953982
0.954406
0.954892
0.955458
0.95609
0.956809
0.957578
0.958464
0.95936
0.960431
0.961424
0.962745
0.963738
0.965445
0.96624
0.968525
0.968976
0.971733
0.933396
0.933361
0.933428
0.933559
0.933759
0.934041
0.934384
0.93481
0.935303
0.935875
0.936519
0.937247
0.938036
0.938937
0.939864
0.940959
0.942009
0.943348
0.944475
0.946151
0.947251
0.949491
0.95027
0.953473
0.913553
0.913516
0.913578
0.913704
0.913898
0.914172
0.914508
0.914923
0.915409
0.915967
0.916603
0.917314
0.918095
0.918976
0.919898
0.920969
0.922017
0.923331
0.924456
0.926103
0.927213
0.929407
0.930233
0.933433
0.89359
0.893548
0.893605
0.893722
0.893906
0.894165
0.894487
0.894882
0.89535
0.895881
0.896496
0.897172
0.897929
0.898767
0.899659
0.900677
0.901692
0.90294
0.904012
0.905603
0.906601
0.908747
0.909443
0.91238
0.87361
0.873564
0.873614
0.87372
0.873892
0.874132
0.874436
0.874805
0.875249
0.875744
0.87633
0.876961
0.877683
0.878465
0.879317
0.880266
0.881233
0.882396
0.883408
0.8849
0.885819
0.887841
0.888478
0.891197
0.853707
0.853654
0.853698
0.85379
0.85395
0.854167
0.854452
0.854789
0.855209
0.855661
0.856217
0.856794
0.85748
0.858196
0.859002
0.859876
0.860789
0.861855
0.862809
0.864194
0.865041
0.866914
0.86751
0.870022
0.833952
0.833892
0.833935
0.834008
0.834159
0.834348
0.834618
0.834916
0.835316
0.835715
0.836248
0.836757
0.837416
0.838051
0.838823
0.839606
0.840469
0.841437
0.842329
0.843606
0.844387
0.846105
0.846668
0.848972
0.814408
0.814341
0.814385
0.814435
0.814581
0.814737
0.814997
0.815248
0.815636
0.815972
0.816493
0.816921
0.817567
0.818103
0.818858
0.819531
0.820362
0.821222
0.822056
0.823215
0.823949
0.825504
0.826038
0.828135
0.795125
0.795054
0.79509
0.795129
0.795258
0.795396
0.79563
0.795853
0.796208
0.796504
0.796989
0.79736
0.79797
0.798429
0.79915
0.799724
0.800519
0.80127
0.80206
0.803095
0.803784
0.805176
0.805684
0.807577
0.776142
0.776069
0.776092
0.776129
0.776231
0.776363
0.776557
0.77677
0.777074
0.777354
0.777776
0.778123
0.778663
0.779084
0.779733
0.780249
0.78098
0.781635
0.782387
0.783285
0.783939
0.78517
0.785657
0.787349
0.757488
0.757416
0.757429
0.75746
0.757541
0.75766
0.757824
0.758018
0.75828
0.758537
0.758905
0.759224
0.759698
0.760084
0.76066
0.761123
0.761786
0.762357
0.76307
0.76382
0.76445
0.76553
0.765996
0.76749
0.739193
0.73912
0.739124
0.739147
0.739211
0.739315
0.739454
0.739625
0.739854
0.74008
0.740404
0.740687
0.741107
0.741447
0.741963
0.742368
0.74297
0.74346
0.74412
0.744745
0.74536
0.746279
0.746728
0.748029
0.721275
0.7212
0.721197
0.721212
0.721261
0.72135
0.721466
0.721613
0.721811
0.722006
0.722291
0.722535
0.722907
0.723201
0.723661
0.724007
0.72455
0.724962
0.725571
0.726083
0.726685
0.727439
0.727875
0.728987
0.703748
0.703674
0.703664
0.703671
0.703706
0.703779
0.703875
0.703998
0.704168
0.704332
0.704581
0.704786
0.705115
0.70536
0.705771
0.706058
0.706547
0.706885
0.707439
0.707855
0.708428
0.709031
0.709453
0.710386
0.686626
0.686552
0.686535
0.686537
0.686557
0.686617
0.686691
0.686794
0.686936
0.68707
0.687286
0.687453
0.68774
0.687941
0.688303
0.688535
0.688972
0.68924
0.689744
0.690067
0.690602
0.691064
0.691479
0.692239
0.669917
0.669842
0.669823
0.669814
0.669827
0.669868
0.669928
0.670006
0.670125
0.67023
0.670414
0.670545
0.670794
0.67095
0.671268
0.671445
0.671834
0.672036
0.672488
0.672731
0.673221
0.673554
0.673961
0.674561
0.653628
0.653555
0.653527
0.653517
0.653512
0.653548
0.653583
0.653647
0.653738
0.653818
0.65397
0.654068
0.65428
0.654394
0.65467
0.654796
0.655138
0.655277
0.655682
0.655844
0.656291
0.656514
0.656909
0.657355
0.637764
0.637688
0.637664
0.637634
0.637638
0.637638
0.637679
0.637706
0.637788
0.637834
0.637963
0.638025
0.638204
0.638278
0.638514
0.638592
0.63889
0.638969
0.639328
0.639416
0.639819
0.639944
0.640328
0.640623
0.622324
0.622253
0.622215
0.622196
0.622167
0.622184
0.622182
0.622214
0.622257
0.622291
0.622386
0.622422
0.622567
0.622603
0.622802
0.622833
0.623091
0.623113
0.62343
0.623448
0.62381
0.623847
0.62421
0.624366
0.607312
0.607237
0.607209
0.607162
0.607157
0.607124
0.607146
0.607128
0.607177
0.607171
0.607252
0.607253
0.60737
0.607369
0.607533
0.607521
0.60774
0.607709
0.607986
0.607939
0.608264
0.608219
0.608555
0.608583
0.592724
0.592655
0.592612
0.592581
0.592539
0.59253
0.592505
0.592502
0.592508
0.592498
0.592544
0.592524
0.592609
0.592576
0.592707
0.592654
0.592836
0.592755
0.592994
0.592885
0.593173
0.59305
0.593358
0.593272
0.578562
0.578489
0.578456
0.5784
0.578378
0.578327
0.578324
0.578274
0.57829
0.57824
0.578277
0.578224
0.578287
0.57822
0.57832
0.578229
0.578376
0.578249
0.578451
0.578283
0.578538
0.578339
0.578619
0.578431
0.564817
0.564751
0.564707
0.564659
0.564615
0.564574
0.564539
0.564497
0.564478
0.564425
0.56443
0.56436
0.564394
0.5643
0.564371
0.564243
0.564359
0.564187
0.564356
0.564134
0.564355
0.564087
0.564342
0.564058
0.551492
0.551423
0.551384
0.551325
0.551284
0.551224
0.551191
0.551122
0.551102
0.551021
0.551015
0.550918
0.550932
0.550809
0.550854
0.550693
0.550779
0.550567
0.550704
0.55043
0.550624
0.55029
0.550525
0.55015
0.538574
0.53851
0.538468
0.538405
0.538362
0.53829
0.538251
0.53817
0.538135
0.538041
0.538014
0.537899
0.537891
0.537744
0.537763
0.537572
0.53763
0.53738
0.53749
0.53717
0.537337
0.536942
0.53716
0.536702
0.526064
0.526001
0.525956
0.525895
0.525838
0.525772
0.525712
0.525631
0.525576
0.525472
0.525427
0.525295
0.525266
0.525096
0.525093
0.524873
0.524907
0.524622
0.524707
0.524342
0.524488
0.524036
0.524239
0.523705
0.513951
0.513889
0.513848
0.513775
0.513729
0.513637
0.51359
0.51348
0.51343
0.513301
0.513249
0.513095
0.513051
0.512859
0.512835
0.512589
0.5126
0.512284
0.512346
0.511942
0.512066
0.511563
0.511753
0.511149
0.50223
0.502171
0.502124
0.502059
0.501995
0.501916
0.501841
0.501743
0.501664
0.501538
0.501463
0.501299
0.501235
0.501025
0.500982
0.500712
0.500703
0.500357
0.500398
0.499957
0.500063
0.499513
0.499691
0.499024
0.490892
0.490834
0.490791
0.490716
0.49066
0.490562
0.490498
0.490373
0.490302
0.49015
0.490073
0.489889
0.489814
0.489584
0.489524
0.489233
0.489204
0.488832
0.488853
0.48838
0.488468
0.487874
0.488044
0.487318
0.479929
0.479875
0.479828
0.479758
0.479691
0.479599
0.479516
0.479399
0.479305
0.479155
0.479058
0.478866
0.478774
0.478529
0.478453
0.478142
0.478096
0.4777
0.477702
0.477199
0.477272
0.476639
0.476795
0.476021
0.469335
0.469281
0.469237
0.469161
0.469097
0.468994
0.468915
0.468782
0.468689
0.468522
0.468421
0.468213
0.468111
0.46785
0.467759
0.46743
0.467367
0.46695
0.466936
0.466406
0.466462
0.465796
0.465942
0.465118
0.459098
0.459049
0.459
0.45893
0.458856
0.458758
0.458666
0.458534
0.458429
0.458257
0.458144
0.457927
0.457812
0.457539
0.457434
0.457089
0.457011
0.456574
0.456543
0.455989
0.456031
0.455333
0.45547
0.454601
0.449214
0.449164
0.44912
0.449042
0.448975
0.448865
0.448776
0.448633
0.448525
0.448345
0.448223
0.447996
0.447871
0.447585
0.447468
0.447108
0.447015
0.44656
0.446515
0.445938
0.445967
0.44524
0.445367
0.444461
0.43967
0.439625
0.439576
0.439505
0.439426
0.439324
0.439223
0.439081
0.438964
0.438777
0.438648
0.438412
0.438277
0.43798
0.437851
0.437478
0.437372
0.436902
0.436841
0.436246
0.43626
0.435507
0.435625
0.434684
0.430461
0.430416
0.430371
0.430293
0.430222
0.430107
0.430011
0.429859
0.429741
0.429546
0.429411
0.429166
0.429022
0.428715
0.428576
0.428191
0.428073
0.427588
0.427514
0.426901
0.426902
0.426127
0.426234
0.42526
0.421576
0.421533
0.421486
0.421412
0.421334
0.421223
0.421119
0.420968
0.420841
0.420644
0.420501
0.420249
0.420098
0.419782
0.419633
0.419237
0.419108
0.418611
0.418524
0.417896
0.417883
0.417089
0.417186
0.416183
0.413007
0.412966
0.412919
0.412845
0.412766
0.412653
0.412547
0.412391
0.412263
0.412058
0.411911
0.411652
0.411495
0.41117
0.411013
0.410607
0.41047
0.40996
0.409864
0.409222
0.409198
0.408388
0.408474
0.407446
0.404745
0.404706
0.404661
0.404583
0.404509
0.404388
0.404285
0.404123
0.403992
0.403783
0.403632
0.403367
0.403203
0.402871
0.402708
0.402292
0.402148
0.401627
0.401524
0.400868
0.400837
0.400011
0.400089
0.399045
0.396782
0.396746
0.396698
0.396626
0.396542
0.396431
0.396316
0.396159
0.39602
0.39581
0.395653
0.395384
0.395215
0.394876
0.394708
0.394284
0.394134
0.393601
0.393494
0.392825
0.392791
0.391949
0.392025
0.390966
0.389109
0.389073
0.38903
0.388951
0.388877
0.388752
0.388649
0.388478
0.388346
0.388126
0.38797
0.387693
0.387522
0.387176
0.387004
0.386572
0.386418
0.385876
0.385765
0.385084
0.385046
0.384192
0.384264
0.383195
0.381718
0.381686
0.381639
0.381568
0.381482
0.38137
0.381251
0.381092
0.380946
0.380731
0.380567
0.380289
0.380113
0.379763
0.379586
0.379148
0.378989
0.37844
0.378324
0.377635
0.377593
0.376729
0.376797
0.375718
0.374602
0.374568
0.374527
0.374447
0.374374
0.374246
0.374142
0.373965
0.373831
0.373604
0.373444
0.373159
0.372981
0.372626
0.372445
0.372002
0.371839
0.371285
0.371163
0.370468
0.37042
0.36955
0.369611
0.368526
0.36775
0.367721
0.367673
0.367605
0.367516
0.367406
0.367282
0.367122
0.366971
0.366753
0.366583
0.366299
0.366116
0.365759
0.365574
0.365127
0.364959
0.3644
0.364273
0.363574
0.36352
0.362644
0.362701
0.361606
0.361157
0.361126
0.361087
0.361004
0.360936
0.360801
0.360701
0.360518
0.360383
0.360151
0.359986
0.359696
0.359513
0.359151
0.358963
0.358513
0.358341
0.357779
0.357646
0.356943
0.356883
0.356003
0.356054
0.354955
0.354812
0.354787
0.354738
0.354673
0.354581
0.354473
0.354345
0.354185
0.354031
0.35381
0.353636
0.353347
0.35316
0.352797
0.352606
0.352153
0.351976
0.351411
0.351275
0.350568
0.350504
0.349618
0.349665
0.34856
0.348712
0.348683
0.348646
0.348564
0.348495
0.34836
0.348259
0.348073
0.347938
0.347701
0.347535
0.34724
0.347053
0.346687
0.346494
0.346038
0.345859
0.345291
0.34515
0.344441
0.344371
0.343484
0.343526
0.342417
0.342846
0.342822
0.342775
0.34271
0.34262
0.342509
0.342383
0.342219
0.342065
0.34184
0.341665
0.341372
0.341183
0.340814
0.34062
0.340162
0.33998
0.33941
0.339266
0.338555
0.338481
0.337592
0.337629
0.336518
0.337209
0.337183
0.337145
0.337065
0.336995
0.336862
0.336758
0.336573
0.336436
0.336197
0.33603
0.335731
0.335544
0.335171
0.334977
0.334516
0.334334
0.333761
0.333615
0.332903
0.332826
0.331933
0.331966
0.330856
0.331793
0.33177
0.331725
0.331659
0.331572
0.331457
0.331335
0.331166
0.331016
0.330785
0.330613
0.330314
0.330127
0.329751
0.329559
0.329093
0.328913
0.328336
0.328191
0.327475
0.327398
0.326503
0.326534
0.325424
0.326592
0.326567
0.32653
0.326452
0.326381
0.326249
0.326145
0.32596
0.325822
0.325581
0.325416
0.325111
0.324927
0.324547
0.324358
0.323888
0.32371
0.323128
0.322987
0.322266
0.322192
0.321292
0.321323
0.320215
0.321599
0.321577
0.321535
0.321466
0.321384
0.321265
0.321148
0.320973
0.320829
0.320591
0.320425
0.320118
0.319937
0.319553
0.319368
0.318892
0.31872
0.318132
0.317996
0.317267
0.317199
0.316297
0.316328
0.315222
0.316808
0.316786
0.316748
0.316673
0.3166
0.316471
0.316365
0.31618
0.316044
0.3158
0.315639
0.315327
0.315151
0.314762
0.314583
0.3141
0.313935
0.313338
0.313211
0.312475
0.312415
0.311508
0.31154
0.310439
0.312214
0.312193
0.312153
0.312081
0.312005
0.31188
0.311771
0.311589
0.311452
0.311207
0.311049
0.310734
0.310562
0.310167
0.309995
0.309505
0.309348
0.308744
0.308625
0.307882
0.307828
0.30692
0.306952
0.305857
0.30781
0.307788
0.307751
0.307677
0.307604
0.307476
0.307371
0.307185
0.307052
0.306804
0.30665
0.306331
0.306164
0.305764
0.305598
0.305102
0.304953
0.304341
0.304231
0.303481
0.303433
0.302523
0.302556
0.301467
0.30359
0.303569
0.303532
0.303459
0.303385
0.303259
0.303153
0.302968
0.302836
0.302587
0.302435
0.302114
0.301951
0.301547
0.301386
0.300885
0.300742
0.300125
0.300023
0.299267
0.299223
0.298315
0.298346
0.297261
0.29955
0.299529
0.299493
0.299419
0.299348
0.299218
0.299117
0.298928
0.298801
0.298548
0.298401
0.298075
0.297918
0.29751
0.297355
0.296848
0.296713
0.296089
0.295995
0.295235
0.295196
0.294286
0.294317
0.293236
0.295684
0.295663
0.295628
0.295553
0.295484
0.295353
0.295254
0.295063
0.29494
0.294683
0.294542
0.294211
0.294062
0.293645
0.293501
0.292984
0.292862
0.292228
0.292143
0.291379
0.291342
0.290436
0.290464
0.289391
0.291987
0.291967
0.291932
0.291857
0.291789
0.291657
0.291561
0.291367
0.291249
0.290986
0.290854
0.290513
0.290376
0.289949
0.289819
0.289289
0.28918
0.288538
0.288459
0.287695
0.287659
0.286755
0.286783
0.285716
0.288455
0.288435
0.288401
0.288324
0.28826
0.288124
0.288034
0.287834
0.287724
0.287453
0.287331
0.286981
0.286856
0.286417
0.2863
0.285762
0.28566
0.285015
0.28494
0.284176
0.284141
0.283242
0.283266
0.282209
0.285082
0.285062
0.28503
0.284952
0.28489
0.284751
0.284666
0.284461
0.284359
0.28408
0.283968
0.283609
0.283495
0.283047
0.282939
0.282396
0.2823
0.281654
0.281582
0.280818
0.280784
0.279889
0.279912
0.278861
0.281866
0.281845
0.281814