/*--------------------------------*- C++ -*----------------------------------*\
  =========                 |
  \\      /  F ield         | OpenFOAM: The Open Source CFD Toolbox
   \\    /   O peration     | Website:  https://openfoam.org
    \\  /    A nd           | Version:  10
     \\/     M anipulation  |
\*---------------------------------------------------------------------------*/
FoamFile
{
    format      ascii;
    class       surfaceScalarField;
    location    "0.33";
    object      phi;
}
// * * * * * * * * * * * * * * * * * * * * * * * * * * * * * * * * * * * * * //

dimensions      [1 0 -1 0 0 0 0];

internalField   nonuniform List<scalar> 
8154
(
-5.85083e-09
-2.21852e-08
-5.69295e-08
-9.18447e-08
-1.71418e-07
-2.25751e-07
-3.69642e-07
-4.5402e-07
-6.74011e-07
-8.13106e-07
-1.10335e-06
-1.33563e-06
-1.66702e-06
-2.02688e-06
-2.36138e-06
-2.86792e-06
-3.25932e-06
-3.9869e-06
-4.56984e-06
-5.51291e-06
-6.83182e-06
-7.23265e-06
-6.85737e-06
-0.000277438
-0.000832369
2.40044e-08
-0.00138746
9.61454e-08
-0.00194289
2.13277e-07
-0.00249866
3.78043e-07
-0.00305504
5.77456e-07
-0.00361201
8.23751e-07
-0.00416974
1.08878e-06
-0.00472844
1.39799e-06
-0.00528791
1.71135e-06
-0.00584877
2.05669e-06
-0.00641057
2.4038e-06
-0.00697377
2.74941e-06
-0.00753865
3.12139e-06
-0.00810416
3.43677e-06
-0.00867312
3.85071e-06
-0.00924021
4.12481e-06
-0.00981485
4.57181e-06
-0.0103833
4.92263e-06
-0.0109646
5.13661e-06
-0.0115338
5.27628e-06
-0.0121235
5.11358e-06
-0.0126949
4.03254e-06
-0.0132929
2.44823e-06
-0.000277462
-0.000832442
2.63158e-08
-0.00138758
1.04693e-07
-0.00194305
2.34661e-07
-0.00249886
4.10174e-07
-0.00305528
6.35399e-07
-0.00361228
8.8985e-07
-0.00417005
1.19501e-06
-0.00472876
1.50133e-06
-0.00528826
1.86717e-06
-0.00584912
2.19114e-06
-0.00641092
2.59413e-06
-0.00697414
2.89389e-06
-0.00753896
3.3e-06
-0.00810457
3.54002e-06
-0.00867339
3.90476e-06
-0.00924066
4.10409e-06
-0.0098152
4.38873e-06
-0.0103835
5.00081e-06
-0.0109647
4.66352e-06
-0.0115336
5.22936e-06
-0.0121224
5.32833e-06
-0.0126933
5.04232e-06
-0.0132904
4.22673e-06
-0.000277489
-0.00083252
2.12509e-08
-0.00138771
8.48012e-08
-0.00194323
1.87981e-07
-0.00249909
3.30509e-07
-0.00305554
5.02062e-07
-0.00361258
7.07635e-07
-0.00417035
9.23044e-07
-0.00472912
1.1667e-06
-0.00528858
1.39426e-06
-0.00584952
1.64226e-06
-0.00641122
1.84704e-06
-0.00697455
2.05065e-06
-0.0075392
2.19819e-06
-0.00810494
2.28447e-06
-0.00867359
2.35449e-06
-0.00924095
2.20616e-06
-0.00981582
2.34309e-06
-0.0103832
1.89772e-06
-0.0109652
1.77672e-06
-0.0115337
1.39013e-06
-0.0121222
1.15723e-06
-0.0126925
7.21318e-07
-0.0132862
5.11172e-07
-0.00027751
-0.000832584
2.54818e-08
-0.00138781
1.0175e-07
-0.00194337
2.25919e-07
-0.00249926
3.97772e-07
-0.00305574
6.05767e-07
-0.0036128
8.55961e-07
-0.00417059
1.1199e-06
-0.00472935
1.4209e-06
-0.00528883
1.7027e-06
-0.00584973
2.01738e-06
-0.00641142
2.27281e-06
-0.0069747
2.54916e-06
-0.00753929
2.73423e-06
-0.008105
2.89541e-06
-0.00867345
2.98595e-06
-0.00924109
2.89774e-06
-0.00981537
2.97444e-06
-0.0103831
2.28062e-06
-0.0109649
2.51137e-06
-0.0115334
1.72354e-06
-0.0121217
1.21084e-06
-0.0126923
3.79826e-07
-0.0132857
-1.77651e-07
-0.000277535
-0.00083266
3.35909e-08
-0.00138794
1.34097e-07
-0.00194354
2.99028e-07
-0.00249947
5.26387e-07
-0.00305599
8.08055e-07
-0.00361306
1.14199e-06
-0.0041709
1.51241e-06
-0.00472963
1.91954e-06
-0.00528914
2.33936e-06
-0.00584998
2.77397e-06
-0.0064117
3.19494e-06
-0.00697488
3.5968e-06
-0.00753945
3.96454e-06
-0.00810509
4.25865e-06
-0.00867336
4.52237e-06
-0.00924117
4.61522e-06
-0.00981468
4.7308e-06
-0.0103833
4.39882e-06
-0.0109641
4.36012e-06
-0.0115329
3.6711e-06
-0.0121209
3.22146e-06
-0.0126917
2.26974e-06
-0.0132859
1.3409e-06
-0.000277569
-0.00083276
3.75082e-08
-0.0013881
1.49746e-07
-0.00194377
3.34186e-07
-0.00249975
5.8837e-07
-0.00305633
9.04442e-07
-0.00361343
1.27868e-06
-0.0041713
1.69667e-06
-0.00473005
2.15442e-06
-0.00528957
2.63143e-06
-0.0058504
3.12179e-06
-0.0064121
3.60334e-06
-0.00697525
4.05909e-06
-0.00753974
4.48195e-06
-0.00810535
4.82108e-06
-0.00867346
5.1238e-06
-0.00924128
5.24965e-06
-0.00981435
5.36955e-06
-0.0103833
5.08087e-06
-0.0109634
4.95892e-06
-0.0115325
4.21341e-06
-0.0121199
3.69169e-06
-0.0126908
2.63836e-06
-0.0132845
1.60302e-06
-0.000277607
-0.000832873
4.13361e-08
-0.00138828
1.65042e-07
-0.00194402
3.68424e-07
-0.00250007
6.48804e-07
-0.0030567
9.97874e-07
-0.00361385
1.41156e-06
-0.00417176
1.87456e-06
-0.00473053
2.38247e-06
-0.00529006
2.913e-06
-0.00585088
3.46003e-06
-0.00641255
3.99762e-06
-0.00697568
4.51005e-06
-0.00754008
4.98267e-06
-0.00810565
5.37001e-06
-0.00867358
5.70644e-06
-0.0092414
5.86183e-06
-0.00981407
5.9971e-06
-0.0103831
5.71791e-06
-0.0109626
5.58765e-06
-0.0115319
4.80854e-06
-0.0121189
4.21791e-06
-0.0126898
2.99031e-06
-0.0132829
1.78446e-06
-0.000277648
-0.000832996
4.50255e-08
-0.00138849
1.79764e-07
-0.0019443
4.0134e-07
-0.00250042
7.06702e-07
-0.00305711
1.08723e-06
-0.00361432
1.53804e-06
-0.00417227
2.0437e-06
-0.00473106
2.59823e-06
-0.00529061
3.17956e-06
-0.00585142
3.77891e-06
-0.00641307
4.37054e-06
-0.00697615
4.93507e-06
-0.00754047
5.45677e-06
-0.00810598
5.88759e-06
-0.00867374
6.25672e-06
-0.00924154
6.43981e-06
-0.00981379
6.58057e-06
-0.010383
6.32787e-06
-0.0109618
6.16519e-06
-0.0115313
5.37064e-06
-0.0121177
4.85196e-06
-0.0126886
3.36199e-06
-0.0132811
2.00431e-06
-0.000277693
-0.000833131
4.86648e-08
-0.00138871
1.94276e-07
-0.00194461
4.33733e-07
-0.0025008
7.63586e-07
-0.00305756
1.17476e-06
-0.00361482
1.66159e-06
-0.00417282
2.20819e-06
-0.00473164
2.80744e-06
-0.00529121
3.43691e-06
-0.00585201
4.0862e-06
-0.00641363
4.72892e-06
-0.00697667
5.3437e-06
-0.00754091
5.91242e-06
-0.00810634
6.38573e-06
-0.00867393
6.78628e-06
-0.00924168
6.99437e-06
-0.00981355
7.13568e-06
-0.0103829
6.90246e-06
-0.010961
6.71865e-06
-0.0115308
5.87753e-06
-0.0121162
4.88793e-06
-0.0126872
3.68391e-06
-0.0132791
2.20094e-06
-0.000277742
-0.000833277
5.22526e-08
-0.00138895
2.08579e-07
-0.00194494
4.65643e-07
-0.00250121
8.19574e-07
-0.00305805
1.26076e-06
-0.00361537
1.78273e-06
-0.00417342
2.36894e-06
-0.00473227
3.01113e-06
-0.00529185
3.68633e-06
-0.00585266
4.38278e-06
-0.00641424
5.07342e-06
-0.00697724
5.73546e-06
-0.00754138
6.34871e-06
-0.00810674
6.86286e-06
-0.00867414
7.29438e-06
-0.00924182
7.52589e-06
-0.00981332
7.66632e-06
-0.0103827
7.44907e-06
-0.0109602
7.25166e-06
-0.0115301
6.39934e-06
-0.0121148
5.58406e-06
-0.0126857
4.04019e-06
-0.0132769
2.40742e-06
-0.000277794
-0.000833433
5.58039e-08
-0.00138921
2.22741e-07
-0.00194529
4.97251e-07
-0.00250165
8.75056e-07
-0.00305857
1.34597e-06
-0.00361596
1.9027e-06
-0.00417406
2.52786e-06
-0.00473295
3.21202e-06
-0.00529255
3.93131e-06
-0.00585335
4.6728e-06
-0.00641491
5.40846e-06
-0.00697786
6.11472e-06
-0.0075419
6.76933e-06
-0.00810717
7.322e-06
-0.00867437
7.78368e-06
-0.00924196
8.03994e-06
-0.0098131
8.187e-06
-0.0103825
7.97116e-06
-0.0109593
7.74385e-06
-0.0115292
6.85696e-06
-0.0121133
6.00672e-06
-0.0126841
4.35767e-06
-0.0132745
2.58927e-06
-0.00027785
-0.0008336
5.93119e-08
-0.00138948
2.36739e-07
-0.00194567
5.28521e-07
-0.00250212
9.30015e-07
-0.00305913
1.43048e-06
-0.00361658
2.02178e-06
-0.00417474
2.6856e-06
-0.00473367
3.41124e-06
-0.00529329
4.1737e-06
-0.00585408
4.95874e-06
-0.00641561
5.7371e-06
-0.00697851
6.48459e-06
-0.00754245
7.17698e-06
-0.00810763
7.7646e-06
-0.00867463
8.25353e-06
-0.0092421
8.53283e-06
-0.00981289
8.68679e-06
-0.0103822
8.46856e-06
-0.0109585
8.20744e-06
-0.0115284
7.28317e-06
-0.0121116
6.37168e-06
-0.0126823
4.65347e-06
-0.0132719
2.76153e-06
-0.000277909
-0.000833778
6.27768e-08
-0.00138977
2.50569e-07
-0.00194607
5.59446e-07
-0.00250262
9.84437e-07
-0.00305972
1.51427e-06
-0.00361724
2.14004e-06
-0.00417547
2.84244e-06
-0.00473443
3.60949e-06
-0.00529408
4.41481e-06
-0.00585486
5.24271e-06
-0.00641636
6.06236e-06
-0.00697921
6.84887e-06
-0.00754304
7.57585e-06
-0.00810811
8.19468e-06
-0.00867491
8.70716e-06
-0.00924225
9.00642e-06
-0.00981267
9.16498e-06
-0.010382
8.94715e-06
-0.0109576
8.64613e-06
-0.0115275
7.67589e-06
-0.0121099
6.70292e-06
-0.0126804
4.89768e-06
-0.0132692
2.90981e-06
-0.000277972
-0.000833966
6.6202e-08
-0.00139008
2.6424e-07
-0.00194649
5.90015e-07
-0.00250315
1.03826e-06
-0.00306034
1.5972e-06
-0.00361795
2.2572e-06
-0.00417624
2.99803e-06
-0.00473523
3.80641e-06
-0.0052949
4.65457e-06
-0.00585568
5.5252e-06
-0.00641715
6.38564e-06
-0.00697993
7.20995e-06
-0.00754366
7.96932e-06
-0.00810862
8.61602e-06
-0.00867521
9.14794e-06
-0.00924241
9.46305e-06
-0.00981246
9.62443e-06
-0.0103817
9.40877e-06
-0.0109566
9.06577e-06
-0.0115265
8.05092e-06
-0.012108
7.00761e-06
-0.0126784
5.05729e-06
-0.0132663
3.03701e-06
-0.000278038
-0.000834164
6.95957e-08
-0.00139041
2.77776e-07
-0.00194694
6.20255e-07
-0.00250371
1.09145e-06
-0.003061
1.67909e-06
-0.00361869
2.37288e-06
-0.00417704
3.15169e-06
-0.00473608
4.0011e-06
-0.00529577
4.89193e-06
-0.00585654
5.80532e-06
-0.00641797
6.70662e-06
-0.00698069
7.56857e-06
-0.00754431
8.35957e-06
-0.00810915
9.03218e-06
-0.00867552
9.58008e-06
-0.00924256
9.90609e-06
-0.00981225
1.00662e-05
-0.0103813
9.85026e-06
-0.0109556
9.46615e-06
-0.0115255
8.4133e-06
-0.0121061
7.30637e-06
-0.0126764
5.28029e-06
-0.0132632
3.17007e-06
-0.000278108
-0.000834372
7.29623e-08
-0.00139075
2.91193e-07
-0.00194741
6.50173e-07
-0.0025043
1.14396e-06
-0.0030617
1.75975e-06
-0.00361947
2.48662e-06
-0.00417789
3.30257e-06
-0.00473697
4.19221e-06
-0.00529669
5.12509e-06
-0.00585744
6.08092e-06
-0.00641883
7.0232e-06
-0.00698148
7.92314e-06
-0.00754499
8.74625e-06
-0.0081097
9.44467e-06
-0.00867585
1.00074e-05
-0.00924272
1.03409e-05
-0.00981203
1.04929e-05
-0.0103809
1.0264e-05
-0.0109545
9.84553e-06
-0.0115243
8.75585e-06
-0.0121041
7.58781e-06
-0.0126743
5.49829e-06
-0.0132601
3.29349e-06
-0.000278181
-0.000834591
7.6293e-08
-0.00139111
3.0445e-07
-0.0019479
6.79673e-07
-0.00250491
1.19559e-06
-0.00306242
1.83881e-06
-0.00362028
2.59775e-06
-0.00417878
3.44961e-06
-0.00473791
4.37813e-06
-0.00529764
5.35175e-06
-0.00585838
6.34902e-06
-0.00641973
7.33178e-06
-0.00698231
8.26986e-06
-0.00754569
9.12596e-06
-0.00811026
9.85136e-06
-0.00867618
1.04301e-05
-0.00924287
1.07713e-05
-0.00981181
1.0914e-05
-0.0103805
1.06681e-05
-0.0109535
1.02145e-05
-0.0115232
9.08915e-06
-0.012102
7.85923e-06
-0.0126721
5.6985e-06
-0.0132568
3.40844e-06
-0.000278258
-0.000834819
7.95623e-08
-0.00139149
3.17448e-07
-0.00194842
7.08538e-07
-0.00250556
1.24598e-06
-0.00306318
1.91574e-06
-0.00362113
2.70554e-06
-0.00417971
3.59176e-06
-0.00473888
4.55735e-06
-0.00529864
5.56979e-06
-0.00585937
6.60671e-06
-0.00642067
7.62858e-06
-0.00698316
8.60414e-06
-0.00754642
9.49361e-06
-0.00811084
1.02473e-05
-0.00867652
1.08444e-05
-0.00924301
1.11954e-05
-0.00981156
1.13305e-05
-0.01038
1.10699e-05
-0.0109524
1.05769e-05
-0.011522
9.41891e-06
-0.0120998
8.12711e-06
-0.0126698
5.89295e-06
-0.0132534
3.5178e-06
-0.000278337
-0.000835057
8.27123e-08
-0.00139188
3.29963e-07
-0.00194896
7.36309e-07
-0.00250623
1.29439e-06
-0.00306397
1.98952e-06
-0.00362202
2.80869e-06
-0.00418067
3.72744e-06
-0.00473989
4.72795e-06
-0.00529967
5.77677e-06
-0.00586039
6.8508e-06
-0.00642165
7.90941e-06
-0.00698405
8.92062e-06
-0.00754717
9.84267e-06
-0.00811144
1.06251e-05
-0.00867687
1.12426e-05
-0.00924314
1.16065e-05
-0.0098113
1.17379e-05
-0.0103795
1.14652e-05
-0.0109512
1.09325e-05
-0.0115207
9.74822e-06
-0.0120975
8.3977e-06
-0.0126674
6.08706e-06
-0.0132499
3.62503e-06
-0.00027842
-0.000835304
8.56649e-08
-0.00139228
3.41698e-07
-0.00194952
7.62357e-07
-0.00250692
1.33983e-06
-0.00306479
2.05878e-06
-0.00362294
2.90551e-06
-0.00418168
3.85468e-06
-0.00474094
4.8877e-06
-0.00530075
5.97017e-06
-0.00586145
7.07831e-06
-0.00642266
8.17053e-06
-0.00698498
9.2144e-06
-0.00754796
1.01667e-05
-0.00811206
1.09767e-05
-0.00867724
1.16155e-05
-0.00924327
1.1995e-05
-0.00981103
1.21278e-05
-0.010379
1.18477e-05
-0.01095
1.12795e-05
-0.0115193
1.00769e-05
-0.0120952
8.67171e-06
-0.0126649
6.28763e-06
-0.0132463
3.73525e-06
-0.000278506
-0.000835561
8.83303e-08
-0.00139271
3.52301e-07
-0.00195009
7.85939e-07
-0.00250764
1.38106e-06
-0.00306563
2.12179e-06
-0.00362389
2.99379e-06
-0.00418271
3.97092e-06
-0.00474202
5.03376e-06
-0.00530186
6.14695e-06
-0.00586254
7.28594e-06
-0.0064237
8.40821e-06
-0.00698593
9.481e-06
-0.00754877
1.046e-05
-0.0081127
1.12945e-05
-0.00867761
1.19532e-05
-0.0092434
1.23488e-05
-0.00981075
1.24873e-05
-0.0103784
1.22073e-05
-0.0109488
1.16178e-05
-0.0115179
1.03964e-05
-0.0120928
8.94184e-06
-0.0126624
6.49517e-06
-0.0132426
3.85168e-06
-0.000278594
-0.000835825
9.0621e-08
-0.00139314
3.61428e-07
-0.00195069
8.06295e-07
-0.00250838
1.41679e-06
-0.00306651
2.17664e-06
-0.00362486
3.07102e-06
-0.00418377
4.07307e-06
-0.00474314
5.16263e-06
-0.00530299
6.30331e-06
-0.00586366
7.46974e-06
-0.00642477
8.61836e-06
-0.00698691
9.71597e-06
-0.00754961
1.07173e-05
-0.00811336
1.15721e-05
-0.00867801
1.22469e-05
-0.00924354
1.26563e-05
-0.00981047
1.28007e-05
-0.0103778
1.25249e-05
-0.0109476
1.19254e-05
-0.0115165
1.06861e-05
-0.0120904
9.18869e-06
-0.0126597
6.69966e-06
-0.0132387
3.97155e-06
-0.000278685
-0.000836096
9.24654e-08
-0.00139358
3.6879e-07
-0.0019513
8.22769e-07
-0.00250914
1.44584e-06
-0.0030674
2.22149e-06
-0.00362587
3.13459e-06
-0.00418486
4.15778e-06
-0.00474428
5.27023e-06
-0.00530416
6.43466e-06
-0.00586481
7.6248e-06
-0.00642587
8.79591e-06
-0.00698791
9.91422e-06
-0.00755046
1.09334e-05
-0.00811403
1.18036e-05
-0.00867842
1.24898e-05
-0.00924368
1.29086e-05
-0.00981019
1.30561e-05
-0.0103772
1.27827e-05
-0.0109464
1.21725e-05
-0.011515
1.09224e-05
-0.0120879
9.38715e-06
-0.012657
6.87475e-06
-0.0132347
4.07826e-06
-0.000278777
-0.000836372
9.3814e-08
-0.00139404
3.74181e-07
-0.00195192
8.34866e-07
-0.00250992
1.46726e-06
-0.00306831
2.25477e-06
-0.00362689
3.18213e-06
-0.00418597
4.22168e-06
-0.00474544
5.35223e-06
-0.00530535
6.53573e-06
-0.00586598
7.74518e-06
-0.00642699
8.93457e-06
-0.00698893
1.00694e-05
-0.00755134
1.11021e-05
-0.00811472
1.19828e-05
-0.00867883
1.26752e-05
-0.00924383
1.30981e-05
-0.00980991
1.32444e-05
-0.0103766
1.29703e-05
-0.0109451
1.23476e-05
-0.0115134
1.10901e-05
-0.0120854
9.51181e-06
-0.0126542
6.97587e-06
-0.0132307
4.13806e-06
-0.000278871
-0.000836652
9.46541e-08
-0.0013945
3.77539e-07
-0.00195255
8.42411e-07
-0.0025107
1.48067e-06
-0.00306924
2.27569e-06
-0.00362793
3.21228e-06
-0.0041871
4.26264e-06
-0.00474662
5.40561e-06
-0.00530656
6.60253e-06
-0.00586717
7.82615e-06
-0.00642813
9.02901e-06
-0.00698996
1.01765e-05
-0.00755222
1.12185e-05
-0.00811541
1.21062e-05
-0.00867926
1.27999e-05
-0.00924398
1.32227e-05
-0.00980963
1.33619e-05
-0.010376
1.30836e-05
-0.0109438
1.2447e-05
-0.0115119
1.1185e-05
-0.0120828
9.55202e-06
-0.0126513
6.96692e-06
-0.0132266
4.12305e-06
-0.000278966
-0.000836935
9.53648e-08
-0.00139496
3.80373e-07
-0.00195319
8.48763e-07
-0.0025115
1.49194e-06
-0.00307018
2.29329e-06
-0.00362898
3.23778e-06
-0.00418825
4.29765e-06
-0.00474782
5.452e-06
-0.00530778
6.662e-06
-0.00586838
7.9004e-06
-0.00642927
9.11897e-06
-0.00699101
1.02826e-05
-0.00755311
1.13396e-05
-0.0081161
1.22408e-05
-0.00867968
1.29438e-05
-0.00924412
1.33735e-05
-0.00980935
1.35142e-05
-0.0103754
1.32385e-05
-0.0109426
1.25973e-05
-0.0115102
1.13366e-05
-0.0120802
9.6705e-06
-0.0126485
7.06096e-06
-0.0132225
4.23305e-06
-0.000279061
-0.00083722
9.56776e-08
-0.00139543
3.81609e-07
-0.00195384
8.5151e-07
-0.0025123
1.49677e-06
-0.00307112
2.30082e-06
-0.00363004
3.24875e-06
-0.0041894
4.31303e-06
-0.00474903
5.4731e-06
-0.00530902
6.69038e-06
-0.00586959
7.93793e-06
-0.00643044
9.16747e-06
-0.00699206
1.03436e-05
-0.00755401
1.14139e-05
-0.0081168
1.23278e-05
-0.00868011
1.30416e-05
-0.00924426
1.34792e-05
-0.00980907
1.3623e-05
-0.0103747
1.33495e-05
-0.0109413
1.27044e-05
-0.0115086
1.14424e-05
-0.0120776
9.76348e-06
-0.0126456
7.14803e-06
-0.0132183
4.42677e-06
-0.000279157
-0.000837506
9.54813e-08
-0.0013959
3.80808e-07
-0.00195448
8.49674e-07
-0.00251311
1.49347e-06
-0.00307207
2.29565e-06
-0.00363111
3.24147e-06
-0.00419056
4.30359e-06
-0.00475025
5.46194e-06
-0.00531027
6.67829e-06
-0.00587082
7.92643e-06
-0.00643161
9.15844e-06
-0.00699313
1.03394e-05
-0.00755492
1.14166e-05
-0.00811752
1.2339e-05
-0.00868055
1.3061e-05
-0.0092444
1.35057e-05
-0.00980879
1.36523e-05
-0.0103741
1.33794e-05
-0.0109401
1.27287e-05
-0.0115069
1.14709e-05
-0.0120749
9.78902e-06
-0.0126428
7.14925e-06
-0.0132139
4.02272e-06
-0.000279252
-0.000837791
9.48122e-08
-0.00139637
3.78123e-07
-0.00195512
8.43641e-07
-0.00251391
1.4828e-06
-0.00307301
2.27911e-06
-0.00363217
3.21801e-06
-0.00419172
4.27234e-06
-0.00475147
5.4225e-06
-0.00531152
6.63067e-06
-0.00587206
7.87149e-06
-0.00643279
9.09775e-06
-0.00699421
1.02755e-05
-0.00755584
1.13527e-05
-0.00811824
1.22783e-05
-0.00868099
1.30064e-05
-0.00924455
1.34586e-05
-0.00980851
1.36111e-05
-0.0103735
1.3342e-05
-0.0109388
1.26868e-05
-0.0115053
1.14318e-05
-0.0120723
9.75205e-06
-0.0126399
7.14109e-06
-0.0132097
3.96395e-06
-0.000279347
-0.000838074
9.36962e-08
-0.00139684
3.73667e-07
-0.00195576
8.33695e-07
-0.0025147
1.46534e-06
-0.00307395
2.25225e-06
-0.00363322
3.18013e-06
-0.00419287
4.222e-06
-0.00475267
5.35872e-06
-0.00531276
6.55278e-06
-0.00587328
7.77966e-06
-0.00643397
8.99287e-06
-0.00699529
1.01599e-05
-0.00755677
1.12293e-05
-0.00811897
1.21519e-05
-0.00868144
1.28819e-05
-0.0092447
1.33412e-05
-0.00980824
1.35039e-05
-0.0103728
1.32465e-05
-0.0109376
1.2597e-05
-0.0115036
1.13458e-05
-0.0120697
9.65139e-06
-0.0126368
7.09869e-06
-0.0132055
4.18778e-06
-0.000279441
-0.000838354
9.21601e-08
-0.0013973
3.67551e-07
-0.00195639
8.20102e-07
-0.00251549
1.44161e-06
-0.00307488
2.21597e-06
-0.00363427
3.1293e-06
-0.004194
4.15487e-06
-0.00475387
5.27401e-06
-0.00531398
6.44948e-06
-0.0058745
7.65744e-06
-0.00643514
8.85196e-06
-0.00699636
1.00018e-05
-0.00755769
1.10564e-05
-0.0081197
1.1969e-05
-0.0086819
1.26947e-05
-0.00924487
1.31577e-05
-0.00980799
1.33317e-05
-0.0103722
1.30928e-05
-0.0109363
1.24634e-05
-0.0115019
1.12344e-05
-0.0120671
9.54495e-06
-0.0126339
7.0188e-06
-0.0132014
4.16937e-06
-0.000279533
-0.000838629
9.02436e-08
-0.00139775
3.59933e-07
-0.00195702
8.03204e-07
-0.00251627
1.4122e-06
-0.00307579
2.1712e-06
-0.00363529
3.06686e-06
-0.00419512
4.07288e-06
-0.00475504
5.17115e-06
-0.00531519
6.32475e-06
-0.00587569
7.51042e-06
-0.00643628
8.68255e-06
-0.00699741
9.81086e-06
-0.00755861
1.08454e-05
-0.00812042
1.17417e-05
-0.00868237
1.24564e-05
-0.00924504
1.29168e-05
-0.00980775
1.30983e-05
-0.0103715
1.28787e-05
-0.0109351
1.22779e-05
-0.0115002
1.10883e-05
-0.0120646
9.43611e-06
-0.0126311
6.9406e-06
-0.0131972
4.12134e-06
-0.000279623
-0.000838899
8.80046e-08
-0.00139819
3.51037e-07
-0.00195762
7.83485e-07
-0.00251703
1.37789e-06
-0.00307669
2.11908e-06
-0.0036363
2.99429e-06
-0.00419622
3.97789e-06
-0.0047562
5.0525e-06
-0.00531638
6.18169e-06
-0.00587686
7.3428e-06
-0.00643741
8.49046e-06
-0.00699845
9.59511e-06
-0.0075595
1.06068e-05
-0.00812113
1.1483e-05
-0.00868283
1.21814e-05
-0.00924522
1.26328e-05
-0.00980753
1.28146e-05
-0.0103709
1.26092e-05
-0.0109339
1.20374e-05
-0.0114985
1.08944e-05
-0.0120621
9.29216e-06
-0.0126283
6.85942e-06
-0.0131931
4.0672e-06
-0.000279711
-0.000839162
8.55179e-08
-0.00139863
3.41154e-07
-0.00195822
7.61564e-07
-0.00251777
1.33973e-06
-0.00307756
2.06102e-06
-0.00363728
2.91342e-06
-0.0041973
3.87202e-06
-0.00475733
4.92037e-06
-0.00531754
6.02287e-06
-0.00587801
7.15757e-06
-0.00643852
8.27948e-06
-0.00699946
9.35976e-06
-0.00756038
1.03482e-05
-0.00812183
1.12037e-05
-0.00868328
1.18839e-05
-0.00924541
1.23225e-05
-0.00980733
1.24975e-05
-0.0103704
1.22979e-05
-0.0109327
1.17473e-05
-0.0114969
1.06485e-05
-0.0120597
9.11018e-06
-0.0126255
6.77771e-06
-0.013189
4.00744e-06
-0.000279796
-0.000839417
8.28656e-08
-0.00139905
3.30608e-07
-0.0019588
7.38144e-07
-0.00251849
1.29887e-06
-0.00307842
1.99872e-06
-0.00363824
2.82637e-06
-0.00419834
3.75775e-06
-0.00475843
4.77744e-06
-0.00531867
5.85092e-06
-0.00587913
6.95717e-06
-0.0064396
8.05195e-06
-0.00700045
9.10741e-06
-0.00756124
1.00733e-05
-0.00812251
1.09097e-05
-0.00868371
1.15736e-05
-0.00924558
1.20001e-05
-0.00980713
1.21658e-05
-0.0103698
1.19653e-05
-0.0109316
1.14238e-05
-0.0114954
1.03549e-05
-0.0120573
8.87553e-06
-0.0126227
6.65085e-06
-0.013185
3.93063e-06
-0.000279879
-0.000839665
8.01243e-08
-0.00139945
3.19701e-07
-0.00195936
7.1389e-07
-0.00251919
1.25646e-06
-0.00307924
1.93385e-06
-0.00363917
2.73539e-06
-0.00419936
3.63778e-06
-0.0047595
4.62672e-06
-0.00531978
5.66879e-06
-0.00588023
6.74423e-06
-0.00644065
7.80979e-06
-0.00700142
8.83916e-06
-0.00756208
9.78274e-06
-0.00812317
1.06018e-05
-0.00868413
1.1253e-05
-0.00924575
1.16717e-05
-0.00980693
1.1832e-05
-0.0103693
1.16313e-05
-0.0109306
1.10936e-05
-0.0114939
1.00401e-05
-0.0120551
8.59273e-06
-0.01262
6.42333e-06
-0.0131811
3.82036e-06
-0.000279959
-0.000839905
7.73519e-08
-0.00139985
3.08665e-07
-0.0019599
6.89328e-07
-0.00251987
1.21343e-06
-0.00308004
1.86784e-06
-0.00364008
2.64243e-06
-0.00420035
3.51464e-06
-0.00476055
4.47118e-06
-0.00532085
5.4797e-06
-0.00588129
6.52174e-06
-0.00644168
7.55534e-06
-0.00700236
8.55609e-06
-0.0075629
9.47578e-06
-0.00812382
1.02774e-05
-0.00868455
1.09184e-05
-0.00924591
1.13341e-05
-0.00980673
1.14966e-05
-0.0103687
1.1303e-05
-0.0109295
1.07761e-05
-0.0114925
9.7385e-06
-0.0120529
8.3135e-06
-0.0126174
6.19122e-06
-0.0131773
3.67705e-06
-0.000280037
-0.000840136
7.4581e-08
-0.00140023
2.97633e-07
-0.00196042
6.64759e-07
-0.00252052
1.17033e-06
-0.00308082
1.80157e-06
-0.00364095
2.54883e-06
-0.00420131
3.39015e-06
-0.00476155
4.31314e-06
-0.00532189
5.28643e-06
-0.00588233
6.29273e-06
-0.00644268
7.29133e-06
-0.00700328
8.26005e-06
-0.0075637
9.15247e-06
-0.00812446
9.93381e-06
-0.00868496
1.05635e-05
-0.00924608
1.09775e-05
-0.00980653
1.11483e-05
-0.0103682
1.09706e-05
-0.0109285
1.04687e-05
-0.0114911
9.45748e-06
-0.0120508
8.05909e-06
-0.0126148
5.97394e-06
-0.0131736
3.49109e-06
-0.000280111
-0.000840359
7.18119e-08
-0.0014006
2.86609e-07
-0.00196093
6.40207e-07
-0.00252115
1.12722e-06
-0.00308157
1.73521e-06
-0.00364179
2.4549e-06
-0.00420223
3.26487e-06
-0.00476253
4.15353e-06
-0.0053229
5.09032e-06
-0.00588333
6.05893e-06
-0.00644365
7.01976e-06
-0.00700418
7.95282e-06
-0.00756448
8.81364e-06
-0.00812509
9.56967e-06
-0.00868537
1.0183e-05
-0.00924625
1.05913e-05
-0.00980635
1.07708e-05
-0.0103677
1.06128e-05
-0.0109275
1.01503e-05
-0.0114897
9.18304e-06
-0.0120487
7.83664e-06
-0.0126124
5.79341e-06
-0.0131701
3.31752e-06
-0.000280183
-0.000840574
6.90237e-08
-0.00140095
2.75512e-07
-0.00196142
6.15493e-07
-0.00252176
1.08381e-06
-0.00308229
1.66833e-06
-0.0036426
2.3601e-06
-0.00420312
3.13823e-06
-0.00476346
3.9918e-06
-0.00532387
4.89104e-06
-0.00588429
5.82038e-06
-0.00644458
6.74118e-06
-0.00700504
7.63538e-06
-0.00756523
8.46039e-06
-0.0081257
9.18522e-06
-0.00868577
9.77489e-06
-0.00924643
1.01691e-05
-0.0098062
1.03507e-05
-0.0103672
1.02068e-05
-0.0109265
9.78735e-06
-0.0114883
8.8731e-06
-0.0120467
7.60989e-06
-0.0126099
5.64636e-06
-0.0131668
3.29319e-06
-0.000280252
-0.000840781
6.61682e-08
-0.00140129
2.64152e-07
-0.00196189
5.9019e-07
-0.00252235
1.03933e-06
-0.00308298
1.59976e-06
-0.00364338
2.26283e-06
-0.00420397
3.0082e-06
-0.00476436
3.82552e-06
-0.0053248
4.6858e-06
-0.00588521
5.57412e-06
-0.00644548
6.45285e-06
-0.00700586
7.30536e-06
-0.00756596
8.09101e-06
-0.00812629
8.7792e-06
-0.00868617
9.33789e-06
-0.00924662
9.70819e-06
-0.00980606
9.88096e-06
-0.0103668
9.73901e-06
-0.0109256
9.35204e-06
-0.011487
8.48217e-06
-0.0120447
7.30587e-06
-0.0126075
5.43263e-06
-0.0131635
3.2284e-06
-0.000280319
-0.00084098
6.31782e-08
-0.00140162
2.52249e-07
-0.00196233
5.63661e-07
-0.00252291
9.92679e-07
-0.00308364
1.52779e-06
-0.00364412
2.16067e-06
-0.00420479
2.8715e-06
-0.00476522
3.6506e-06
-0.00532569
4.46955e-06
-0.00588609
5.3145e-06
-0.00644633
6.14824e-06
-0.00700665
6.95651e-06
-0.00756665
7.69865e-06
-0.00812685
8.34661e-06
-0.00868654
8.86651e-06
-0.00924679
9.20636e-06
-0.00980592
9.35617e-06
-0.0103664
9.20677e-06
-0.0109248
8.82834e-06
-0.0114859
7.99101e-06
-0.0120429
6.8789e-06
-0.0126053
5.09596e-06
-0.0131603
3.04539e-06
-0.000280382
-0.000841169
6.03086e-08
-0.00140193
2.40814e-07
-0.00196276
5.38178e-07
-0.00252344
9.47892e-07
-0.00308427
1.45876e-06
-0.00364484
2.06281e-06
-0.00420557
2.74069e-06
-0.00476604
3.48352e-06
-0.00532653
4.26325e-06
-0.00588693
5.06761e-06
-0.00644714
5.85933e-06
-0.00700739
6.62743e-06
-0.0075673
7.32965e-06
-0.00812736
7.9428e-06
-0.00868688
8.42714e-06
-0.00924694
8.74233e-06
-0.00980577
8.86871e-06
-0.010366
8.71627e-06
-0.0109239
8.33409e-06
-0.0114848
7.52728e-06
-0.0120411
6.45552e-06
-0.0126033
4.75245e-06
-0.0131572
2.81811e-06
-0.000280443
-0.00084135
5.77689e-08
-0.00140223
2.30707e-07
-0.00196317
5.15679e-07
-0.00252395
9.08428e-07
-0.00308488
1.3981e-06
-0.00364551
1.97707e-06
-0.00420631
2.62661e-06
-0.00476682
3.33834e-06
-0.00532733
4.08512e-06
-0.00588772
4.85551e-06
-0.00644791
5.61391e-06
-0.00700809
6.34998e-06
-0.00756791
7.02393e-06
-0.00812784
7.61181e-06
-0.00868719
8.07698e-06
-0.00924707
8.37806e-06
-0.00980563
8.50184e-06
-0.0103656
8.35385e-06
-0.0109231
7.98765e-06
-0.0114837
7.20657e-06
-0.0120394
6.19669e-06
-0.0126013
4.54864e-06
-0.0131544
2.74123e-06
-0.000280501
-0.000841524
5.50273e-08
-0.00140251
2.19792e-07
-0.00196357
4.91362e-07
-0.00252444
8.65768e-07
-0.00308546
1.33254e-06
-0.00364616
1.88445e-06
-0.00420702
2.50339e-06
-0.00476757
3.18151e-06
-0.00532811
3.89265e-06
-0.00588848
4.62623e-06
-0.00644864
5.34865e-06
-0.00700876
6.04972e-06
-0.0075685
6.69265e-06
-0.0081283
7.2527e-06
-0.00868749
7.69798e-06
-0.00924719
7.98485e-06
-0.00980548
8.10744e-06
-0.0103653
7.96433e-06
-0.0109223
7.61514e-06
-0.0114827
6.85416e-06
-0.0120377
5.89658e-06
-0.0125995
4.29997e-06
-0.0131517
2.66074e-06
-0.000280556
-0.000841689
5.20563e-08
-0.00140278
2.07958e-07
-0.00196394
4.64982e-07
-0.00252491
8.19495e-07
-0.00308601
1.26145e-06
-0.00364678
1.78412e-06
-0.0042077
2.37e-06
-0.00476828
3.01181e-06
-0.00532884
3.6845e-06
-0.00588921
4.37842e-06
-0.00644935
5.0621e-06
-0.0070094
5.72517e-06
-0.00756906
6.33388e-06
-0.00812874
6.86325e-06
-0.00868778
7.2872e-06
-0.00924731
7.55954e-06
-0.00980533
7.68084e-06
-0.0103649
7.54419e-06
-0.0109216
7.22145e-06
-0.0114818
6.48269e-06
-0.0120361
5.57643e-06
-0.0125979
4.00678e-06
-0.013149
2.46663e-06
-0.000280609
-0.000841846
4.88339e-08
-0.00140304
1.95119e-07
-0.00196429
4.36353e-07
-0.00252535
7.69291e-07
-0.00308653
1.18437e-06
-0.00364737
1.67541e-06
-0.00420834
2.2256e-06
-0.00476895
2.82826e-06
-0.00532953
3.45969e-06
-0.00588989
4.1111e-06
-0.00645001
4.7535e-06
-0.00701001
5.37562e-06
-0.00756959
5.94723e-06
-0.00812917
6.44286e-06
-0.00868804
6.8445e-06
-0.00924742
7.10061e-06
-0.00980519
7.21776e-06
-0.0103646
7.08452e-06
-0.0109208
6.79939e-06
-0.0114809
6.08859e-06
-0.0120345
5.28611e-06
-0.0125964
4.00961e-06
-0.0131465
2.32411e-06
-0.000280658
-0.000841993
4.53415e-08
-0.00140328
1.81201e-07
-0.00196463
4.05318e-07
-0.00252576
7.14886e-07
-0.00308702
1.10087e-06
-0.00364792
1.55773e-06
-0.00420894
2.06934e-06
-0.00476958
2.62981e-06
-0.00533019
3.21705e-06
-0.00589054
3.82309e-06
-0.00645063
4.42176e-06
-0.00701058
4.99998e-06
-0.00757009
5.53192e-06
-0.00812957
5.99075e-06
-0.00868829
6.37045e-06
-0.00924754
6.60869e-06
-0.00980506
6.71802e-06
-0.0103643
6.5804e-06
-0.0109201
6.32916e-06
-0.01148
5.63955e-06
-0.0120331
4.9695e-06
-0.0125948
3.66842e-06
-0.0131442
2.1659e-06
-0.000280703
-0.000842129
4.15707e-08
-0.00140351
1.66168e-07
-0.00196494
3.7179e-07
-0.00252615
6.56113e-07
-0.00308747
1.01066e-06
-0.00364843
1.43063e-06
-0.0042095
1.90056e-06
-0.00477017
2.41551e-06
-0.00533079
2.95551e-06
-0.00589114
3.51319e-06
-0.00645121
4.06572e-06
-0.00701111
4.59688e-06
-0.00757055
5.08681e-06
-0.00812995
5.50532e-06
-0.00868852
5.86462e-06
-0.00924765
6.08396e-06
-0.00980492
6.18706e-06
-0.0103641
6.03954e-06
-0.0109194
5.82708e-06
-0.0114794
5.13885e-06
-0.0120318
4.61131e-06
-0.0125933
3.35668e-06
-0.0131421
1.98583e-06
-0.000280745
-0.000842254
3.75295e-08
-0.00140371
1.50041e-07
-0.00196522
3.35788e-07
-0.0025265
5.92959e-07
-0.00308789
9.13679e-07
-0.0036489
1.29397e-06
-0.00421002
1.719e-06
-0.00477071
2.1849e-06
-0.00533135
2.67442e-06
-0.00589169
3.18049e-06
-0.00645174
3.68446e-06
-0.0070116
4.16513e-06
-0.00757097
4.61112e-06
-0.0081303
4.98477e-06
-0.00868872
5.32537e-06
-0.00924776
5.52277e-06
-0.00980476
5.62468e-06
-0.0103639
5.46246e-06
-0.0109187
5.34252e-06
-0.0114789
4.97458e-06
-0.0120305
4.10945e-06
-0.012592
3.03835e-06
-0.0131401
1.79185e-06
-0.000280783
-0.000842368
3.32412e-08
-0.0014039
1.32886e-07
-0.00196548
2.97431e-07
-0.00252682
5.256e-07
-0.00308827
8.10106e-07
-0.00364932
1.14798e-06
-0.00421049
1.52496e-06
-0.0047712
1.93821e-06
-0.00533186
2.37384e-06
-0.00589219
2.82457e-06
-0.00645223
3.27755e-06
-0.00701205
3.70395e-06
-0.00757135
4.10524e-06
-0.00813064
4.42858e-06
-0.0086889
4.75352e-06
-0.00924788
4.92102e-06
-0.00980459
5.03134e-06
-0.0103637
4.82195e-06
-0.0109181
4.8249e-06
-0.0114782
4.38048e-06
-0.0120294
3.66784e-06
-0.0125908
2.71944e-06
-0.0131383
1.6062e-06
-0.000280817
-0.000842468
2.87213e-08
-0.00140407
1.14773e-07
-0.0019657
2.56861e-07
-0.0025271
4.54289e-07
-0.00308861
7.00335e-07
-0.0036497
9.93252e-07
-0.0042109
1.31935e-06
-0.00477164
1.67656e-06
-0.00533231
2.05488e-06
-0.00589264
2.44596e-06
-0.00645265
2.84564e-06
-0.00701246
3.21292e-06
-0.00757167
3.57128e-06
-0.00813095
3.83732e-06
-0.00868904
4.15418e-06
-0.00924801
4.27739e-06
-0.00980434
4.43895e-06
-0.0103638
4.52153e-06
-0.0109176
4.16227e-06
-0.0114776
3.77347e-06
-0.0120285
3.20306e-06
-0.0125897
2.38834e-06
-0.0131367
1.40926e-06
-0.000280846
-0.000842555
2.39384e-08
-0.00140421
9.5705e-08
-0.0019659
2.14215e-07
-0.00252735
3.79422e-07
-0.0030889
5.85106e-07
-0.00365003
8.30857e-07