/*--------------------------------*- C++ -*----------------------------------*\
  =========                 |
  \\      /  F ield         | OpenFOAM: The Open Source CFD Toolbox
   \\    /   O peration     | Website:  https://openfoam.org
    \\  /    A nd           | Version:  10
     \\/     M anipulation  |
\*---------------------------------------------------------------------------*/
FoamFile
{
    format      ascii;
    class       volScalarField;
    location    "0.33";
    object      rho;
}
// * * * * * * * * * * * * * * * * * * * * * * * * * * * * * * * * * * * * * //

dimensions      [1 -3 0 0 0 0 0];

internalField   nonuniform List<scalar> 
4176
(
0.0308487
0.0308517
0.0308579
0.0308684
0.0308813
0.0308978
0.0309186
0.0309402
0.0309693
0.0309956
0.0310323
0.0310648
0.0311068
0.0311475
0.0311926
0.031244
0.031287
0.0313548
0.0313934
0.0314789
0.0315107
0.0316162
0.0316364
0.0317502
0.0308567
0.0308596
0.0308648
0.0308748
0.0308857
0.0309016
0.0309191
0.03094
0.0309649
0.03099
0.031022
0.0310523
0.0310899
0.031127
0.0311682
0.0312143
0.031254
0.0313143
0.0313501
0.0314266
0.0314538
0.0315542
0.0315751
0.0317035
0.030876
0.0308789
0.0308844
0.0308947
0.0309062
0.0309224
0.0309409
0.0309622
0.0309884
0.031014
0.0310477
0.0310787
0.0311182
0.0311562
0.0311996
0.0312469
0.031289
0.0313519
0.0313878
0.031468
0.0314954
0.0315946
0.0316136
0.0317342
0.0309047
0.0309076
0.0309129
0.0309229
0.0309341
0.0309499
0.0309679
0.0309884
0.0310142
0.0310388
0.031072
0.0311016
0.0311408
0.031177
0.0312201
0.0312656
0.0313074
0.0313702
0.0314015
0.0314841
0.0315091
0.031607
0.0316248
0.0317365
0.0309441
0.0309471
0.0309523
0.0309624
0.0309735
0.0309894
0.0310072
0.031028
0.0310534
0.0310784
0.0311112
0.0311413
0.0311801
0.0312165
0.0312597
0.0313045
0.0313483
0.0314081
0.0314431
0.0315235
0.0315503
0.0316476
0.0316669
0.0317802
0.0309936
0.0309965
0.0310017
0.0310117
0.0310225
0.0310383
0.0310557
0.0310764
0.0311013
0.0311261
0.0311583
0.0311881
0.0312263
0.0312623
0.031305
0.0313489
0.0313931
0.0314499
0.0314882
0.0315647
0.0315923
0.0316885
0.0317087
0.0318235
0.0310535
0.0310564
0.0310615
0.0310714
0.0310822
0.0310979
0.0311151
0.0311356
0.0311603
0.0311849
0.0312168
0.0312463
0.0312842
0.0313197
0.0313623
0.0314055
0.0314499
0.031505
0.0315443
0.0316188
0.0316477
0.0317422
0.0317627
0.0318756
0.0311237
0.0311265
0.0311315
0.0311414
0.031152
0.0311675
0.0311845
0.0312048
0.0312291
0.0312534
0.0312849
0.0313141
0.0313516
0.0313865
0.0314288
0.0314711
0.0315155
0.0315688
0.0316092
0.0316811
0.0317111
0.031804
0.031825
0.0319366
0.0312042
0.031207
0.031212
0.0312217
0.0312321
0.0312476
0.0312643
0.0312844
0.0313084
0.0313324
0.0313635
0.0313922
0.0314294
0.0314637
0.0315056
0.0315471
0.0315915
0.0316432
0.0316844
0.0317539
0.0317849
0.0318758
0.0318972
0.0320071
0.031295
0.0312978
0.0313027
0.0313124
0.0313226
0.0313379
0.0313544
0.0313743
0.0313979
0.0314216
0.0314523
0.0314805
0.0315172
0.0315509
0.0315924
0.031633
0.0316773
0.0317273
0.0317692
0.0318363
0.0318689
0.0319563
0.0319788
0.0320868
0.0313963
0.0313991
0.0314039
0.0314135
0.0314235
0.0314386
0.0314548
0.0314745
0.0314977
0.0315211
0.0315513
0.0315791
0.0316153
0.0316483
0.0316894
0.0317291
0.0317732
0.0318217
0.031864
0.0319288
0.0319616
0.0320476
0.03207
0.0321761
0.031508
0.0315108
0.0315155
0.031525
0.0315349
0.0315498
0.0315657
0.031585
0.0316079
0.0316309
0.0316607
0.031688
0.0317237
0.031756
0.0317966
0.0318353
0.031879
0.0319261
0.0319688
0.0320311
0.0320647
0.0321482
0.0321708
0.0322748
0.0316303
0.0316331
0.0316377
0.031647
0.0316567
0.0316714
0.031687
0.0317061
0.0317286
0.0317511
0.0317804
0.0318072
0.0318423
0.0318739
0.031914
0.0319517
0.031995
0.0320407
0.0320835
0.0321436
0.0321778
0.0322584
0.0322813
0.0323832
0.0317632
0.031766
0.0317705
0.0317797
0.0317891
0.0318036
0.0318189
0.0318376
0.0318597
0.0318818
0.0319106
0.0319367
0.0319713
0.0320022
0.0320417
0.0320783
0.0321212
0.0321654
0.0322083
0.032266
0.0323005
0.032379
0.0324017
0.0325012
0.0319068
0.0319095
0.0319139
0.031923
0.0319322
0.0319465
0.0319614
0.0319798
0.0320014
0.032023
0.0320513
0.0320768
0.0321108
0.0321408
0.0321797
0.0322153
0.0322576
0.0323003
0.0323432
0.0323985
0.0324337
0.0325091
0.032532
0.032629
0.0320612
0.0320639
0.0320682
0.0320772
0.0320861
0.0321001
0.0321146
0.0321326
0.0321537
0.0321748
0.0322025
0.0322274
0.0322607
0.0322899
0.0323281
0.0323626
0.0324043
0.0324456
0.0324882
0.0325411
0.0325766
0.0326494
0.0326726
0.0327667
0.0322265
0.0322292
0.0322333
0.0322421
0.0322508
0.0322645
0.0322787
0.0322962
0.0323168
0.0323373
0.0323644
0.0323885
0.0324212
0.0324495
0.0324869
0.0325204
0.0325614
0.0326012
0.0326434
0.032694
0.0327299
0.0327995
0.0328232
0.0329144
0.0324028
0.0324054
0.0324094
0.0324181
0.0324265
0.0324399
0.0324536
0.0324707
0.0324907
0.0325107
0.032537
0.0325605
0.0325923
0.0326197
0.0326563
0.0326886
0.032729
0.0327672
0.0328089
0.0328572
0.0328932
0.03296
0.032984
0.0330722
0.0325901
0.0325927
0.0325966
0.0326051
0.0326132
0.0326263
0.0326396
0.0326562
0.0326756
0.0326949
0.0327206
0.0327432
0.0327742
0.0328006
0.0328364
0.0328674
0.032907
0.0329436
0.0329848
0.0330307
0.0330671
0.0331306
0.033155
0.0332401
0.0327887
0.0327913
0.032795
0.0328033
0.0328111
0.0328238
0.0328366
0.0328528
0.0328715
0.0328902
0.0329151
0.0329368
0.032967
0.0329924
0.0330272
0.033057
0.0330956
0.0331307
0.0331712
0.0332148
0.0332511
0.0333117
0.0333363
0.0334182
0.0329986
0.0330011
0.0330047
0.0330127
0.0330202
0.0330326
0.0330449
0.0330605
0.0330786
0.0330965
0.0331206
0.0331415
0.0331707
0.033195
0.0332289
0.0332573
0.033295
0.0333284
0.0333682
0.0334094
0.0334458
0.0335031
0.033528
0.0336066
0.0332199
0.0332223
0.0332258
0.0332336
0.0332407
0.0332527
0.0332644
0.0332794
0.0332968
0.0333141
0.0333373
0.0333573
0.0333855
0.0334088
0.0334415
0.0334686
0.0335052
0.0335369
0.0335758
0.0336148
0.033651
0.0337051
0.0337303
0.0338054
0.0334527
0.0334551
0.0334583
0.0334659
0.0334726
0.0334842
0.0334954
0.0335098
0.0335265
0.0335429
0.0335653
0.0335843
0.0336116
0.0336336
0.0336653
0.0336909
0.0337265
0.0337564
0.0337943
0.0338309
0.033867
0.0339177
0.0339431
0.0340146
0.0336971
0.0336994
0.0337025
0.0337098
0.0337162
0.0337273
0.0337378
0.0337517
0.0337676
0.0337832
0.0338046
0.0338226
0.0338489
0.0338697
0.0339003
0.0339244
0.0339588
0.0339869
0.0340239
0.0340581
0.0340938
0.0341412
0.0341665
0.0342344
0.0339532
0.0339555
0.0339583
0.0339654
0.0339713
0.033982
0.0339919
0.0340051
0.0340202
0.034035
0.0340555
0.0340724
0.0340976
0.0341172
0.0341466
0.0341692
0.0342024
0.0342287
0.0342645
0.0342964
0.0343317
0.0343756
0.0344008
0.0344649
0.034221
0.0342233
0.0342259
0.0342328
0.0342383
0.0342484
0.0342578
0.0342703
0.0342845
0.0342984
0.0343179
0.0343338
0.0343578
0.0343761
0.0344043
0.0344254
0.0344574
0.0344817
0.0345165
0.0345459
0.0345806
0.0346212
0.0346462
0.0347064
0.0345007
0.0345029
0.0345054
0.034512
0.034517
0.0345267
0.0345354
0.0345472
0.0345606
0.0345736
0.0345921
0.0346068
0.0346297
0.0346467
0.0346736
0.0346931
0.0347238
0.0347462
0.0347798
0.0348069
0.0348407
0.0348779
0.0349029
0.0349593
0.0347923
0.0347945
0.0347967
0.0348031
0.0348077
0.0348169
0.034825
0.0348361
0.0348486
0.0348607
0.0348782
0.0348917
0.0349134
0.0349289
0.0349545
0.0349724
0.0350018
0.0350223
0.0350546
0.0350793
0.0351122
0.0351458
0.035171
0.0352231
0.035096
0.0350981
0.0351002
0.0351062
0.0351104
0.0351192
0.0351265
0.035137
0.0351486
0.0351598
0.0351762
0.0351885
0.035209
0.0352231
0.0352473
0.0352636
0.0352915
0.0353101
0.0353411
0.0353633
0.0353952
0.0354253
0.0354509
0.0354978
0.0354118
0.0354138
0.0354157
0.0354214
0.0354252
0.0354335
0.0354402
0.0354499
0.0354607
0.0354709
0.0354862
0.0354974
0.0355166
0.0355293
0.0355521
0.0355667
0.0355932
0.0356097
0.0356394
0.0356592
0.03569
0.0357165
0.0357417
0.0357847
0.0357398
0.0357418
0.0357434
0.0357489
0.0357522
0.03576
0.035766
0.035775
0.0357849
0.0357942
0.0358084
0.0358184
0.0358364
0.0358476
0.0358691
0.0358819
0.0359069
0.0359213
0.0359495
0.0359668
0.0359965
0.0360197
0.0360441
0.0360836
0.0360801
0.036082
0.0360834
0.0360887
0.0360915
0.0360988
0.0361041
0.0361124
0.0361214
0.0361297
0.0361429
0.0361517
0.0361685
0.0361782
0.0361983
0.0362093
0.0362328
0.0362451
0.0362718
0.0362866
0.036315
0.0363348
0.0363593
0.0363938
0.0364327
0.0364346
0.0364358
0.0364408
0.0364431
0.0364499
0.0364546
0.0364622
0.0364703
0.0364776
0.0364897
0.0364974
0.0365129
0.0365212
0.0365398
0.0365491
0.0365711
0.0365813
0.0366065
0.0366187
0.0366456
0.0366623
0.0366864
0.0367163
0.0367979
0.0367997
0.0368007
0.0368054
0.0368073
0.0368136
0.0368175
0.0368244
0.0368316
0.036838
0.036849
0.0368555
0.0368697
0.0368766
0.0368939
0.0369013
0.0369219
0.03693
0.0369536
0.0369632
0.0369887
0.037002
0.0370258
0.037051
0.0371756
0.0371774
0.0371782
0.0371826
0.037184
0.0371899
0.0371931
0.0371993
0.0372056
0.037211
0.037221
0.0372261
0.0372392
0.0372445
0.0372604
0.0372661
0.0372853
0.0372912
0.0373134
0.0373204
0.0373443
0.0373544
0.0373775
0.0373981
0.0375659
0.0375677
0.0375683
0.0375724
0.0375734
0.0375788
0.0375814
0.0375868
0.0375923
0.0375967
0.0376056
0.0376096
0.0376213
0.0376252
0.0376397
0.0376436
0.0376613
0.0376651
0.0376858
0.0376902
0.0377128
0.0377196
0.0377418
0.0377575
0.037969
0.0379707
0.0379711
0.037975
0.0379756
0.0379805
0.0379824
0.0379872
0.0379917
0.0379953
0.038003
0.0380058
0.0380163
0.0380187
0.0380318
0.0380339
0.0380501
0.0380518
0.038071
0.0380729
0.038094
0.0380978
0.0381187
0.0381298
0.038385
0.0383866
0.0383868
0.0383905
0.0383906
0.0383951
0.0383963
0.0384004
0.0384041
0.0384067
0.0384134
0.038415
0.0384242
0.0384251
0.0384368
0.038437
0.0384519
0.0384513
0.038469
0.0384684
0.0384882
0.0384888
0.0385087
0.0385149
0.0388139
0.0388155
0.0388155
0.038819
0.0388186
0.0388227
0.0388233
0.0388267
0.0388295
0.0388312
0.0388369
0.0388372
0.0388453
0.0388446
0.0388549
0.0388533
0.0388667
0.0388638
0.0388801
0.0388768
0.0388952
0.0388927
0.0389117
0.0389131
0.0392559
0.0392575
0.0392573
0.0392605
0.0392598
0.0392633
0.0392633
0.0392661
0.039268
0.0392688
0.0392734
0.0392726
0.0392794
0.0392773
0.0392863
0.0392828
0.0392947
0.0392896
0.0393043
0.0392983
0.0393153
0.0393096
0.0393275
0.0393248
0.0397112
0.0397128
0.0397124
0.0397153
0.0397141
0.0397173
0.0397166
0.0397187
0.0397198
0.0397197
0.0397232
0.0397213
0.0397269
0.0397233
0.0397309
0.0397256
0.0397361
0.0397287
0.039742
0.0397332
0.0397487
0.0397397
0.0397563
0.0397499
0.0401798
0.0401814
0.0401808
0.0401835
0.0401819
0.0401846
0.0401832
0.0401846
0.0401849
0.0401838
0.0401864
0.0401832
0.0401876
0.0401826
0.0401889
0.0401818
0.0401909
0.0401812
0.0401931
0.0401815
0.0401957
0.0401831
0.0401987
0.0401879
0.040662
0.0406635
0.0406627
0.0406651
0.0406631
0.0406653
0.0406633
0.040664
0.0406634
0.0406615
0.040663
0.0406586
0.0406618
0.0406553
0.0406603
0.0406514
0.0406591
0.0406471
0.0406577
0.0406433
0.0406563
0.0406401
0.0406547
0.0406393
0.0411577
0.0411591
0.0411581
0.0411604
0.0411578
0.0411596
0.0411569
0.041157
0.0411555
0.0411526
0.0411531
0.0411476
0.0411495
0.0411416
0.0411452
0.0411345
0.0411409
0.0411266
0.041136
0.0411186
0.0411307
0.0411107
0.0411247
0.0411045
0.041667
0.0416685
0.0416673
0.0416693
0.0416663
0.0416676
0.0416642
0.0416637
0.0416613
0.0416575
0.0416568
0.0416501
0.0416509
0.0416414
0.0416437
0.0416312
0.0416362
0.0416197
0.0416278
0.0416076
0.0416186
0.0415951
0.0416084
0.0415838
0.0421902
0.0421916
0.0421902
0.0421919
0.0421885
0.0421894
0.0421853
0.042184
0.0421808
0.042176
0.0421743
0.0421664
0.0421659
0.042155
0.0421559
0.0421415
0.0421453
0.0421264
0.0421333
0.0421101
0.0421204
0.0420929
0.0421061
0.0420765
0.0427271
0.0427285
0.0427269
0.0427284
0.0427245
0.0427249
0.0427202
0.0427182
0.0427141
0.0427084
0.0427056
0.0426965
0.0426947
0.0426824
0.0426819
0.0426657
0.0426681
0.0426468
0.0426525
0.0426264
0.0426359
0.0426044
0.0426179
0.0425828
0.0432779
0.0432793
0.0432774
0.0432787
0.0432743
0.0432743
0.0432688
0.0432662
0.0432612
0.0432545
0.0432507
0.0432404
0.0432374
0.0432235
0.0432217
0.0432036
0.0432048
0.0431811
0.0431857
0.0431563
0.0431653
0.0431291
0.0431438
0.0431033
0.0438426
0.0438439
0.0438418
0.0438429
0.043838
0.0438376
0.0438314
0.0438281
0.0438221
0.0438146
0.0438097
0.0437981
0.043794
0.0437786
0.0437755
0.0437554
0.0437554
0.0437292
0.0437329
0.0437001
0.0437088
0.0436686
0.0436827
0.0436376
0.044421
0.0444223
0.04442
0.0444208
0.0444155
0.0444147
0.0444078
0.0444038
0.044397
0.0443885
0.0443825
0.0443698
0.0443644
0.0443475
0.0443433
0.0443211
0.04432
0.0442912
0.0442942
0.0442576
0.0442669
0.0442215
0.0442359
0.044186
0.0450132
0.0450144
0.045012
0.0450126
0.0450068
0.0450055
0.044998
0.0449933
0.0449856
0.0449762
0.0449692
0.0449552
0.0449488
0.0449302
0.044925
0.0449007
0.0448986
0.0448669
0.0448696
0.0448286
0.0448395
0.0447885
0.0448032
0.0447486
0.0456191
0.0456203
0.0456176
0.045618
0.0456118
0.0456101
0.0456019
0.0455966
0.0455881
0.0455777
0.0455698
0.0455545
0.0455471
0.0455268
0.0455207
0.045494
0.0454914
0.0454564
0.0454594
0.0454148
0.0454245
0.0453703
0.0453843
0.0453254
0.0462385
0.0462397
0.0462369
0.046237
0.0462303
0.0462283
0.0462194
0.0462135
0.0462042
0.0461929
0.0461841
0.0461675
0.0461592
0.0461371
0.0461304
0.0461012
0.0460982
0.0460593
0.046064
0.0460146
0.0460238
0.0459662
0.0459797
0.0459165
0.0468714
0.0468725
0.0468695
0.0468695
0.0468623
0.04686
0.0468504
0.0468439
0.0468339
0.0468216
0.0468121
0.0467941
0.0467852
0.046761
0.0467541
0.0467221
0.0467193
0.0466776
0.0466804
0.0466287
0.0466374
0.0465764
0.0465891
0.0465219
0.0475175
0.0475186
0.0475154
0.0475152
0.0475076
0.047505
0.0474948
0.0474877
0.047477
0.0474637
0.0474537
0.0474341
0.047425
0.0473983
0.0473919
0.0473568
0.0473541
0.0473089
0.0473116
0.0472574
0.0472645
0.0472008
0.0472128
0.0471416
0.0481766
0.0481777
0.0481743
0.048174
0.048166
0.0481631
0.0481523
0.0481447
0.0481335
0.048119
0.048109
0.0480872
0.0480787
0.0480488
0.0480436
0.0480045
0.0480024
0.0479548
0.0479565
0.0478998
0.0479061
0.0478394
0.0478506
0.0477757
0.0488485
0.0488497
0.048846
0.0488458
0.0488373
0.0488342
0.0488228
0.0488146
0.0488032
0.0487873
0.0487776
0.0487534
0.0487456
0.0487138
0.0487072
0.0486674
0.0486638
0.0486149
0.0486148
0.0485564
0.0485613
0.0484921
0.0485026
0.048424
0.0495329
0.0495343
0.0495302
0.0495303
0.0495212
0.0495181
0.0495061
0.0494971
0.049486
0.0494685
0.0494589
0.0494336
0.0494247
0.0493922
0.0493845
0.0493436
0.0493385
0.0492881
0.0492873
0.0492266
0.0492307
0.0491587
0.0491685
0.0490865
0.0502299
0.0502313
0.050227
0.0502271
0.0502174
0.0502146
0.0502019
0.0501929
0.0501808
0.0501631
0.0501526
0.0501267
0.0501169
0.0500836
0.050075
0.0500328
0.0500269
0.0499753
0.0499728
0.0499107
0.0499134
0.0498394
0.0498484
0.049763
0.050939
0.0509404
0.0509361
0.050936
0.0509263
0.0509231
0.0509097
0.0509014
0.0508879
0.0508702
0.050859
0.0508325
0.050822
0.050788
0.0507783
0.0507354
0.0507281
0.0506753
0.0506721
0.0506081
0.05061
0.0505336
0.0505419
0.0504535
0.0516601
0.0516616
0.0516573
0.051657
0.0516472
0.0516438
0.05163
0.0516219
0.0516069
0.0515902
0.0515775
0.0515509
0.0515396
0.0515049
0.0514945
0.0514506
0.0514425
0.0513888
0.0513842
0.0513189
0.0513197
0.0512414
0.051249
0.0511577
0.0523931
0.0523946
0.0523903
0.0523899
0.05238
0.0523766
0.0523625
0.0523543
0.0523384
0.0523223
0.0523077
0.0522821
0.0522696
0.0522343
0.0522231
0.0521786
0.0521695
0.0521147
0.0521094
0.0520427
0.0520426
0.0519624
0.0519692
0.0518754
0.0531377
0.0531393
0.053135
0.0531346
0.0531245
0.0531211
0.0531067
0.0530985
0.053082
0.0530662
0.0530505
0.0530254
0.0530116
0.0529758
0.0529641
0.0529189
0.0529091
0.0528533
0.052847
0.0527792
0.0527781
0.0526964
0.0527025
0.0526062
0.0538941
0.0538957
0.0538914
0.0538911
0.0538808
0.0538774
0.0538628
0.0538546
0.0538375
0.0538219
0.0538052
0.0537804
0.0537649
0.0537303
0.0537169
0.0536714
0.0536607
0.053604
0.053597
0.053528
0.0535261
0.0534428
0.0534482
0.0533498
0.0546622
0.0546638
0.0546594
0.0546592
0.0546488
0.0546453
0.0546304
0.0546222
0.0546047
0.0545893
0.0545716
0.054547
0.0545306
0.0544958
0.0544816
0.0544356
0.0544242
0.0543666
0.0543588
0.0542888
0.054286
0.0542015
0.0542062
0.0541057
0.0554419
0.0554436
0.0554392
0.0554389
0.0554284
0.0554249
0.0554097
0.0554014
0.0553834
0.0553681
0.0553496
0.0553251
0.0553078
0.0552726
0.0552573
0.0552115
0.055199
0.0551407
0.0551321
0.0550612
0.0550576
0.0549719
0.0549759
0.0548737
0.0562333
0.0562352
0.0562306
0.0562304
0.0562196
0.0562161
0.0562005
0.056192
0.0561735
0.0561582
0.0561388
0.0561144
0.056096
0.0560607
0.0560444
0.0559982
0.055985
0.0559259
0.0559165
0.0558447
0.0558403
0.0557537
0.0557568
0.0556533
0.0570364
0.0570383
0.0570336
0.0570334
0.0570222
0.0570186
0.0570026
0.0569939
0.0569748
0.0569593
0.0569388
0.0569145
0.056895
0.0568594
0.0568422
0.0567957
0.0567816
0.0567219
0.0567117
0.056639
0.0566338
0.0565463
0.0565489
0.056444
0.0578509
0.0578529
0.0578479
0.0578476
0.0578361
0.0578322
0.0578157
0.0578066
0.0577869
0.057771
0.0577494
0.0577253
0.0577042
0.0576689
0.0576501
0.0576034
0.0575886
0.0575282
0.0575173
0.0574437
0.0574379
0.0573497
0.0573514
0.0572456
0.0586763
0.0586783
0.0586731
0.0586726
0.0586607
0.0586564
0.0586393
0.0586297
0.0586093
0.0585929
0.0585701
0.0585461
0.0585233
0.0584884
0.0584683
0.058421
0.0584054
0.0583447
0.0583327
0.0582588
0.058252
0.0581634
0.0581645
0.0580579
0.0595114
0.0595134
0.0595081
0.0595073
0.059495
0.0594902
0.0594727
0.0594625
0.0594413
0.0594243
0.0594006
0.0593765
0.0593519
0.0593178
0.059296
0.0592484
0.0592314
0.059171
0.0591582
0.0590839
0.0590765
0.0589873
0.0589877
0.0588807
0.0603548
0.0603568
0.0603513
0.0603503
0.0603378
0.0603326
0.0603146
0.0603039
0.0602822
0.0602647
0.0602402
0.060216
0.0601898
0.0601564
0.0601322
0.0600861
0.0600664
0.0600076
0.0599933
0.0599193
0.0599107
0.0598216
0.0598214
0.0597141
0.0612042
0.0612063
0.0612009
0.0611998
0.0611872
0.0611819
0.0611638
0.0611528
0.0611309
0.0611131
0.0610881
0.0610639
0.0610366
0.061004
0.0609777
0.0609333
0.0609123
0.0608525
0.0608379
0.0607646
0.0607553
0.0606661
0.0606655
0.0605582
0.0620576
0.0620597
0.0620545
0.0620536
0.0620413
0.0620363
0.0620184
0.0620078
0.061986
0.0619686
0.0619437
0.0619198
0.061892
0.0618602
0.0618327
0.0617896
0.0617666
0.0617089
0.0616914
0.0616208
0.06161
0.0615213
0.0615204
0.0614133
0.062913
0.0629152
0.0629105
0.06291
0.0628984
0.0628941
0.062877
0.0628672
0.0628464
0.0628299
0.0628058
0.0627828
0.0627554
0.062725
0.0626967
0.0626557
0.0626307
0.0625755
0.062556
0.0624869
0.0624757
0.0623874
0.0623864
0.0622797
0.0637695
0.063772
0.0637677
0.0637681
0.0637574
0.0637543
0.0637385
0.0637303
0.063711
0.0636961
0.0636736
0.0636524
0.0636263
0.0635976
0.0635701
0.063531
0.0635058
0.0634526
0.0634333
0.0633627
0.0633526
0.0632646
0.0632637
0.0631574
0.0646281
0.0646308
0.0646272
0.0646285
0.0646189
0.0646174
0.0646032
0.0645969
0.0645796
0.0645669
0.0645465
0.0645278
0.0645037
0.0644776
0.0644516
0.0644154
0.0643904
0.0643406
0.0643205
0.0642523
0.0642416
0.0641536
0.0641527
0.0640465
0.0654919
0.065495
0.0654919
0.0654942
0.0654856
0.0654855
0.0654729
0.0654685
0.0654533
0.0654429
0.0654249
0.065409
0.0653873
0.0653641
0.0653408
0.0653074
0.0652849
0.0652377
0.065219
0.0651534
0.0651435
0.0650554
0.0650549
0.0649476
0.0663666
0.0663702
0.0663672
0.0663705
0.0663622
0.0663636
0.0663517
0.0663492
0.066335
0.0663269
0.0663106
0.0662972
0.0662777
0.0662572
0.0662372
0.0662057
0.0661874
0.0661413
0.0661281
0.0660627
0.0660573
0.0659704
0.0659708
0.065863
0.06726
0.0672644
0.0672605
0.0672652
0.0672556
0.0672589
0.0672454
0.0672453
0.0672296
0.0672239
0.0672073
0.0671958
0.0671771
0.0671582
0.0671423
0.0671084
0.0670995
0.0670478
0.0670451
0.0669776
0.0669789
0.0668943
0.0668985
0.0667963
0.0681814
0.0681853
0.0681822
0.068185
0.0681765
0.068177
0.0681648
0.0681614
0.0681471
0.0681386
0.0681224
0.0681097
0.0680905
0.0680733
0.0680547
0.0680238
0.0680143
0.0679646
0.0679641
0.0678977
0.0679029
0.0678202
0.067829
0.0677346
0.0691391
0.0691427
0.069139
0.0691408
0.0691308
0.0691297
0.0691152
0.0691096
0.0690926
0.0690815
0.0690625
0.0690471
0.069025
0.0690061
0.0689827
0.0689547
0.0689383
0.0688916
0.0688896
0.0688227
0.0688297
0.0687453
0.0687576
0.0686634
0.0701396
0.070143
0.0701383
0.0701389
0.0701268
0.0701233
0.0701057
0.0700968
0.0700758
0.0700604
0.0700367
0.0700165
0.0699894
0.0699656
0.0699362
0.0699052
0.0698817
0.0698355
0.0698258
0.0697565
0.0697639
0.0696744
0.069689
0.0695907
0.0711862
0.0711898
0.0711836
0.0711832
0.0711686
0.0711628
0.0711416
0.0711291
0.0711032
0.0710831
0.0710532
0.0710271
0.0709927
0.0709621
0.0709246
0.0708864
0.0708547
0.0708011
0.070785
0.070707
0.0707118
0.0706136
0.070629
0.0705222
0.0722789
0.0722832
0.072275
0.0722743
0.0722571
0.0722496
0.0722244
0.0722096
0.0721775
0.0721548
0.0721164
0.0720866
0.0720423
0.0720051
0.071958
0.0719101
0.0718701
0.0718008
0.0717788
0.0716865
0.0716839
0.0715724
0.0715852
0.0714646
0.0734145
0.073418
0.0734108
0.0734076
0.0733903
0.0733797
0.0733537
0.0733341
0.0733012
0.0732713
0.0732317
0.073193
0.0731453
0.0730992
0.0730435
0.0729896
0.0729317
0.0728584
0.0728176
0.0727132
0.0726958
0.0725657
0.0725704
0.0724277
0.0745864
0.0745897
0.0745823
0.0745787
0.0745605
0.074549
0.0745215
0.0745004
0.0744653
0.0744331
0.0743905
0.0743484
0.0742966
0.0742456
0.0741842
0.0741233
0.0740544
0.0739797
0.0739122
0.0738093
0.0737656
0.073618
0.073606
0.0734302
0.0757865
0.0757897
0.0757824
0.0757787
0.0757603
0.0757486
0.0757206
0.075699
0.0756633
0.0756302
0.0755865
0.0755431
0.0754896
0.0754366
0.0753727
0.0753087
0.0752356
0.0751575
0.0750787
0.0749781
0.0749045
0.07476
0.0747211
0.0745076
0.0770061
0.0770093
0.0770024
0.0769989
0.0769807
0.0769694
0.0769418
0.0769207
0.0768853
0.0768527
0.0768095
0.0767664
0.0767135
0.0766608
0.0765973
0.0765337
0.076461
0.0763826
0.0763039
0.0762045
0.0761252
0.0759888
0.0759322
0.0757069
0.0782366
0.0782402
0.0782334
0.0782306
0.0782129
0.0782025
0.0781756
0.0781557
0.0781214
0.0780903
0.0780484
0.0780072
0.077956
0.0779054
0.0778442
0.0777832
0.0777129
0.0776381
0.0775639
0.0774656
0.0773982
0.0772604
0.0772204
0.0770224
0.0794701
0.0794739
0.0794675
0.0794655
0.0794485
0.0794394
0.0794135
0.0793953
0.0793625
0.0793334
0.0792936
0.0792549
0.0792062
0.0791587
0.0791006
0.0790433
0.0789768
0.0789063
0.078837
0.0787446
0.078683
0.0785527
0.0785154
0.0783321
0.0806994
0.0807036
0.0806975
0.0806964
0.0806802
0.0806725
0.0806479
0.0806316
0.0806006
0.0805739
0.0805364
0.0805007
0.0804548
0.0804109
0.0803565
0.0803033
0.080241
0.0801762
0.080111
0.0800255
0.0799681
0.0798478
0.0798128
0.0796434
0.0819183
0.0819232
0.0819173
0.0819173
0.0819017
0.0818957
0.0818723
0.0818582
0.0818289
0.0818051
0.0817697
0.0817376
0.0816945
0.0816548
0.0816037
0.0815552
0.0814973
0.0814378
0.0813772
0.0812986
0.0812464
0.0811353
0.0811026
0.0809471
0.0831223
0.0831277
0.0831214
0.0831231
0.0831077
0.0831039
0.0830811
0.0830701
0.0830416
0.0830218
0.0829875
0.0829604
0.0829185
0.0828846
0.0828356
0.082793
0.0827387
0.0826853
0.0826288
0.0825579
0.0825091
0.0824082
0.0823775
0.0822359
0.0843068
0.0843122
0.0843063
0.0843093
0.0842942
0.0842926
0.0842703
0.0842624
0.0842347
0.084219
0.0841855
0.0841637
0.0841227
0.0840953
0.0840472
0.0840123
0.0839596
0.0839129
0.0838618
0.0837959
0.083752
0.0836609
0.0836323
0.0835043
0.0854683
0.0854736
0.0854687
0.0854715
0.0854586
0.0854568
0.0854379
0.0854298
0.0854063
0.0853908
0.0853623
0.0853413
0.0853056
0.0852801
0.0852373
0.0852058
0.0851578
0.0851172
0.0850691
0.0850103
0.0849707
0.0848894
0.0848626
0.0847477
0.0866041
0.0866091
0.0866049
0.0866081
0.0865966
0.0865956
0.0865786
0.0865718
0.0865511
0.0865369
0.0865123
0.0864925
0.086462
0.0864379
0.0864009
0.0863718
0.0863293
0.0862932
0.086248
0.0861987
0.0861625
0.0860897
0.0860649
0.0859626
0.0877111
0.0877166
0.0877128
0.0877166
0.087706
0.0877061
0.0876907
0.0876854
0.087667
0.0876546
0.0876331
0.0876155
0.0875887
0.0875672
0.0875347
0.0875088
0.0874709
0.0874394
0.0873989
0.0873576
0.0873218
0.0872591
0.0872364
0.0871463
0.0887883
0.088794
0.0887906
0.0887949
0.0887853
0.0887864
0.0887725
0.0887686
0.0887523
0.0887418
0.088723
0.0887077
0.0886844
0.0886655
0.0886371
0.0886146
0.0885812
0.0885541
0.0885174
0.0884832
0.0884487
0.0883957
0.0883754
0.0882966
0.0898343
0.0898397
0.0898367
0.0898417
0.0898326
0.0898351
0.0898221
0.0898201
0.0898054
0.089797
0.0897805
0.0897677
0.0897473
0.0897314
0.0897064
0.0896873
0.0896579
0.0896351
0.0896031
0.0895735
0.0895423
0.0894975
0.0894803
0.0894118
0.0908473
0.0908528
0.0908503
0.0908553
0.0908478
0.0908503
0.0908395
0.090838
0.0908257
0.0908188
0.0908048
0.0907941
0.0907766
0.0907632
0.0907418
0.0907258
0.0907004
0.0906814
0.0906529
0.0906293
0.0906008
0.0905652
0.0905478
0.0904905
0.0918272
0.0918327
0.0918298
0.0918367
0.0918277
0.0918337
0.0918215
0.0918235
0.0918112
0.0918069
0.0917946
0.0917862
0.0917713
0.0917605
0.0917422
0.0917293
0.0917073
0.091692
0.0916678
0.091648
0.0916236
0.0915956
0.0915792
0.0915315
0.0927729
0.092778
0.0927769
0.0927812
0.0927773
0.0927788
0.0927728
0.0927718
0.0927641
0.0927595
0.0927502
0.0927433
0.0927311
0.0927226
0.0927073
0.0926973
0.0926787
0.0926668
0.0926459
0.0926308
0.0926097
0.0925877
0.0925737
0.0925343
0.0936845
0.0936902
0.0936867
0.0936966
0.0936855
0.093697
0.0936829
0.0936907
0.0936788
0.0936793
0.0936698
0.0936658
0.0936554
0.0936493
0.0936367
0.0936294
0.0936137
0.0936052
0.0935879
0.0935765
0.0935591
0.0935424
0.0935295
0.0934989
0.0945618
0.0945663
0.0945671
0.0945692
0.0945705
0.0945687
0.0945694
0.0945663
0.0945646
0.0945607
0.0945562
0.0945523
0.0945447
0.0945405
0.0945304
0.0945256
0.0945129
0.0945072
0.0944929
0.0944853
0.0944711
0.0944591
0.0944481
0.0944254
0.0954048
0.0954107
0.0954066
0.0954187
0.0954064
0.095422
0.0954065
0.0954194
0.0954073
0.0954125
0.0954049
0.0954051
0.0953983
0.0953964
0.0953886
0.095386
0.0953759
0.0953731
0.0953617
0.0953575
0.0953457
0.0953383
0.0953295
0.0953138
0.0962142
0.0962179
0.0962204
0.096221
0.0962257
0.0962221
0.0962278
0.0962231
0.0962266
0.096223
0.0962229
0.0962213
0.0962178
0.0962171
0.0962115
0.0962112
0.0962034
0.0962032
0.0961943
0.0961932
0.0961845
0.0961806
0.096174
0.0961647
0.0969897
0.0969955
0.0969918
0.0970039
0.096993
0.0970091
0.0969953
0.0970101
0.0969993
0.0970077
0.097002
0.0970056
0.0970019
0.0970036
0.0969998
0.0970013
0.0969959
0.0969978
0.0969917
0.0969935
0.0969868
0.096987
0.0969828
0.0969786
0.0977329
0.0977361
0.0977392
0.0977398
0.0977453
0.0977428
0.0977498
0.0977462
0.0977523
0.0977499
0.0977529
0.0977535
0.0977533
0.0977556
0.0977539
0.0977573
0.0977537
0.0977581
0.0977538
0.0977582
0.0977541
0.0977578
0.0977552
0.097756
0.098443
0.0984483
0.098446
0.0984559
0.0984494
0.0984619
0.0984536
0.0984661
0.0984596
0.0984683
0.0984656
0.0984712
0.0984704
0.0984749
0.0984744
0.0984795
0.0984778
0.0984839
0.0984818
0.0984888
0.0984862
0.0984933
0.0984924
0.0984975
0.0991226
0.0991255
0.0991282
0.0991306
0.099134
0.0991356
0.09914
0.0991409
0.0991459
0.0991471
0.0991509
0.0991542
0.0991562
0.0991613
0.0991624
0.0991689
0.0991688
0.0991769
0.0991762
0.0991853
0.0991847
0.0991946
0.0991947
0.0992041
0.0997705
0.0997748
0.0997748
0.099781
0.0997802
0.099787
0.0997864
0.0997935
0.0997938
0.0998001
0.0998016
0.0998077
0.0998098
0.0998164
0.0998185
0.0998264
0.0998276
0.0998372
0.0998382
0.0998494
0.0998498
0.0998626
0.0998638
0.0998767
0.100389
0.100392
0.100394
0.100399
0.1004
0.100405
0.100406
0.100413
0.100415
0.100421
0.100424
0.10043
0.100433
0.100441
0.100444
0.100453
0.100455
0.100466
0.100469
0.100481
0.100483
0.100498
0.1005
0.100516
0.100979
0.100982
0.100984
0.100987
0.100991
0.100994
0.100999
0.101001
0.101007
0.101011
0.101017
0.101023
0.101027
0.101035
0.101039
0.10105
0.101053
0.101065
0.101069
0.101083
0.101086
0.101103
0.101106
0.101124
0.101541
0.101544
0.101545
0.10155
0.101551
0.101558
0.101558
0.101567
0.101568
0.101577
0.101579
0.101588
0.101592
0.101601
0.101606
0.101617
0.101622
0.101635
0.101639
0.101655
0.101659
0.101678
0.101681
0.101702
0.102076
0.102078
0.102081
0.102083
0.102088
0.10209
0.102097
0.102099
0.102107
0.10211
0.102118
0.102124
0.10213
0.10214
0.102146
0.102157
0.102163
0.102177
0.102182
0.102199
0.102204
0.102224
0.10223
0.10225
0.102585
0.102587
0.102589
0.102593
0.102595
0.102601
0.102603
0.102611
0.102614
0.102623
0.102627
0.102636
0.102641
0.102652
0.102658
0.102671
0.102677
0.102692
0.102698
0.102716
0.102721
0.102742
0.102747
0.102773
0.103069
0.103071
0.103074
0.103076
0.103081
0.103083
0.103089
0.103093
0.1031
0.103106
0.103113
0.103121
0.103128
0.103139
0.103145
0.103158
0.103165
0.103181
0.103188
0.103207
0.103212
0.103235
0.103239
0.103268
0.103529
0.103532
0.103533
0.103537
0.103539
0.103545
0.103548
0.103555
0.10356
0.103568
0.103574
0.103583
0.10359
0.103601
0.103608
0.103622
0.103629
0.103646
0.103652
0.103672
0.103679
0.103702
0.103708
0.103736
0.103966
0.103968
0.103971
0.103972
0.103978
0.10398
0.103987
0.103992
0.103998
0.104005
0.104012
0.104021
0.104028
0.10404
0.104048
0.104062
0.104069
0.104086
0.104094
0.104114
0.104121
0.104145
0.104151
0.104181
0.104382
0.104384
0.104385
0.10439
0.104391
0.104398
0.1044
0.104408
0.104413
0.104421
0.104428
0.104437
0.104445
0.104457
0.104465
0.104479
0.104487
0.104505
0.104512
0.104534
0.104541
0.104566
0.104572
0.104603
0.104776
0.104778
0.104781
0.104782
0.104788
0.10479
0.104797
0.104801
0.104808
0.104816
0.104823
0.104832
0.10484
0.104852
0.10486
0.104875
0.104884
0.104901
0.10491
0.104931
0.104938
0.104965
0.104971
0.105002
0.10515
0.105152
0.105154
0.105158
0.10516
0.105166
0.105169
0.105177
0.105182
0.105191
0.105197
0.105207
0.105215
0.105227
0.105236
0.10525
0.105259
0.105277
0.105286
0.105308
0.105315
0.105342
0.105348
0.105381
0.105506
0.105507
0.105509
0.105513
0.105515
0.105521
0.105525
0.105531
0.105538
0.105545
0.105553
0.105563
0.105571
0.105583
0.105591
0.105607
0.105616
0.105634
0.105642
0.105665
0.105672
0.1057
0.105706
0.105738
0.105843
0.105844
0.105847
0.105848
0.105854
0.105856
0.105863
0.105868
0.105875
0.105882
0.10589
0.1059
0.105908
0.105921
0.105929
0.105944