/*--------------------------------*- C++ -*----------------------------------*\
  =========                 |
  \\      /  F ield         | OpenFOAM: The Open Source CFD Toolbox
   \\    /   O peration     | Website:  https://openfoam.org
    \\  /    A nd           | Version:  10
     \\/     M anipulation  |
\*---------------------------------------------------------------------------*/
FoamFile
{
    format      ascii;
    class       volScalarField;
    location    "0.33";
    object      T;
}
// * * * * * * * * * * * * * * * * * * * * * * * * * * * * * * * * * * * * * //

dimensions      [0 0 0 1 0 0 0];

internalField   nonuniform List<scalar> 
4176
(
180.347
180.351
180.373
180.382
180.426
180.444
180.507
180.537
180.614
180.66
180.75
180.809
180.913
180.986
181.1
181.191
181.307
181.43
181.534
181.703
181.778
182.01
182.023
182.327
180.356
180.36
180.382
180.392
180.437
180.456
180.519
180.552
180.628
180.677
180.767
180.829
180.935
181.01
181.127
181.22
181.34
181.465
181.571
181.744
181.819
182.061
182.078
182.412
180.384
180.388
180.41
180.42
180.463
180.482
180.543
180.575
180.649
180.698
180.785
180.846
180.95
181.023
181.138
181.228
181.347
181.468
181.572
181.74
181.812
182.049
182.065
182.41
180.436
180.44
180.461
180.471
180.514
180.534
180.594
180.627
180.701
180.749
180.837
180.897
181.001
181.073
181.19
181.279
181.399
181.523
181.621
181.795
181.864
182.097
182.111
182.44
180.511
180.515
180.536
180.546
180.588
180.607
180.667
180.699
180.772
180.82
180.907
180.966
181.07
181.14
181.257
181.344
181.465
181.586
181.682
181.857
181.925
182.155
182.17
182.489
180.61
180.614
180.635
180.645
180.687
180.706
180.765
180.797
180.869
180.917
181.002
181.062
181.164
181.234
181.35
181.435
181.558
181.674
181.776
181.945
182.016
182.243
182.261
182.579
180.733
180.737
180.758
180.767
180.809
180.828
180.886
180.918
180.989
181.036
181.121
181.18
181.28
181.35
181.465
181.548
181.671
181.782
181.889
182.052
182.124
182.349
182.368
182.685
180.88
180.884
180.904
180.914
180.955
180.974
181.031
181.063
181.133
181.18
181.263
181.321
181.421
181.489
181.604
181.685
181.808
181.915
182.024
182.181
182.256
182.477
182.498
182.81
181.05
181.055
181.075
181.084
181.125
181.143
181.2
181.231
181.3
181.347
181.428
181.486
181.584
181.652
181.765
181.844
181.967
182.07
182.181
182.333
182.409
182.626
182.649
182.956
181.245
181.249
181.269
181.278
181.318
181.336
181.393
181.423
181.491
181.537
181.618
181.674
181.771
181.837
181.949
182.027
182.149
182.248
182.36
182.507
182.584
182.799
182.821
183.123
181.463
181.467
181.487
181.496
181.536
181.553
181.609
181.638
181.706
181.751
181.83
181.886
181.981
182.046
182.157
182.232
182.353
182.449
182.562
182.703
182.784
182.989
183.015
183.311
181.705
181.709
181.729
181.737
181.776
181.793
181.848
181.877
181.944
181.988
182.066
182.121
182.215
182.278
182.387
182.46
182.58
182.673
182.787
182.922
183.004
183.203
183.23
183.521
181.971
181.975
181.994
182.002
182.041
182.058
182.112
182.14
182.205
182.248
182.325
182.379
182.471
182.533
182.641
182.712
182.83
182.92
183.033
183.164
183.245
183.441
183.467
183.752
182.26
182.264
182.283
182.291
182.329
182.345
182.398
182.426
182.49
182.532
182.608
182.66
182.751
182.811
182.917
182.986
183.102
183.189
183.302
183.427
183.511
183.698
183.726
184.004
182.573
182.577
182.596
182.603
182.641
182.656
182.709
182.735
182.799
182.839
182.913
182.964
183.053
183.112
183.216
183.283
183.397
183.481
183.594
183.713
183.796
183.98
184.006
184.278
182.91
182.914
182.932
182.94
182.977
182.991
183.043
183.068
183.13
183.17
183.242
183.292
183.379
183.436
183.538
183.602
183.715
183.795
183.907
184.022
184.106
184.281
184.309
184.574
183.271
183.274
183.292
183.299
183.336
183.35
183.4
183.425
183.485
183.524
183.595
183.642
183.728
183.782
183.882
183.944
184.055
184.132
184.243
184.352
184.435
184.606
184.633
184.891
183.655
183.659
183.676
183.683
183.718
183.732
183.781
183.805
183.864
183.901
183.97
184.016
184.099
184.152
184.25
184.309
184.418
184.492
184.601
184.705
184.789
184.951
184.98
185.231
184.063
184.067
184.084
184.09
184.125
184.137
184.186
184.208
184.266
184.301
184.369
184.413
184.494
184.544
184.64
184.697
184.803
184.874
184.981
185.08
185.163
185.32
185.348
185.591
184.495
184.498
184.515
184.521
184.555
184.566
184.614
184.635
184.691
184.725
184.79
184.833
184.912
184.96
185.053
185.107
185.211
185.278
185.383
185.477
185.559
185.709
185.738
185.974
184.95
184.954
184.97
184.975
185.009
185.019
185.065
185.085
185.14
185.172
185.235
185.276
185.352
185.398
185.488
185.54
185.641
185.705
185.807
185.896
185.978
186.121
186.15
186.378
185.429
185.433
185.449
185.453
185.486
185.495
185.54
185.559
185.612
185.642
185.704
185.742
185.816
185.859
185.947
185.996
186.093
186.154
186.254
186.337
186.418
186.555
186.583
186.803
185.932
185.935
185.951
185.955
185.986
185.995
186.039
186.056
186.107
186.136
186.195
186.231
186.303
186.343
186.428
186.474
186.568
186.626
186.722
186.801
186.88
187.011
187.038
187.251
186.458
186.461
186.477
186.48
186.511
186.518
186.56
186.576
186.625
186.652
186.709
186.743
186.812
186.85
186.932
186.975
187.066
187.12
187.213
187.287
187.364
187.488
187.515
187.719
187.008
187.011
187.026
187.028
187.058
187.064
187.105
187.119
187.167
187.192
187.247
187.278
187.344
187.38
187.458
187.498
187.586
187.636
187.726
187.796
187.871
187.988
188.014
188.209
187.581
187.584
187.598
187.6
187.629
187.634
187.674
187.686
187.732
187.754
187.807
187.836
187.899
187.932
188.008
188.044
188.129
188.175
188.261
188.327
188.399
188.509
188.534
188.721
188.177
188.179
188.193
188.195
188.223
188.227
188.265
188.275
188.319
188.34
188.39
188.416
188.477
188.507
188.579
188.613
188.694
188.736
188.819
188.88
188.95
189.052
189.076
189.255
188.796
188.798
188.812
188.812
188.839
188.842
188.879
188.888
188.93
188.948
188.996
189.02
189.078
189.104
189.174
189.204
189.281
189.32
189.399
189.455
189.522
189.618
189.64
189.811
189.437
189.44
189.453
189.453
189.479
189.481
189.516
189.523
189.563
189.58
189.625
189.646
189.701
189.724
189.791
189.817
189.891
189.926
190.001
190.053
190.116
190.205
190.224
190.391
190.102
190.104
190.117
190.116
190.141
190.142
190.176
190.181
190.219
190.233
190.276
190.295
190.347
190.367
190.43
190.453
190.523
190.554
190.625
190.672
190.732
190.814
190.832
190.99
190.789
190.791
190.803
190.802
190.826
190.825
190.858
190.861
190.898
190.91
190.95
190.966
191.015
191.032
191.092
191.111
191.178
191.205
191.272
191.314
191.371
191.446
191.464
191.609
191.498
191.5
191.512
191.51
191.533
191.531
191.562
191.564
191.599
191.608
191.646
191.659
191.706
191.72
191.776
191.791
191.854
191.877
191.94
191.978
192.031
192.1
192.115
192.253
192.229
192.231
192.243
192.24
192.262
192.259
192.288
192.289
192.321
192.329
192.365
192.375
192.419
192.429
192.483
192.494
192.554
192.572
192.631
192.664
192.713
192.775
192.79
192.917
192.983
192.984
192.995
192.992
193.013
193.009
193.037
193.036
193.066
193.072
193.105
193.113
193.154
193.161
193.211
193.219
193.275
193.289
193.344
193.372
193.417
193.474
193.486
193.604
193.757
193.759
193.769
193.765
193.786
193.78
193.807
193.804
193.833
193.836
193.867
193.872
193.91
193.915
193.962
193.966
194.018
194.028
194.08
194.102
194.144
194.193
194.204
194.313
194.554
194.555
194.565
194.56
194.58
194.573
194.599
194.594
194.621
194.622
194.651
194.653
194.689
194.69
194.734
194.735
194.783
194.789
194.837
194.854
194.892
194.936
194.943
195.043
195.371
195.373
195.382
195.377
195.395
195.388
195.412
195.406
195.431
195.43
195.456
195.456
195.489
195.487
195.528
195.525
195.57
195.571
195.616
195.628
195.663
195.7
195.705
195.795
196.21
196.211
196.22
196.214
196.232
196.223
196.246
196.238
196.262
196.259
196.283
196.28
196.31
196.305
196.343
196.337
196.378
196.376
196.416
196.424
196.455
196.486
196.488
196.569
197.069
197.07
197.079
197.072
197.089
197.08
197.101
197.092
197.113
197.109
197.13
197.125
197.153
197.145
197.18
197.17
197.208
197.201
197.238
197.241
197.268
197.294
197.293
197.365
197.949
197.95
197.958
197.951
197.968
197.957
197.977
197.966
197.986
197.979
197.999
197.992
198.016
198.006
198.037
198.024
198.059
198.047
198.081
198.079
198.103
198.123
198.119
198.182
198.849
198.85
198.858
198.851
198.866
198.854
198.873
198.861
198.879
198.871
198.888
198.879
198.901
198.887
198.916
198.899
198.931
198.915
198.946
198.938
198.959
198.972
198.965
199.021
199.77
199.771
199.779
199.77
199.785
199.772
199.79
199.776
199.793
199.782
199.798
199.786
199.806
199.789
199.815
199.794
199.823
199.803
199.831
199.817
199.835
199.843
199.833
199.882
200.711
200.712
200.719
200.71
200.724
200.71
200.727
200.712
200.727
200.714
200.728
200.713
200.731
200.711
200.735
200.711
200.737
200.712
200.737
200.718
200.734
200.734
200.722
200.762
201.672
201.672
201.679
201.67
201.683
201.668
201.683
201.667
201.68
201.666
201.677
201.661
201.676
201.654
201.675
201.647
201.67
201.641
201.664
201.639
201.652
201.646
201.632
201.663
202.652
202.652
202.659
202.649
202.661
202.645
202.659
202.642
202.653
202.638
202.647
202.628
202.641
202.616
202.634
202.603
202.624
202.59
202.611
202.58
202.591
202.578
202.562
202.586
203.651
203.652
203.658
203.647
203.659
203.642
203.655
203.636
203.646
203.628
203.636
203.615
203.625
203.597
203.613
203.578
203.596
203.559
203.577
203.541
203.55
203.531
203.513
203.528
204.67
204.67
204.676
204.665
204.676
204.658
204.67
204.649
204.658
204.638
204.644
204.621
204.629
204.598
204.612
204.573
204.589
204.547
204.563
204.521
204.529
204.503
204.484
204.49
205.707
205.707
205.713
205.701
205.711
205.692
205.703
205.681
205.688
205.667
205.67
205.645
205.651
205.617
205.629
205.587
205.6
205.554
205.568
205.521
205.526
205.495
205.473
205.471
206.762
206.762
206.768
206.755
206.765
206.745
206.755
206.732
206.737
206.714
206.715
206.688
206.692
206.655
206.665
206.619
206.63
206.579
206.592
206.539
206.543
206.502
206.485
206.472
207.836
207.836
207.841
207.828
207.837
207.816
207.824
207.8
207.804
207.779
207.779
207.749
207.751
207.712
207.719
207.67
207.679
207.623
207.634
207.576
207.578
207.53
207.514
207.492
208.926
208.926
208.931
208.917
208.925
208.904
208.911
208.885
208.888
208.862
208.859
208.828
208.827
208.785
208.79
208.738
208.745
208.686
208.694
208.632
208.632
208.577
208.559
208.53
210.033
210.033
210.037
210.023
210.031
210.008
210.015
209.988
209.989
209.961
209.957
209.923
209.921
209.876
209.88
209.824
209.83
209.765
209.773
209.702
209.706
209.641
209.624
209.587
211.156
211.156
211.16
211.146
211.153
211.129
211.135
211.107
211.106
211.077
211.072
211.035
211.032
210.984
210.986
210.926
210.931
210.863
210.868
210.79
210.796
210.724
210.706
210.661
212.295
212.295
212.298
212.284
212.29
212.266
212.27
212.241
212.24
212.209
212.202
212.164
212.159
212.108
212.109
212.045
212.05
211.973
211.984
211.898
211.901
211.825
211.806
211.754
213.448
213.448
213.452
213.436
213.442
213.417
213.421
213.391
213.388
213.356
213.348
213.307
213.302
213.247
213.248
213.178
213.186
213.102
213.113
213.022
213.025
212.942
212.922
212.863
214.616
214.615
214.619
214.603
214.608
214.583
214.586
214.555
214.551
214.517
214.509
214.465
214.46
214.402
214.402
214.329
214.335
214.249
214.256
214.163
214.163
214.076
214.055
213.99
215.796
215.796
215.799
215.783
215.788
215.762
215.764
215.732
215.728
215.692
215.684
215.637
215.633
215.569
215.572
215.494
215.499
215.409
215.416
215.319
215.318
215.226
215.204
215.132
216.99
216.989
216.992
216.977
216.981
216.955
216.956
216.923
216.919
216.88
216.872
216.823
216.818
216.753
216.754
216.674
216.677
216.586
216.589
216.49
216.487
216.392
216.368
216.291
218.195
218.195
218.197
218.182
218.185
218.159
218.159
218.125
218.121
218.081
218.073
218.022
218.016
217.95
217.948
217.868
217.869
217.775
217.778
217.676
217.671
217.572
217.548
217.465
219.411
219.411
219.414
219.398
219.401
219.375
219.374
219.34
219.335
219.294
219.285
219.234
219.227
219.159
219.156
219.075
219.074
218.98
218.979
218.875
218.869
218.767
218.742
218.653
220.638
220.638
220.641
220.624
220.627
220.601
220.6
220.567
220.559
220.519
220.509
220.457
220.448
220.381
220.375
220.294
220.291
220.195
220.194
220.088
220.08
219.974
219.949
219.855
221.875
221.875
221.878
221.861
221.864
221.837
221.836
221.803
221.794
221.755
221.742
221.691
221.681
221.613
221.607
221.524
221.52
221.424
221.42
221.312
221.303
221.195
221.169
221.071
223.121
223.121
223.124
223.107
223.11
223.083
223.082
223.049
223.038
223.001
222.986
222.936
222.923
222.857
222.848
222.766
222.76
222.663
222.657
222.548
222.538
222.428
222.401
222.299
224.377
224.376
224.379
224.363
224.366
224.339
224.337
224.304
224.293
224.256
224.239
224.19
224.176
224.109
224.1
224.017
224.01
223.912
223.905
223.795
223.784
223.671
223.644
223.538
225.64
225.64
225.643
225.627
225.63
225.602
225.6
225.568
225.556
225.52
225.501
225.454
225.437
225.371
225.36
225.277
225.269
225.171
225.163
225.052
225.04
224.925
224.898
224.788
226.913
226.913
226.915
226.899
226.902
226.875
226.872
226.84
226.827
226.792
226.772
226.725
226.707
226.642
226.63
226.545
226.536
226.438
226.429
226.317
226.304
226.187
226.16
226.048
228.193
228.193
228.196
228.179
228.182
228.155
228.152
228.12
228.106
228.071
228.05
228.004
227.985
227.919
227.908
227.821
227.812
227.713
227.703
227.59
227.576
227.458
227.431
227.316
229.481
229.481
229.484
229.467
229.47
229.443
229.439
229.407
229.393
229.358
229.335
229.29
229.269
229.204
229.192
229.103
229.094
228.994
228.983
228.871
228.856
228.736
228.709
228.592
230.777
230.777
230.779
230.763
230.765
230.737
230.734
230.701
230.686
230.651
230.627
230.582
230.559
230.494
230.482
230.392
230.383
230.282
230.27
230.158
230.141
230.021
229.994
229.875
232.079
232.079
232.081
232.064
232.066
232.038
232.034
232
231.985
231.95
231.924
231.88
231.855
231.791
231.775
231.687
231.677
231.574
231.562
231.449
231.433
231.312
231.285
231.164
233.386
233.387
233.389
233.371
233.373
233.344
233.339
233.305
233.289
233.253
233.226
233.182
233.155
233.092
233.072
232.988
232.976
232.871
232.859
232.747
232.729
232.608
232.581
232.459
234.697
234.697
234.699
234.681
234.683
234.653
234.648
234.613
234.596
234.56
234.531
234.488
234.458
234.397
234.374
234.291
234.279
234.171
234.162
234.047
234.03
233.909
233.882
233.759
236.008
236.008
236.01
235.992
235.994
235.963
235.958
235.923
235.905
235.869
235.839
235.796
235.764
235.705
235.68
235.599
235.58
235.481
235.468
235.352
235.335
235.215
235.189
235.065
237.317
237.317
237.319
237.301
237.302
237.272
237.267
237.232
237.215
237.178
237.149
237.106
237.073
237.016
236.987
236.91
236.888
236.791
236.78
236.661
236.646
236.526
236.5
236.376
238.619
238.619
238.622
238.604
238.607
238.577
238.573
238.539
238.522
238.487
238.458
238.417
238.384
238.328
238.299
238.224
238.201
238.106
238.094
237.975
237.961
237.842
237.817
237.693
239.914
239.914
239.918
239.9
239.904
239.876
239.874
239.841
239.826
239.793
239.766
239.727
239.695
239.643
239.612
239.543
239.516
239.426
239.408
239.299
239.282
239.163
239.139
239.016
241.2
241.201
241.205
241.189
241.195
241.169
241.169
241.138
241.126
241.096
241.071
241.036
241.006
240.957
240.929
240.862
240.837
240.75
240.732
240.625
240.609
240.49
240.468
240.345
242.481
242.482
242.488
242.473
242.48
242.456
242.458
242.431
242.422
242.395
242.374
242.342
242.316
242.271
242.246
242.184
242.16
242.079
242.062
241.956
241.943
241.824
241.803
241.68
243.762
243.764
243.77
243.757
243.765
243.743
243.748
243.723
243.716
243.693
243.675
243.647
243.624
243.584
243.563
243.505
243.487
243.408
243.395
243.294
243.283
243.165
243.147
243.022
245.053
245.056
245.061
245.049
245.058
245.038
245.042
245.02
245.015
244.994
244.978
244.954
244.934
244.897
244.881
244.823
244.815
244.734
244.732
244.629
244.628
244.512
244.497
244.375
246.364
246.367
246.373
246.361
246.369
246.349
246.353
246.331
246.325
246.306
246.29
246.267
246.247
246.214
246.199
246.142
246.142
246.06
246.064
245.964
245.969
245.856
245.849
245.735
247.708
247.71
247.716
247.702
247.711
247.688
247.692
247.667
247.66
247.637
247.62
247.595
247.574
247.541
247.522
247.47
247.464
247.389
247.391
247.294
247.304
247.192
247.191
247.083
249.094
249.096
249.101
249.085
249.092
249.066
249.067
249.038
249.028
249.001
248.979
248.95
248.923
248.887
248.862
248.811
248.796
248.721
248.723
248.622
248.634
248.519
248.523
248.414
250.529
250.53
250.534
250.517
250.521
250.491
250.488
250.455
250.439
250.406
250.377
250.341
250.307
250.264
250.229
250.173
250.148
250.069
250.064
249.956
249.968
249.844
249.851
249.735
252.014
252.015
252.018
251.999
252
251.967
251.96
251.922
251.899
251.861
251.823
251.781
251.736
251.684
251.638
251.572
251.535
251.445
251.428
251.308
251.314
251.177
251.184
251.054
253.546
253.548
253.549
253.529
253.527
253.492
253.481
253.439
253.411
253.367
253.322
253.272
253.218
253.157
253.098
253.022
252.97
252.864
252.836
252.698
252.691
252.533
252.534
252.381
255.119
255.12
255.121
255.099
255.097
255.059
255.047
255
254.97
254.921
254.872
254.815
254.755
254.685
254.617
254.533
254.461
254.354
254.294
254.15
254.117
253.937
253.924
253.736
256.721
256.722
256.724
256.7
256.699
256.659
256.646
256.598
256.566
256.514
256.463
256.403
256.339
256.264
256.19
256.1
256.017
255.906
255.823
255.68
255.613
255.421
255.382
255.149
258.342
258.343
258.345
258.321
258.32
258.28
258.267
258.219
258.187
258.135
258.084
258.023
257.957
257.883
257.806
257.715
257.628
257.517
257.422
257.283
257.191
257.005
256.939
256.67
259.968
259.969
259.972
259.949
259.948
259.909
259.897
259.85
259.819
259.768
259.718
259.659
259.595
259.523
259.447
259.359
259.273
259.164
259.071
258.936
258.844
258.662
258.594
258.327
261.589
261.591
261.594
261.572
261.572
261.534
261.524
261.478
261.449
261.401
261.354
261.298
261.236
261.168
261.096
261.013
260.93
260.829
260.74
260.61
260.528
260.352
260.295
260.052
263.196
263.197
263.201
263.18
263.181
263.145
263.136
263.094
263.067
263.022
262.977
262.926
262.868
262.805
262.736
262.66
262.581
262.487
262.405
262.285
262.21
262.046
261.994
261.771
264.779
264.781
264.785
264.765
264.768
264.734
264.727
264.687
264.662
264.622
264.579
264.533
264.478
264.421
264.357
264.287
264.214
264.129
264.052
263.941
263.873
263.723
263.675
263.47
266.333
266.335
266.34
266.321
266.324
266.293
266.287
266.25
266.228
266.192
266.152
266.111
266.06
266.009
265.949
265.887
265.818
265.742
265.673
265.568
265.508
265.371
265.327
265.14
267.851
267.854
267.859
267.842
267.846
267.817
267.813
267.779
267.759
267.727
267.689
267.655
267.605
267.563
267.504
267.452
267.387
267.32
267.254
267.163
267.106
266.984
266.943
266.774
269.331
269.334
269.339
269.323
269.329
269.301
269.299
269.268
269.251
269.223
269.188
269.158
269.112
269.076
269.021
268.977
268.915
268.857
268.795
268.717
268.662
268.554
268.516
268.365
270.767
270.772
270.778
270.762
270.77
270.743
270.744
270.714
270.701
270.674
270.645
270.617
270.577
270.544
270.495
270.456
270.4
270.35
270.294
270.225
270.172
270.079
270.044
269.909
272.161
272.164
272.172
272.156
272.166
272.14
272.144
272.115
272.105
272.081
272.056
272.031
271.996
271.966
271.923
271.888
271.839
271.796
271.741
271.685
271.637
271.555
271.522
271.403
273.509
273.511
273.519
273.504
273.515
273.49
273.496
273.47
273.462
273.44
273.419
273.397
273.366
273.341
273.303
273.273
273.228
273.192
273.143
273.095
273.05
272.981
272.949
272.847
274.808
274.811
274.82
274.805
274.817
274.793
274.802
274.776
274.772
274.752
274.734
274.715
274.689
274.667
274.633
274.608
274.569
274.538
274.492
274.456
274.41
274.357
274.323
274.238
276.06
276.063
276.072
276.058
276.071
276.049
276.058
276.036
276.032
276.016
276
275.985
275.961
275.944
275.914
275.893
275.858
275.833
275.794
275.762
275.721
275.677
275.647
275.575
277.264
277.267
277.277
277.261
277.279
277.254
277.268
277.244
277.246
277.23
277.218
277.204
277.185
277.17
277.144
277.128
277.097
277.078
277.041
277.018
276.979
276.945
276.918
276.858
278.42
278.424
278.432
278.422
278.433
278.417
278.425
278.409
278.407
278.397
278.385
278.376
278.358
278.347
278.325
278.312
278.285
278.271
278.239
278.221
278.187
278.163
278.134
278.087
279.529
279.531
279.544
279.525
279.549
279.521
279.544
279.517
279.526
279.512
279.506
279.497
279.483
279.475
279.456
279.447
279.424
279.414
279.385
279.374
279.342
279.326
279.3
279.264
280.591
280.595
280.6
280.597
280.601
280.597
280.598
280.593
280.588
280.586
280.576
280.572
280.56
280.555
280.538
280.533
280.513
280.507
280.482
280.476
280.447
280.438
280.413
280.387
281.607
281.608
281.623
281.603
281.632
281.6
281.63
281.601
281.618
281.603
281.604
281.598
281.59
281.586
281.573
281.57
281.553
281.551
281.529
281.527
281.503
281.499
281.476
281.46
282.577
282.582
282.585
282.587
282.586
282.591
282.585
282.59
282.583
282.587
282.579
282.58
282.572
282.572
282.56
282.561
282.547
282.548
282.529
282.532
282.509
282.511
282.49
282.482
283.505
283.505
283.519
283.502
283.529
283.502
283.531
283.506
283.525
283.512
283.517
283.514
283.51
283.511
283.502
283.505
283.494
283.498
283.482
283.488
283.47
283.475
283.456
283.456
284.387
284.392
284.395
284.398
284.398
284.404
284.4
284.407
284.401
284.409
284.403
284.408
284.403
284.407
284.4
284.405
284.396
284.403
284.39
284.4
284.383
284.393
284.377
284.382
285.231
285.232
285.242
285.233
285.25
285.237
285.255
285.242
285.255
285.25
285.255
285.255
285.255
285.259
285.254
285.262
285.255
285.265
285.253
285.266
285.252
285.266
285.251
285.263
286.031
286.036
286.04
286.039
286.048
286.045
286.052
286.053
286.054
286.06
286.059
286.065
286.064
286.071
286.067
286.077
286.072
286.083
286.074
286.09
286.077
286.095
286.082
286.098
286.796
286.798
286.803
286.805
286.807
286.813
286.813
286.819
286.82
286.826
286.827
286.833
286.834
286.842
286.84
286.851
286.848
286.861
286.854
286.872
286.862
286.882
286.87
286.891
287.521
287.524
287.53
287.525
287.541
287.53
287.548
287.54
287.552
287.552
287.558
287.563
287.566
287.575
287.574
287.587
287.584
287.6
287.594
287.615
287.605
287.629
287.618
287.643
288.211
288.215
288.215
288.224
288.219
288.234
288.225
288.243
288.234
288.25
288.247
288.259
288.26
288.271
288.271
288.285
288.284
288.301
288.297
288.318
288.311
288.337
288.326
288.356
288.866
288.868
288.875
288.871
288.885
288.876
288.895
288.885
288.903
288.899
288.91
288.915
288.92
288.931
288.933
288.947
288.947
288.966
288.963
288.986
288.98
289.008
288.998
289.031
289.488
289.493
289.492
289.501
289.497
289.512
289.503
289.522
289.514
289.532
289.529
289.543
289.545
289.558
289.56
289.576
289.577
289.596
289.594
289.619
289.614
289.644
289.63
289.673
290.079
290.081
290.086
290.085
290.095
290.092
290.105
290.102
290.115
290.117
290.126
290.133
290.14
290.151
290.155
290.171
290.173
290.193
290.193
290.219
290.213
290.246
290.237
290.275
290.639
290.643
290.642
290.651
290.649
290.66
290.658
290.671
290.67
290.683
290.685
290.697
290.701
290.715
290.719
290.736
290.739
290.76
290.76
290.786
290.783
290.816
290.809
290.845
291.171
291.172
291.178
291.177
291.186
291.185
291.195
291.198
291.205
291.213
291.219
291.229
291.235
291.249
291.254
291.271
291.275
291.296
291.298
291.325
291.321
291.356
291.348
291.389
291.674
291.679
291.677
291.687
291.683
291.696
291.694
291.705
291.708
291.718
291.724
291.734
291.741
291.754
291.76
291.778
291.782
291.804
291.806
291.834
291.831
291.867
291.859
291.9
292.153
292.154
292.159
292.157
292.168
292.166
292.177
292.18
292.187
292.196
292.202
292.213
292.22
292.234
292.24
292.258
292.263
292.285
292.288
292.316
292.314
292.35
292.343
292.385
292.605
292.608
292.608
292.616
292.613
292.625
292.624
292.636
292.638
292.649
292.655
292.667
292.673
292.687
292.694
292.713
292.718
292.741
292.743
292.772
292.771
292.807
292.8
292.845
293.034
293.036
293.039
293.041
293.047
293.049
293.057
293.061
293.069
293.077
293.085
293.096
293.103
293.117
293.125
293.143
293.148
293.171
293.175
293.204
293.204
293.239
293.234
293.277
293.44
293.442
293.445
293.447
293.453
293.456
293.462
293.469
293.474
293.485
293.49
293.503
293.509
293.524
293.532
293.55
293.556
293.579
293.583
293.612
293.613
293.648
293.642
293.688
293.825
293.828
293.828
293.835
293.833
293.844
293.844
293.855
293.859
293.869
293.875
293.887
293.895
293.909
293.917
293.936
293.941
293.965
293.969
293.998
293.999
294.034
294.03
294.073
294.19
294.191
294.196
294.194
294.205
294.201
294.215
294.214
294.226
294.232
294.241
294.251
294.259
294.274
294.282
294.3
294.306
294.33
294.334
294.363
294.364
294.4
294.394
294.44
294.535
294.538
294.536
294.546
294.541
294.556
294.55
294.567
294.565
294.581
294.583
294.598
294.604
294.619
294.627
294.645
294.651
294.675
294.679
294.708
294.709
294.745
294.74
294.784
294.862
294.862
294.868
294.865
294.877
294.871
294.888
294.883
294.9
294.901
294.913
294.922
294.931
294.945
294.953
294.972
294.978
295.001
295.005
295.035
295.035
295.072
295.066
295.111
295.171
295.175
295.172
295.183
295.175
295.193
295.184
295.204
295.2
295.217
295.218
295.233
295.239
295.254
295.262
295.281
295.287
295.31
295.314
295.343
295.345
295.38
295.377
295.418
295.465
295.464
295.473
295.464
295.483
295.47
295.493
295.484
295.503
295.503
295.515
295.524
295.533
295.546
295.555
295.573
295.579
295.603
295.607
295.635
295.637
295.671
295.667
295.712
295.742
295.746
295.74
295.757
295.741
295.767
295.751
295.777
295.768
295.787
295.788
295.803
295.809
295.823
295.831
295.85
295.856
295.879
295.883
295.911
295.915
295.947
295.945
295.986
296.006
296.003
296.014
296.001
296.026
296.007
296.035
296.021
296.044
296.041
296.055
296.062
296.071
296.085
296.093
296.111
296.117
296.14
296.145
296.172
296.175
296.208
296.206
296.247
296.253
296.258
296.251
296.268
296.252
296.279
296.261
296.288
296.277
296.298
296.298
296.313
296.318
296.333
296.341
296.359
296.365
296.388
296.392
296.419
296.419
296.458
296.453
296.493
296.49
296.487
296.498
296.487
296.508
296.492
296.518
296.505
296.527
296.524
296.538
296.545
296.554
296.567
296.576
296.593
296.599
296.621
296.626
296.653
296.654
296.69
296.687
296.726
296.711
296.715
296.71
296.724
296.712
296.734
296.721
296.744
296.736
296.754
296.755
296.77
296.775
296.79
296.798
296.814
296.821
296.843
296.847
296.874
296.878
296.907
296.907
296.946
296.924
296.921
296.93
296.921
296.939
296.927
296.948
296.94
296.957
296.958
296.969
296.978
296.986
296.999
297.007
297.024
297.03
297.052
297.057
297.083
297.085
297.117
297.116
297.154
297.122
297.125
297.121
297.133
297.124
297.142
297.133
297.151
297.148
297.162
297.165
297.178
297.184
297.198
297.206
297.222
297.228
297.25
297.254
297.28
297.282
297.315
297.313
297.35
297.312
297.311
297.317
297.312
297.325
297.318
297.333
297.33
297.343
297.346
297.355
297.365
297.372
297.386
297.393
297.41
297.415
297.437
297.443
297.467
297.47
297.5
297.499
297.536
297.49
297.492
297.491
297.497
297.495
297.505
297.504
297.515
297.517
297.528
297.532
297.544
297.55
297.564
297.57
297.587
297.593
297.615
297.617
297.644
297.645
297.677
297.675
297.711
297.66
297.659
297.663
297.662
297.669
297.669
297.677
297.68
297.688
297.694
297.701
297.712
297.718
297.732
297.738
297.755
297.76
297.781
297.784
297.812
297.813
297.842
297.842
297.876
297.819
297.821
297.821
297.825
297.826
297.832
297.834
297.842
297.846
297.855
297.86
297.871
297.877
297.891
297.897
297.913
297.919
297.939
297.944
297.967
297.968
298.001
297.998
298.033
297.971
297.971
297.974
297.974
297.979
297.981
297.987
297.991
297.997
298.005
298.011
298.022
298.027
298.041
298.046
298.064
298.068
298.089
298.092
298.118
298.12
298.147
298.147
298.18
298.114
298.115
298.115
298.119
298.12
298.126
298.128
298.136
298.139
298.148
298.153
298.164
298.169
298.183
298.187
298.206
298.209
298.232
298.233
298.258
298.258
298.29
298.287
298.321
298.249
298.25
298.251
298.253
298.256
298.26
298.263
298.27
298.274
298.283
298.287
298.298
298.304
298.317
298.322
298.339
298.344
298.363
298.366
298.392
298.393
298.42
298.421
298.452
298.377
298.377
298.378
298.381
298.383
298.387
298.391
298.397
298.401
298.41
298.415
298.425
298.43
298.445
298.449
298.465
298.469
298.49
298.493
298.517
298.518
298.547
298.544
298.577
298.497
298.498
298.499
298.502
298.503
298.509
298.51
298.518
298.52
298.531
298.534
298.546
298.549
298.565
298.568
298.585
298.588
298.61
298.611
298.636
298.636
298.664
298.664
298.694
298.611
298.612
298.613
298.615
298.618
298.622
298.625
298.631
298.635
298.644
298.647
298.659
298.663
298.677
298.68
298.698
298.701
298.721
298.723
298.748
298.748
298.776
298.774
298.805
298.719
298.72
298.72
298.723
298.725
298.73
298.732
298.739
298.742
298.751
298.754
298.766
298.769
298.784
298.787
298.804
298.807
298.828
298.829
298.853
298.854
298.88
298.88
298.909
298.82
298.821
298.821
298.825
298.825
298.832
298.832
298.841
298.842
298.852
298.855
298.867
298.87
298.885
298.887
298.904
298.908
298.926
298.929
298.953
298.952
298.98
298.978
299.008
298.916
298.916
298.918
298.918
298.923
298.924
298.931
298.933
298.939
298.946
298.951
298.961
298.965
298.979
298.981
298.998
299.001
299.023
299.022
299.046
299.047
299.073
299.072
299.1
299.005
299.007
299.006
299.012
299.008
299.019
299.015
299.028
299.025
299.038
299.039
299.051
299.054
299.069
299.07
299.087
299.091
299.109
299.111
299.134
299.134
299.161
299.159
299.188
299.09
299.09
299.094
299.091
299.1
299.096
299.107
299.105
299.115
299.119
299.124
299.135
299.138
299.151
299.154
299.17
299.174
299.193
299.194
299.216
299.217
299.244
299.242
299.269
299.169
299.171
299.169
299.177
299.171
299.185
299.177
299.192
299.188
299.202
299.202
299.214
299.216
299.231
299.233
299.249
299.252
299.27
299.272
299.295
299.295
299.32
299.318
299.347
299.245
299.243
299.249
299.244
299.255
299.249
299.262
299.258
299.269
299.272
299.278
299.287
299.291
299.304
299.307
299.323
299.325
299.344
299.346
299.367
299.367
299.394
299.392
299.418
299.314
299.316
299.314
299.321
299.316
299.328
299.322
299.336
299.333
299.345
299.345
299.358
299.359
299.373
299.376
299.392
299.394
299.412
299.414
299.436
299.437
299.46