/*--------------------------------*- C++ -*----------------------------------*\
  =========                 |
  \\      /  F ield         | OpenFOAM: The Open Source CFD Toolbox
   \\    /   O peration     | Website:  https://openfoam.org
    \\  /    A nd           | Version:  10
     \\/     M anipulation  |
\*---------------------------------------------------------------------------*/
FoamFile
{
    format      ascii;
    class       volVectorField;
    location    "0.33";
    object      U;
}
// * * * * * * * * * * * * * * * * * * * * * * * * * * * * * * * * * * * * * //

dimensions      [0 1 -1 0 0 0 0];

internalField   nonuniform List<vector> 
4176
(
(497.488 -0.0141531 -5.4415e-09)
(497.474 0.0637412 1.67973e-09)
(497.45 0.0013879 -5.22868e-10)
(497.4 0.0904592 6.08815e-11)
(497.346 0.05097 -3.09773e-11)
(497.271 0.0896826 -5.48531e-10)
(497.181 0.125768 -4.90172e-10)
(497.088 0.060683 1.00768e-10)
(496.954 0.225089 4.97793e-10)
(496.848 0.0050587 5.66374e-10)
(496.672 0.344213 4.34667e-10)
(496.549 -0.0687743 4.15972e-10)
(496.339 0.46964 2.17027e-10)
(496.192 -0.13917 -1.77375e-10)
(495.956 0.567565 -3.75993e-10)
(495.773 -0.13531 -2.8184e-10)
(495.536 0.528144 -2.40058e-10)
(495.286 0.0239532 -3.2992e-11)
(495.073 0.334496 3.11053e-10)
(494.73 0.323223 1.89943e-10)
(494.576 -0.0174133 -1.30298e-10)
(494.097 0.772247 -1.75519e-10)
(494.067 -0.516334 8.00419e-11)
(493.444 1.44237 1.93029e-10)
(497.47 0.00492286 -5.44079e-09)
(497.455 0.114558 1.67993e-09)
(497.431 0.0764381 -5.23014e-10)
(497.379 0.203369 6.01609e-11)
(497.325 0.186217 -3.11193e-11)
(497.247 0.264412 -5.48306e-10)
(497.156 0.321668 -4.90904e-10)
(497.059 0.29578 1.00855e-10)
(496.924 0.482046 4.9846e-10)
(496.814 0.298175 5.66608e-10)
(496.636 0.662723 4.34254e-10)
(496.508 0.279038 4.15921e-10)
(496.293 0.850215 2.15432e-10)
(496.142 0.258704 -1.77292e-10)
(495.9 1.01227 -3.75833e-10)
(495.713 0.302379 -2.81351e-10)
(495.47 1.04191 -2.41211e-10)
(495.216 0.510998 -3.30929e-11)
(494.996 0.914035 3.10017e-10)
(494.646 0.855404 1.89543e-10)
(494.491 0.628181 -1.30257e-10)
(493.992 1.33119 -1.77866e-10)
(493.956 0.125039 8.08329e-11)
(493.27 1.99272 1.92618e-10)
(497.413 0.0232688 -5.44483e-09)
(497.399 0.161217 1.67908e-09)
(497.375 0.14761 -5.25011e-10)
(497.324 0.307712 6.11725e-11)
(497.273 0.313818 -3.15073e-11)
(497.194 0.426603 -5.49085e-10)
(497.108 0.50579 -4.88321e-10)
(497.011 0.515011 1.02666e-10)
(496.882 0.722765 5.00481e-10)
(496.772 0.572833 5.66951e-10)
(496.599 0.960499 4.33395e-10)
(496.473 0.606431 4.15152e-10)
(496.263 1.20601 2.17038e-10)
(496.116 0.634286 -1.77234e-10)
(495.877 1.42847 -3.76115e-10)
(495.697 0.714132 -2.8016e-10)
(495.455 1.52242 -2.43932e-10)
(495.209 0.966264 -3.46749e-11)
(494.993 1.45685 3.10666e-10)
(494.653 1.34405 1.89102e-10)
(494.506 1.24744 -1.31247e-10)
(494.016 1.88237 -1.75236e-10)
(493.981 0.83862 8.11321e-11)
(493.271 2.60884 1.93564e-10)
(497.309 0.0419999 -5.44376e-09)
(497.294 0.208724 1.68271e-09)
(497.271 0.2201 -5.25954e-10)
(497.22 0.41403 6.42283e-11)
(497.169 0.443783 -3.23527e-11)
(497.09 0.591959 -5.5355e-10)
(497.004 0.693349 -4.88368e-10)
(496.907 0.738644 1.00158e-10)
(496.777 0.967981 4.93809e-10)
(496.668 0.853143 5.70517e-10)
(496.494 1.26383 4.34429e-10)
(496.37 0.940779 4.13441e-10)
(496.158 1.56868 2.18559e-10)
(496.013 1.01847 -1.78826e-10)
(495.77 1.85335 -3.833e-10)
(495.593 1.13562 -2.81432e-10)
(495.346 2.01687 -2.4152e-10)
(495.097 1.4268 -3.50078e-11)
(494.891 2.00896 3.12981e-10)
(494.54 1.84087 1.88474e-10)
(494.399 1.85811 -1.34099e-10)
(493.915 2.4203 -1.76084e-10)
(493.886 1.52556 7.93692e-11)
(493.206 3.20556 1.84064e-10)
(497.157 0.0603277 -5.44648e-09)
(497.143 0.255249 1.68902e-09)
(497.12 0.291014 -5.22158e-10)
(497.069 0.518215 6.42269e-11)
(497.019 0.570915 -2.91696e-11)
(496.941 0.754126 -5.48254e-10)
(496.856 0.876822 -4.90454e-10)
(496.76 0.958193 1.02326e-10)
(496.632 1.20786 4.9941e-10)
(496.524 1.12863 5.68583e-10)
(496.351 1.56063 4.34748e-10)
(496.229 1.26957 4.16388e-10)
(496.018 1.92394 2.15122e-10)
(495.876 1.39621 -1.79812e-10)
(495.633 2.27107 -3.81438e-10)
(495.461 1.55031 -2.83992e-10)
(495.211 2.51222 -2.4263e-10)
(494.967 1.86999 -3.42018e-11)
(494.764 2.55399 3.07517e-10)
(494.411 2.33873 1.94236e-10)
(494.271 2.45264 -1.26379e-10)
(493.793 2.94616 -1.73161e-10)
(493.763 2.16811 8.29661e-11)
(493.103 3.76342 1.94859e-10)
(496.957 0.0786478 -5.45982e-09)
(496.942 0.301478 1.68683e-09)
(496.92 0.361774 -5.20707e-10)
(496.869 0.621815 5.95821e-11)
(496.819 0.69774 -4.04439e-11)
(496.742 0.915437 -5.53397e-10)
(496.658 1.05986 -4.88148e-10)
(496.561 1.17669 9.8382e-11)
(496.435 1.44716 5.00155e-10)
(496.327 1.40303 5.74128e-10)
(496.157 1.85654 4.35187e-10)
(496.035 1.59754 4.1072e-10)
(495.825 2.2776 2.12403e-10)
(495.685 1.77385 -1.77484e-10)
(495.442 2.68548 -3.84563e-10)
(495.274 1.96927 -2.8147e-10)
(495.018 3.00286 -2.32125e-10)
(494.787 2.31288 -3.131e-11)
(494.57 3.10351 3.17347e-10)
(494.229 2.83548 1.96358e-10)
(494.084 3.04894 -1.30663e-10)
(493.61 3.47423 -1.8393e-10)
(493.575 2.81493 7.97329e-11)
(492.914 4.32034 1.95116e-10)
(496.708 0.0967905 -5.45881e-09)
(496.693 0.347042 1.68411e-09)
(496.671 0.431742 -5.36822e-10)
(496.621 0.723974 5.96905e-11)
(496.572 0.82311 -2.58736e-11)
(496.495 1.07453 -5.52718e-10)
(496.412 1.24079 -4.99701e-10)
(496.316 1.39226 1.03023e-10)
(496.192 1.68372 5.06935e-10)
(496.084 1.67394 5.69542e-10)
(495.916 2.14901 4.32507e-10)
(495.795 1.92171 4.21796e-10)
(495.588 2.62686 2.28134e-10)
(495.448 2.14784 -1.75706e-10)
(495.208 3.09381 -3.80262e-10)
(495.043 2.38656 -2.78246e-10)
(494.785 3.48248 -2.416e-10)
(494.565 2.75756 -3.6914e-11)
(494.337 3.65094 3.11855e-10)
(494.01 3.32033 1.93866e-10)
(493.859 3.64412 -1.32145e-10)
(493.392 4.00184 -1.8404e-10)
(493.352 3.47146 8.20543e-11)
(492.693 4.8826 2.00188e-10)
(496.411 0.114796 -5.47503e-09)
(496.396 0.39214 1.69437e-09)
(496.374 0.501087 -5.16587e-10)
(496.324 0.825114 6.31905e-11)
(496.276 0.947309 -3.88526e-11)
(496.199 1.23203 -5.50025e-10)
(496.118 1.41998 -4.83371e-10)
(496.022 1.60567 1.01903e-10)
(495.899 1.91794 4.88931e-10)
(495.793 1.94223 5.67341e-10)
(495.626 2.43855 4.43536e-10)
(495.506 2.24299 4.1618e-10)
(495.301 2.97252 2.02486e-10)
(495.164 2.51887 -1.8451e-10)
(494.924 3.49763 -3.73373e-10)
(494.763 2.80134 -2.86407e-10)
(494.504 3.95471 -2.37974e-10)
(494.292 3.19984 -2.03053e-11)
(494.058 4.19372 3.15726e-10)
(493.742 3.80073 1.79142e-10)
(493.586 4.23747 -1.32414e-10)
(493.126 4.52464 -1.67966e-10)
(493.083 4.12268 7.95597e-11)
(492.431 5.43765 1.77022e-10)
(496.065 0.132619 -5.48766e-09)
(496.051 0.436681 1.68088e-09)
(496.029 0.569648 -5.38722e-10)
(495.979 0.925024 5.10103e-11)
(495.932 1.07005 -3.91075e-11)
(495.855 1.38759 -5.58625e-10)
(495.775 1.59699 -4.98893e-10)
(495.68 1.81643 9.89155e-11)
(495.559 2.14924 4.9584e-10)
(495.454 2.20724 5.64551e-10)
(495.289 2.72441 4.31906e-10)
(495.17 2.5605 4.14787e-10)
(494.967 3.31371 2.10803e-10)
(494.832 2.8859 -1.83418e-10)
(494.593 3.89602 -3.80267e-10)
(494.436 3.21229 -2.83417e-10)
(494.177 4.41845 -2.42265e-10)
(493.973 3.63915 -3.12604e-11)
(493.734 4.72969 3.12313e-10)
(493.43 4.27442 1.85985e-10)
(493.268 4.82831 -1.34475e-10)
(492.817 5.04276 -1.79088e-10)
(492.77 4.76947 8.13553e-11)
(492.127 5.98607 1.93424e-10)
(495.671 0.150258 -5.47261e-09)
(495.656 0.480676 1.71e-09)
(495.635 0.637421 -5.20158e-10)
(495.585 1.02373 7.41674e-11)
(495.539 1.19133 -2.07097e-11)
(495.463 1.54124 -5.4191e-10)
(495.384 1.77182 -4.82147e-10)
(495.29 2.02457 1.16479e-10)
(495.17 2.37759 5.14648e-10)
(495.066 2.46892 5.81591e-10)
(494.903 3.0065 4.50422e-10)
(494.787 2.87411 4.30665e-10)
(494.585 3.65031 2.29249e-10)
(494.453 3.24868 -1.70964e-10)
(494.215 4.28888 -3.66807e-10)
(494.062 3.61911 -2.72746e-10)
(493.803 4.87406 -2.28449e-10)
(493.607 4.0747 -2.02454e-11)
(493.364 5.25812 3.26234e-10)
(493.071 4.74191 1.97529e-10)
(492.903 5.41448 -1.22448e-10)
(492.464 5.55424 -1.66975e-10)
(492.412 5.41008 9.08646e-11)
(491.779 6.52613 2.02641e-10)
(495.228 0.167686 -5.49454e-09)
(495.214 0.524068 1.69902e-09)
(495.193 0.704308 -5.30085e-10)
(495.144 1.12111 6.66709e-11)
(495.098 1.31099 -2.76888e-11)
(495.023 1.69284 -5.50313e-10)
(494.945 1.94427 -4.87442e-10)
(494.852 2.22988 1.14973e-10)
(494.734 2.60272 5.13373e-10)
(494.631 2.72699 5.80261e-10)
(494.47 3.28447 4.50964e-10)
(494.355 3.1834 4.33248e-10)
(494.155 3.98186 2.3177e-10)
(494.026 3.60665 -1.69487e-10)
(493.79 4.67572 -3.62368e-10)
(493.641 4.02107 -2.66808e-10)
(493.382 5.32143 -2.20965e-10)
(493.194 4.50598 -1.39575e-11)
(492.947 5.77827 3.36734e-10)
(492.666 5.20392 2.08237e-10)
(492.492 5.99301 -1.3425e-10)
(492.065 6.0567 -2.00922e-10)
(492.009 6.04517 6.17319e-11)
(491.387 7.05744 1.71585e-10)
(494.737 0.18488 -5.50415e-09)
(494.723 0.566816 1.7023e-09)
(494.702 0.770233 -5.3365e-10)
(494.653 1.21707 6.12146e-11)
(494.608 1.42893 -3.30026e-11)
(494.534 1.84225 -5.56712e-10)
(494.457 2.1142 -4.95728e-10)
(494.365 2.43222 1.05357e-10)
(494.249 2.82448 5.03928e-10)
(494.147 2.98128 5.71236e-10)
(493.988 3.55814 4.40721e-10)
(493.875 3.48811 4.241e-10)
(493.678 4.30807 2.2067e-10)
(493.551 3.95938 -1.79474e-10)
(493.318 5.05615 -3.77226e-10)
(493.172 4.41758 -2.80572e-10)
(492.914 5.76059 -2.38077e-10)
(492.733 4.9326 -2.72308e-11)
(492.483 6.28935 3.18336e-10)
(492.214 5.65814 1.89722e-10)
(492.035 6.56443 -1.29448e-10)
(491.62 6.55086 -1.71658e-10)
(491.561 6.67211 8.78007e-11)
(490.95 7.57929 1.98163e-10)
(494.197 0.201813 -5.51453e-09)
(494.183 0.60886 1.70259e-09)
(494.162 0.835096 -5.40205e-10)
(494.114 1.31149 5.5275e-11)
(494.07 1.54496 -4.15581e-11)
(493.997 1.98929 -5.6953e-10)
(493.921 2.28139 -5.1044e-10)
(493.83 2.63138 8.91318e-11)
(493.715 3.04264 4.87714e-10)
(493.615 3.23155 5.53011e-10)
(493.459 3.82723 4.14778e-10)
(493.348 3.78795 3.98081e-10)
(493.152 4.62862 1.87556e-10)
(493.029 4.30646 -1.85361e-10)
(492.798 5.42973 -3.53631e-10)
(492.656 4.80793 -2.63335e-10)
(492.4 6.19142 -2.19928e-10)
(492.225 5.35417 -1.47425e-11)
(491.973 6.79082 3.30958e-10)
(491.716 6.10478 1.99991e-10)
(491.532 7.12693 -1.2144e-10)
(491.13 7.0349 -1.66523e-10)
(491.068 7.29053 9.32562e-11)
(490.468 8.09128 2.01428e-10)
(493.608 0.218461 -5.51704e-09)
(493.594 0.650148 1.72782e-09)
(493.574 0.898805 -5.41759e-10)
(493.526 1.40425 3.59749e-11)
(493.483 1.65893 -4.48109e-11)
(493.411 2.13379 -5.61236e-10)
(493.336 2.44564 -4.89629e-10)
(493.247 2.82713 1.2699e-10)
(493.134 3.25694 5.07903e-10)
(493.036 3.47756 5.54113e-10)
(492.881 4.0915 4.28176e-10)
(492.772 4.08265 4.21652e-10)
(492.579 4.94324 2.2965e-10)
(492.459 4.64753 -1.66537e-10)
(492.23 5.7961 -3.87103e-10)
(492.093 5.19163 -3.04322e-10)
(491.838 6.61349 -2.56271e-10)
(491.67 5.77012 -3.32506e-11)
(491.416 7.28217 3.25317e-10)
(491.17 6.54315 2.05621e-10)
(490.983 7.68005 -1.33948e-10)
(490.593 7.50803 -1.95409e-10)
(490.529 7.89887 7.65619e-11)
(489.942 8.59282 1.98839e-10)
(492.97 0.234801 -5.54271e-09)
(492.956 0.690631 1.69027e-09)
(492.937 0.961273 -5.33618e-10)
(492.889 1.49522 9.26167e-11)
(492.847 1.77068 -1.93945e-11)
(492.776 2.27552 -5.59084e-10)
(492.703 2.60668 -5.10009e-10)
(492.615 3.01919 8.16565e-11)
(492.504 3.46709 5.06081e-10)
(492.407 3.71899 5.96894e-10)
(492.255 4.35063 4.49389e-10)
(492.149 4.37188 4.16028e-10)
(491.958 5.25161 1.95054e-10)
(491.841 4.98223 -1.88543e-10)
(491.615 6.15494 -3.63352e-10)
(491.482 5.5682 -2.75252e-10)
(491.23 7.02636 -2.45994e-10)
(491.068 6.17971 -4.44769e-11)
(490.813 7.76282 2.84781e-10)
(490.579 6.97296 1.76449e-10)
(490.387 8.22342 -1.21145e-10)
(490.011 7.96939 -1.71187e-10)
(489.944 8.4959 7.68912e-11)
(489.37 9.0834 1.73687e-10)
(492.283 0.250812 -5.53898e-09)
(492.269 0.730265 1.74262e-09)
(492.25 1.02242 -5.41755e-10)
(492.203 1.58429 3.29155e-11)
(492.162 1.88004 -4.70827e-11)
(492.092 2.4143 -5.60407e-10)
(492.02 2.76427 -4.82414e-10)
(491.934 3.20727 1.35633e-10)
(491.825 3.67275 5.112e-10)
(491.73 3.95547 5.56903e-10)
(491.58 4.60425 4.35622e-10)
(491.477 4.65526 4.30061e-10)
(491.289 5.5534 2.393e-10)
(491.175 5.31022 -1.9256e-10)
(490.952 6.50591 -4.20147e-10)
(490.824 5.93722 -3.00747e-10)
(490.573 7.42968 -2.46297e-10)
(490.419 6.58211 -1.9408e-11)
(490.164 8.23197 3.40919e-10)
(489.941 7.39396 1.82898e-10)
(489.745 8.75635 -1.60283e-10)
(489.383 8.41868 -1.84444e-10)
(489.313 9.08102 9.04517e-11)
(488.753 9.56231 2.11422e-10)
(491.546 0.266472 -5.56574e-09)
(491.533 0.769004 1.70826e-09)
(491.514 1.08217 -5.60937e-10)
(491.468 1.67136 2.91331e-11)
(491.428 1.98685 -3.6715e-11)
(491.358 2.54993 -5.34773e-10)
(491.288 2.91816 -4.79225e-10)
(491.204 3.39107 1.17857e-10)
(491.097 3.87357 5.09118e-10)
(491.005 4.18662 5.69164e-10)
(490.858 4.85195 4.24949e-10)
(490.757 4.93237 3.98747e-10)
(490.572 5.84818 2.19709e-10)
(490.462 5.63107 -1.62363e-10)
(490.241 6.84867 -3.69971e-10)
(490.118 6.29828 -2.77473e-10)
(489.87 7.82318 -2.42651e-10)
(489.722 6.9765 -3.56417e-11)
(489.467 8.68883 2.98951e-10)
(489.256 7.80579 1.59683e-10)
(489.057 9.27734 -1.72075e-10)
(488.71 8.85656 -1.81264e-10)
(488.635 9.65467 1.08575e-10)
(488.091 10.0282 2.08372e-10)
(490.76 0.281758 -5.57074e-09)
(490.746 0.806795 1.73561e-09)
(490.728 1.14043 -5.28258e-10)
(490.683 1.75629 8.40314e-11)
(490.644 2.09097 -1.36765e-11)
(490.576 2.68221 -5.40231e-10)
(490.508 3.0681 -4.72042e-10)
(490.425 3.5703 1.4276e-10)
(490.32 4.06921 5.50892e-10)
(490.23 4.41204 5.82147e-10)
(490.086 5.09327 4.09494e-10)
(489.988 5.2027 3.9559e-10)
(489.806 6.13547 1.86745e-10)
(489.7 5.94427 -2.14639e-10)
(489.483 7.1828 -4.12587e-10)
(489.364 6.65097 -3.0284e-10)
(489.119 8.20661 -2.59686e-10)
(488.978 7.36211 -3.88973e-11)
(488.724 9.13271 3.12332e-10)
(488.524 8.20817 1.88031e-10)
(488.322 9.78596 -1.28772e-10)
(487.99 9.2826 -1.67006e-10)
(487.91 10.216 9.76469e-11)
(487.382 10.4807 2.12635e-10)
(489.924 0.29664 -5.59094e-09)
(489.91 0.843574 1.72582e-09)
(489.893 1.19711 -5.50005e-10)
(489.848 1.83895 5.78501e-11)
(489.81 2.1922 -4.67291e-11)
(489.743 2.81093 -5.84725e-10)
(489.677 3.21384 -5.18587e-10)
(489.596 3.74467 9.34808e-11)
(489.494 4.25932 4.93679e-10)
(489.407 4.63134 5.5897e-10)
(489.265 5.3278 4.2312e-10)
(489.171 5.46578 4.00322e-10)
(488.992 6.41475 1.82423e-10)
(488.89 6.24927 -2.23411e-10)
(488.676 7.50775 -4.31207e-10)
(488.563 6.99473 -3.25916e-10)
(488.321 8.57953 -2.47052e-10)
(488.186 7.73845 2.20085e-12)
(487.934 9.56319 3.52556e-10)
(487.745 8.60069 2.14289e-10)
(487.541 10.2817 -1.08189e-10)
(487.223 9.69648 -1.55846e-10)
(487.14 10.7645 1.06081e-10)
(486.628 10.9192 2.17098e-10)
(489.037 0.311084 -5.62118e-09)
(489.024 0.879264 1.74093e-09)
(489.007 1.25207 -5.22112e-10)
(488.963 1.91918 6.28437e-11)
(488.926 2.29035 -2.12629e-11)
(488.861 2.93586 -5.36685e-10)
(488.797 3.35512 -4.97609e-10)
(488.718 3.9139 9.01311e-11)
(488.618 4.44358 5.13026e-10)
(488.534 4.84416 5.99171e-10)
(488.395 5.5551 4.375e-10)
(488.304 5.72112 4.3048e-10)
(488.13 6.68551 2.32358e-10)
(488.031 6.54548 -2.04019e-10)
(487.821 7.82296 -3.86725e-10)
(487.713 7.32894 -2.66479e-10)
(487.475 8.94139 -2.52061e-10)
(487.347 8.10494 -6.00058e-11)
(487.097 9.97987 3.03327e-10)
(486.919 8.98293 1.87245e-10)
(486.712 10.7641 -1.61794e-10)
(486.41 10.0979 -1.84003e-10)
(486.322 11.2994 9.39085e-11)
(485.828 11.3434 1.80732e-10)
(488.1 0.325051 -5.61615e-09)
(488.087 0.913775 1.75678e-09)
(488.071 1.30518 -5.23846e-10)
(488.028 1.99679 9.74226e-11)
(487.992 2.3852 -3.36458e-12)
(487.929 3.05675 -5.76021e-10)
(487.866 3.49165 -5.44327e-10)
(487.79 4.07768 8.19563e-11)
(487.693 4.62167 4.96254e-10)
(487.611 5.05015 5.69245e-10)
(487.476 5.77479 4.38458e-10)
(487.389 5.9683 4.2686e-10)
(487.218 6.94726 2.23059e-10)
(487.124 6.83233 -1.79306e-10)
(486.918 8.12783 -3.68902e-10)
(486.816 7.65291 -2.62673e-10)
(486.581 9.29162 -2.14065e-10)
(486.46 8.4609 -3.52395e-11)
(486.213 10.3824 2.75618e-10)
(486.046 9.35454 1.54843e-10)
(485.837 11.2323 -1.62388e-10)
(485.55 10.4865 -1.96812e-10)
(485.458 11.8203 6.76973e-11)
(484.981 11.7527 1.89823e-10)
(487.113 0.3385 -5.65121e-09)
(487.1 0.947015 1.71394e-09)
(487.084 1.35628 -5.48823e-10)
(487.042 2.07159 9.78876e-11)
(487.008 2.4765 -2.71015e-11)
(486.946 3.17331 -5.77741e-10)
(486.886 3.62314 -5.21543e-10)
(486.812 4.2357 1.26421e-10)
(486.718 4.79324 5.6099e-10)
(486.639 5.24897 6.08634e-10)
(486.508 5.98651 4.54126e-10)
(486.424 6.20692 4.13962e-10)
(486.257 7.19956 1.78816e-10)
(486.168 7.10932 -2.02824e-10)
(485.966 8.42181 -3.75015e-10)
(485.869 7.96599 -2.84934e-10)
(485.638 9.62957 -2.59298e-10)
(485.525 8.80553 -5.65419e-11)
(485.281 10.7704 3.2128e-10)
(485.125 9.71514 2.10374e-10)
(484.914 11.6856 -1.28962e-10)
(484.644 10.8618 -1.88533e-10)
(484.548 12.3267 5.41275e-11)
(484.089 12.1469 1.9484e-10)
(486.075 0.351393 -5.66961e-09)
(486.062 0.978898 1.71992e-09)
(486.047 1.40524 -5.50763e-10)
(486.006 2.14338 1.03653e-10)
(485.973 2.56401 -1.74068e-11)
(485.913 3.28529 -5.743e-10)
(485.855 3.74926 -5.22544e-10)
(485.784 4.38762 7.74322e-11)
(485.692 4.95795 5.12966e-10)
(485.617 5.44025 6.15325e-10)
(485.489 6.18988 4.65375e-10)
(485.409 6.4366 4.24465e-10)
(485.247 7.44201 1.89109e-10)
(485.162 7.37601 -1.9465e-10)
(484.965 8.7044 -3.65798e-10)
(484.874 8.26757 -2.80759e-10)
(484.648 9.95459 -2.5453e-10)
(484.542 9.13795 -4.737e-11)
(484.301 11.1435 3.32513e-10)
(484.156 10.0643 2.19577e-10)
(483.944 12.1229 -1.1933e-10)
(483.69 11.2233 -1.79957e-10)
(483.59 12.8179 6.91306e-11)
(483.15 12.5255 1.67944e-10)
(484.985 0.363699 -5.69473e-09)
(484.973 1.00935 1.76625e-09)
(484.959 1.45193 -5.27401e-10)
(484.919 2.21199 6.03221e-11)
(484.888 2.64752 -7.34952e-11)
(484.829 3.3924 -5.92254e-10)
(484.774 3.86972 -4.97881e-10)
(484.705 4.53311 9.42497e-11)
(484.617 5.11542 5.20066e-10)
(484.545 5.62362 6.07037e-10)
(484.421 6.38451 4.40385e-10)
(484.345 6.65695 4.40362e-10)
(484.187 7.67421 2.47581e-10)
(484.107 7.63199 -2.00652e-10)
(483.915 8.97519 -4.36406e-10)
(483.83 8.55717 -3.05027e-10)
(483.608 10.2662 -2.38828e-10)
(483.51 9.45749 -4.24711e-11)
(483.273 11.5013 3.28102e-10)
(483.138 10.4015 2.06096e-10)
(482.927 12.5433 -1.46157e-10)
(482.689 11.5701 -1.66342e-10)
(482.586 13.2931 1.20406e-10)
(482.164 12.888 2.01751e-10)
(483.845 0.375395 -5.68184e-09)
(483.833 1.03832 1.79618e-09)
(483.819 1.49628 -5.13841e-10)
(483.78 2.2773 7.21239e-11)
(483.751 2.72684 -6.8639e-11)
(483.695 3.49444 -5.94505e-10)
(483.642 3.98424 -5.04199e-10)
(483.575 4.67184 1.38661e-10)
(483.491 5.2653 5.599e-10)
(483.422 5.79869 5.88053e-10)
(483.302 6.57 4.14341e-10)
(483.231 6.86757 4.10385e-10)
(483.077 7.89577 2.09472e-10)
(483.003 7.87686 -1.918e-10)
(482.815 9.23378 -3.77041e-10)
(482.737 8.83434 -2.56161e-10)
(482.52 10.5639 -2.50126e-10)
(482.43 9.7636 -6.15208e-11)
(482.197 11.8432 3.01415e-10)
(482.073 10.726 1.77825e-10)
(481.861 12.9462 -1.30425e-10)
(481.64 11.9014 -1.56992e-10)
(481.534 13.751 1.26296e-10)
(481.132 13.2338 2.02316e-10)
(482.654 0.386464 -5.69532e-09)
(482.641 1.06577 1.77195e-09)
(482.629 1.5382 -5.75134e-10)
(482.591 2.33921 8.43392e-11)
(482.563 2.80185 -4.20795e-11)
(482.509 3.59121 -6.0236e-10)
(482.459 4.09259 -4.8882e-10)
(482.395 4.80353 1.17799e-10)
(482.314 5.40724 5.01186e-10)
(482.249 5.96509 6.06443e-10)
(482.133 6.74593 4.54683e-10)
(482.066 7.06804 4.11417e-10)
(481.917 8.10626 2.32169e-10)
(481.848 8.11023 -2.03361e-10)
(481.666 9.47977 -4.29814e-10)
(481.594 9.0987 -2.87166e-10)
(481.382 10.8473 -2.61747e-10)
(481.3 10.0558 -5.13256e-11)
(481.071 12.1687 3.31265e-10)
(480.958 11.0371 1.73134e-10)
(480.747 13.331 -1.70782e-10)
(480.543 12.2164 -1.77112e-10)
(480.434 14.1901 6.68062e-11)
(480.052 13.5625 1.67645e-10)
(481.411 0.396898 -5.77325e-09)
(481.399 1.09167 1.75328e-09)
(481.387 1.57767 -5.77368e-10)
(481.351 2.39765 5.48675e-11)
(481.325 2.87245 -4.21974e-11)
(481.272 3.68259 -5.81214e-10)
(481.225 4.19457 -5.01148e-10)
(481.164 4.92795 1.36371e-10)
(481.086 5.54096 5.49071e-10)
(481.025 6.12247 6.19811e-10)
(480.914 6.91191 4.90672e-10)
(480.851 7.25794 4.18047e-10)
(480.707 8.30522 2.03252e-10)
(480.644 8.33164 -2.10132e-10)
(480.466 9.71274 -4.08045e-10)
(480.401 9.34985 -2.92893e-10)
(480.195 11.1161 -2.44598e-10)
(480.12 10.3336 -1.49472e-11)
(479.897 12.4776 3.44304e-10)
(479.794 11.3341 2.03762e-10)
(479.585 13.697 -1.71586e-10)
(479.397 12.5148 -2.0289e-10)
(479.286 14.6101 6.75188e-11)
(478.924 13.8737 1.83868e-10)
(480.117 0.406683 -5.75208e-09)
(480.105 1.116 1.8126e-09)
(480.094 1.61464 -5.22534e-10)
(480.059 2.45256 6.76653e-11)
(480.035 2.93856 -7.67797e-11)
(479.984 3.76847 -6.13423e-10)
(479.939 4.29007 -5.19568e-10)
(479.882 5.04494 1.31687e-10)
(479.808 5.66623 5.51309e-10)
(479.75 6.27056 6.3357e-10)
(479.643 7.0676 4.5671e-10)
(479.586 7.43687 3.96321e-10)
(479.446 8.49223 1.91411e-10)
(479.389 8.54064 -2.16981e-10)
(479.217 9.93226 -4.03697e-10)
(479.158 9.58734 -2.77197e-10)
(478.957 11.3699 -2.14992e-10)
(478.892 10.5967 2.2586e-11)
(478.673 12.7695 3.33806e-10)
(478.581 11.6161 1.5182e-10)
(478.374 14.043 -1.60229e-10)
(478.203 12.7968 -1.82294e-10)
(478.089 15.0119 1.03164e-10)
(477.747 14.168 2.324e-10)
(478.771 0.415808 -5.75964e-09)
(478.76 1.13873 1.7869e-09)
(478.75 1.64906 -6.00455e-10)
(478.716 2.50389 6.16292e-11)
(478.693 3.00011 -6.51668e-12)
(478.645 3.84877 -5.78588e-10)
(478.603 4.37899 -5.32716e-10)
(478.548 5.15436 1.33064e-10)
(478.478 5.7829 5.17723e-10)
(478.425 6.40915 5.58342e-10)
(478.322 7.21272 4.58069e-10)
(478.269 7.60451 4.67368e-10)
(478.135 8.66688 2.16189e-10)
(478.083 8.73679 -2.29741e-10)
(477.917 10.1378 -3.99157e-10)
(477.866 9.81069 -2.55355e-10)
(477.67 11.6083 -2.40076e-10)
(477.613 10.8446 -4.24972e-11)
(477.399 13.0441 3.47917e-10)
(477.318 11.8823 1.7883e-10)
(477.115 14.368 -1.79639e-10)
(476.96 13.0624 -1.88049e-10)
(476.843 15.3944 1.15706e-10)
(476.523 14.4439 2.05943e-10)
(477.375 0.424256 -5.84105e-09)
(477.363 1.15982 1.76681e-09)
(477.354 1.68088 -5.90624e-10)
(477.321 2.55156 4.91211e-11)
(477.301 3.05701 -5.49677e-11)
(477.255 3.92341 -6.0603e-10)
(477.215 4.46122 -5.21969e-10)
(477.163 5.25613 1.21994e-10)
(477.097 5.89085 5.32499e-10)
(477.047 6.53813 5.96906e-10)
(476.949 7.3471 4.65646e-10)
(476.902 7.76062 4.50755e-10)
(476.773 8.82885 2.2912e-10)
(476.727 8.91969 -1.96066e-10)
(476.567 10.329 -3.94324e-10)
(476.522 10.0194 -2.78675e-10)
(476.333 11.8307 -2.33916e-10)
(476.284 11.0768 -8.45375e-12)
(476.076 13.3011 3.55961e-10)
(476.005 12.1324 2.12229e-10)
(475.805 14.6714 -1.10637e-10)
(475.668 13.3117 -2.10478e-10)
(475.548 15.7557 5.41796e-11)
(475.25 14.6993 1.78721e-10)
(475.926 0.43201 -5.78774e-09)
(475.915 1.17924 1.83739e-09)
(475.907 1.71005 -5.50656e-10)
(475.875 2.5955 8.92573e-11)
(475.856 3.1092 -2.454e-11)
(475.813 3.99229 -5.82528e-10)
(475.776 4.5367 -5.04597e-10)
(475.727 5.35017 1.36102e-10)
(475.664 5.99001 5.41364e-10)
(475.619 6.6574 5.99103e-10)
(475.525 7.47064 4.60722e-10)
(475.483 7.90509 4.33657e-10)
(475.359 8.97794 2.03816e-10)
(475.32 9.08908 -2.21431e-10)
(475.165 10.5054 -4.34625e-10)
(475.128 10.213 -3.26164e-10)
(474.945 12.0367 -2.86563e-10)
(474.905 11.2929 3.49135e-12)
(474.702 13.5402 3.57957e-10)
(474.642 12.366 2.0156e-10)
(474.446 14.9528 -1.23899e-10)
(474.325 13.5433 -1.71778e-10)
(474.204 16.096 9.28066e-11)
(473.927 14.9357 2.07821e-10)
(474.426 0.439056 -5.82752e-09)
(474.416 1.19695 1.81665e-09)
(474.408 1.73652 -5.90336e-10)
(474.378 2.63564 8.93962e-11)
(474.36 3.15658 -3.72437e-11)
(474.319 4.05533 -6.11429e-10)
(474.285 4.60531 -4.93226e-10)
(474.24 5.43638 1.31148e-10)
(474.18 6.08029 5.24599e-10)
(474.139 6.76692 6.26955e-10)
(474.05 7.58327 4.68658e-10)
(474.012 8.03786 4.28652e-10)
(473.894 9.11405 2.43091e-10)
(473.861 9.24483 -2.04373e-10)
(473.712 10.6667 -4.29944e-10)
(473.683 10.3912 -2.78926e-10)
(473.506 12.2258 -2.54122e-10)
(473.474 11.4921 -4.29294e-11)
(473.278 13.7606 3.59693e-10)
(473.229 12.5824 1.90389e-10)
(473.037 15.2124 -1.6439e-10)
(472.932 13.7571 -1.60596e-10)
(472.809 16.4146 9.37864e-11)
(472.555 15.1528 1.85641e-10)
(472.874 0.445386 -5.90191e-09)
(472.864 1.21294 1.82397e-09)
(472.857 1.76025 -5.54776e-10)
(472.828 2.67195 4.89838e-11)
(472.813 3.1991 -3.12058e-11)
(472.774 4.11245 -5.66665e-10)
(472.742 4.66699 -5.33276e-10)
(472.7 5.51468 1.39152e-10)
(472.645 6.1616 5.72812e-10)
(472.607 6.86661 5.90378e-10)
(472.523 7.68494 4.76642e-10)
(472.491 8.15891 4.80917e-10)
(472.377 9.23714 2.10313e-10)
(472.35 9.38692 -1.99518e-10)
(472.208 10.8129 -3.77997e-10)
(472.186 10.5537 -3.10078e-10)
(472.015 12.3977 -2.48059e-10)
(471.993 11.674 5.31353e-12)
(471.803 13.9619 3.27458e-10)
(471.764 12.7807 1.96638e-10)
(471.578 15.4505 -1.11058e-10)
(471.488 13.9544 -1.90164e-10)
(471.363 16.7099 1.01106e-10)
(471.132 15.349 2.33466e-10)
(471.271 0.451 -5.88823e-09)
(471.261 1.22721 1.86892e-09)
(471.255 1.78125 -5.24928e-10)
(471.227 2.7044 8.44395e-11)
(471.214 3.23675 -7.02431e-11)
(471.177 4.16362 -6.10211e-10)
(471.148 4.72167 -5.0189e-10)
(471.109 5.585 1.67466e-10)
(471.057 6.23388 6.02106e-10)
(471.024 6.95639 6.25899e-10)
(470.944 7.77557 4.37862e-10)
(470.917 8.26819 4.37148e-10)
(470.809 9.34719 2.37619e-10)
(470.788 9.51537 -1.75396e-10)
(470.652 10.944 -3.5915e-10)
(470.637 10.7007 -2.92216e-10)
(470.472 12.5521 -2.97114e-10)
(470.459 11.8384 -3.6975e-11)
(470.276 14.1436 3.42955e-10)
(470.248 12.96 2.09231e-10)
(470.068 15.6666 -9.10015e-11)
(469.992 14.1349 -1.79095e-10)
(469.867 16.9814 4.70435e-11)
(469.659 15.5241 1.86462e-10)
(469.616 0.455904 -5.97211e-09)
(469.606 1.23977 1.80202e-09)
(469.6 1.79955 -6.11972e-10)
(469.574 2.73303 3.55746e-11)
(469.563 3.26954 -7.07317e-11)
(469.528 4.20886 -6.33659e-10)
(469.502 4.76936 -5.49928e-10)
(469.466 5.64731 1.00579e-10)
(469.418 6.29705 5.17436e-10)
(469.389 7.03619 5.81192e-10)
(469.314 7.85506 4.39326e-10)
(469.292 8.36563 4.18734e-10)
(469.189 9.44412 1.90089e-10)
(469.174 9.63018 -2.41508e-10)
(469.044 11.0599 -4.50697e-10)
(469.036 10.8321 -3.31029e-10)
(468.878 12.6893 -2.90923e-10)
(468.874 11.9851 -5.52253e-11)
(468.697 14.3055 3.02717e-10)
(468.681 13.12 1.54922e-10)
(468.506 15.86 -1.82743e-10)
(468.445 14.298 -2.1595e-10)
(468.32 17.2287 5.45228e-11)
(468.135 15.6776 1.75203e-10)
(467.909 0.46011 -5.93158e-09)
(467.899 1.25065 1.84873e-09)
(467.894 1.81518 -6.01644e-10)
(467.869 2.75789 1.00411e-10)
(467.859 3.29753 -3.10368e-11)
(467.827 4.24821 -6.15246e-10)
(467.804 4.81008 -4.83908e-10)
(467.771 5.70164 1.50556e-10)
(467.727 6.35111 5.47333e-10)
(467.702 7.10595 6.58602e-10)
(467.631 7.92334 4.96113e-10)
(467.614 8.45111 4.46937e-10)
(467.517 9.52782 2.66853e-10)
(467.509 9.73125 -1.9048e-10)
(467.384 11.1606 -4.17417e-10)
(467.384 10.9481 -3.18929e-10)
(467.232 12.8092 -2.988e-10)
(467.237 12.1145 -1.70611e-11)
(467.066 14.4478 3.26053e-10)
(467.061 13.2604 1.55414e-10)
(466.892 16.0306 -1.33732e-10)
(466.846 14.4427 -1.92129e-10)
(466.722 17.4507 5.50894e-11)
(466.56 15.8097 2.19218e-10)
(466.149 0.463631 -5.94995e-09)
(466.14 1.25987 1.86489e-09)
(466.136 1.82819 -5.97866e-10)
(466.112 2.77903 1.08284e-10)
(466.104 3.3208 -2.4626e-11)
(466.074 4.28175 -6.10943e-10)
(466.054 4.84394 -4.78473e-10)
(466.024 5.74805 1.59172e-10)
(465.983 6.3961 5.56776e-10)
(465.962 7.1657 5.99115e-10)
(465.896 7.98037 4.35084e-10)
(465.885 8.52455 4.62014e-10)
(465.793 9.59815 2.11131e-10)
(465.791 9.81844 -2.45072e-10)
(465.672 11.246 -4.05193e-10)
(465.679 11.0485 -3.06779e-10)
(465.533 12.9119 -2.85643e-10)
(465.548 12.2266 -3.76753e-12)
(465.383 14.5707 3.42612e-10)
(465.389 13.3816 1.68433e-10)
(465.225 16.1786 -1.20383e-10)
(465.193 14.5675 -1.80649e-10)
(465.072 17.6458 7.6803e-11)
(464.933 15.9202 2.39008e-10)
(464.338 0.466476 -5.99441e-09)
(464.329 1.26747 1.92017e-09)
(464.326 1.83863 -5.73362e-10)
(464.303 2.79651 5.00136e-11)
(464.297 3.33942 -2.51558e-11)
(464.268 4.30957 -5.55884e-10)
(464.251 4.87101 -5.07501e-10)
(464.224 5.78663 1.11074e-10)
(464.188 6.43212 5.66439e-10)
(464.171 7.2155 6.64559e-10)
(464.109 8.02617 4.86039e-10)
(464.102 8.58596 4.29179e-10)
(464.016 9.65503 2.32819e-10)
(464.02 9.89163 -1.72424e-10)
(463.907 11.3158 -4.21125e-10)
(463.923 11.1331 -3.34052e-10)
(463.783 12.9971 -2.57662e-10)
(463.806 12.3215 9.72281e-12)
(463.647 14.6742 3.44884e-10)
(463.664 13.484 1.5625e-10)
(463.507 16.305 -1.50595e-10)
(463.488 14.6717 -1.62465e-10)
(463.371 17.8124 8.47744e-11)
(463.254 16.009 1.71008e-10)
(462.475 0.468653 -6.04818e-09)
(462.465 1.27346 1.85825e-09)
(462.463 1.84652 -6.09816e-10)
(462.442 2.81037 3.53297e-11)
(462.437 3.35345 -8.76032e-11)
(462.411 4.33173 -6.67673e-10)
(462.396 4.89137 -5.16199e-10)
(462.372 5.81749 2.05783e-10)
(462.339 6.45926 6.18633e-10)
(462.326 7.25546 6.74388e-10)
(462.269 8.06084 5.16277e-10)
(462.267 8.63539 4.79237e-10)
(462.186 9.69847 2.40519e-10)
(462.197 9.95077 -2.07724e-10)
(462.09 11.3699 -4.30104e-10)
(462.113 11.2018 -3.21609e-10)
(461.98 13.0645 -2.87743e-10)
(462.012 12.3987 -5.53405e-11)
(461.86 14.7582 2.95344e-10)
(461.888 13.5674 1.37346e-10)
(461.736 16.4098 -1.44521e-10)
(461.731 14.7558 -1.31081e-10)
(461.616 17.9507 1.44675e-10)
(461.523 16.0754 2.47918e-10)
(460.558 0.470162 -6.10267e-09)
(460.549 1.27784 1.87482e-09)
(460.548 1.85188 -5.78373e-10)
(460.528 2.82062 2.82516e-11)
(460.525 3.3629 -6.76524e-11)
(460.5 4.34827 -6.1892e-10)
(460.488 4.90508 -5.10908e-10)
(460.468 5.84068 1.71455e-10)
(460.438 6.4776 5.36542e-10)
(460.429 7.28568 6.20096e-10)
(460.376 8.08448 4.96691e-10)
(460.38 8.67296 4.17836e-10)
(460.304 9.72855 2.04669e-10)
(460.321 9.99591 -2.15983e-10)
(460.22 11.4083 -4.10136e-10)
(460.251 11.2544 -2.753e-10)
(460.124 13.1139 -2.81136e-10)
(460.166 12.458 -2.19916e-11)
(460.02 14.8222 3.64103e-10)
(460.059 13.6316 1.50556e-10)
(459.913 16.4929 -1.75859e-10)
(459.922 14.8204 -1.89265e-10)
(459.81 18.0614 1.07974e-10)
(459.738 16.12 2.3599e-10)
(458.589 0.471002 -6.05941e-09)
(458.581 1.28061 1.90758e-09)
(458.58 1.8547 -6.01831e-10)
(458.561 2.82726 4.35574e-11)
(458.56 3.36778 -8.21519e-11)
(458.537 4.35918 -5.99432e-10)
(458.528 4.91215 -5.33819e-10)