#           x            Ma
     0.086207      0.241077
     0.143678      0.241784
      0.20115       0.24249
     0.258621      0.243172
     0.316092      0.243888
     0.373564       0.24467
     0.431035       0.24553
     0.488507       0.24647
     0.545978      0.247496
     0.603449      0.248611
     0.660921      0.249822
     0.718392      0.251133
     0.775863      0.252547
     0.833334      0.254069
     0.890806      0.255702
     0.948277      0.257449
      1.00575      0.259314
      1.06322        0.2613
      1.12069      0.263408
      1.17816      0.265644
      1.23563      0.268009
       1.2931      0.270508
      1.35058      0.273142
      1.40805      0.275918
      1.46552      0.278836
      1.52299      0.281903
      1.58046       0.28512
      1.63793      0.288494
       1.6954      0.292027
      1.75287      0.295726
      1.81035      0.299593
      1.86782      0.303635
      1.92529      0.307856
      1.98276      0.312262
      2.04023      0.316858
       2.0977      0.321651
      2.15517      0.326646
      2.21264      0.331849
      2.27011      0.337267
      2.32758      0.342906
      2.38506      0.348774
      2.44253      0.354878
          2.5      0.361224
      2.55747       0.36782
      2.61494      0.374675
      2.67241      0.381795
      2.72988      0.389188
      2.78735      0.396863
      2.84482      0.404829
      2.90229      0.413094
      2.95977      0.421667
      3.01724      0.430555
      3.07471      0.439768
      3.13218      0.449314
      3.18965      0.459203
      3.24712      0.469442
      3.30459       0.48004
      3.36206      0.491006
      3.41953      0.502347
        3.477      0.514072
      3.53447      0.526187
      3.59195      0.538701
      3.64942       0.55162
      3.70689       0.56495
      3.76436      0.578695
      3.82183       0.59286
       3.8793      0.607449
      3.93677      0.622463
      3.99424      0.637903
      4.05171      0.653768
      4.10918      0.670057
      4.16666      0.686765
      4.22413      0.703886
       4.2816      0.721409
      4.33907      0.739325
      4.39654      0.757616
      4.45401      0.776263
      4.51148      0.795238
      4.56895      0.814512
      4.62643      0.834044
       4.6839      0.853783
      4.74137      0.873669
      4.79884      0.893625
      4.85631      0.913563
      4.91378      0.933376
      4.97125      0.952945
      5.02873      0.972147
       5.0862      0.990862
      5.14367       1.00899
      5.20114       1.02647
      5.25861       1.04328
      5.31608       1.05946
      5.37355        1.0751
      5.43103       1.09031
       5.4885       1.10523
      5.54597          1.12
      5.60344       1.13471
      5.66091       1.14945
      5.71838       1.16424
      5.77585       1.17909
      5.83333       1.19398
       5.8908       1.20888
      5.94827       1.22376
      6.00574       1.23859
      6.06321       1.25335
      6.12068       1.26803
      6.17815       1.28262
      6.23563       1.29713
       6.2931       1.31154
      6.35057       1.32587
      6.40804        1.3401
      6.46551       1.35424
      6.52298       1.36828
      6.58045       1.38222
      6.63793       1.39605
       6.6954       1.40978
      6.75287       1.42339
      6.81034       1.43688
      6.86781       1.45023
      6.92528       1.46345
      6.98275       1.47652
      7.04022       1.48944
       7.0977        1.5022
      7.15517        1.5148
      7.21264       1.52722
      7.27011       1.53946
      7.32758       1.55152
      7.38505       1.56339
      7.44252       1.57507
          7.5       1.58655
      7.55747       1.59782
      7.61494       1.60889
      7.67241       1.61975
      7.72988        1.6304
      7.78735       1.64083
      7.84482       1.65105
      7.90229       1.66104
      7.95977       1.67081
      8.01724       1.68035
      8.07471       1.68965
      8.13218       1.69872
      8.18965       1.70754
      8.24712       1.71612
      8.30459       1.72445
      8.36207       1.73252
      8.41954       1.74034
      8.47701        1.7479
      8.53448       1.75519
      8.59195       1.76222
      8.64942       1.76897
      8.70689       1.77545
      8.76437       1.78166
      8.82184       1.78757
      8.87931       1.79321
      8.93678       1.79857
      8.99425       1.80364
      9.05172       1.80842
      9.10919       1.81291
      9.16666       1.81712
      9.22414       1.82103
      9.28161       1.82465
      9.33908       1.82798
      9.39655       1.83101
      9.45402       1.83375
      9.51149        1.8362
      9.56896       1.83834
      9.62644       1.84019
      9.68391       1.84174
      9.74138       1.84299
      9.79885       1.84393
      9.85632       1.84458
      9.91379       1.84495