/*--------------------------------*- C++ -*----------------------------------*\
  =========                 |
  \\      /  F ield         | OpenFOAM: The Open Source CFD Toolbox
   \\    /   O peration     | Website:  https://openfoam.org
    \\  /    A nd           | Version:  10
     \\/     M anipulation  |
\*---------------------------------------------------------------------------*/
FoamFile
{
    format      ascii;
    class       volScalarField;
    location    "0.25";
    object      Ma;
}
// * * * * * * * * * * * * * * * * * * * * * * * * * * * * * * * * * * * * * //

dimensions      [0 0 0 0 0 0 0];

internalField   nonuniform List<scalar> 
4176
(
1.84513
1.84506
1.84486
1.84462
1.8442
1.84383
1.84318
1.84267
1.84179
1.84116
1.84005
1.83929
1.83799
1.83707
1.83562
1.83448
1.83302
1.83148
1.83016
1.82804
1.8271
1.82416
1.82398
1.82018
1.84502
1.84494
1.84474
1.8445
1.84407
1.84368
1.84302
1.84249
1.84161
1.84095
1.83983
1.83904
1.83771
1.83677
1.83528
1.83411
1.83262
1.83104
1.82969
1.82753
1.82658
1.82352
1.82329
1.81912
1.84466
1.84459
1.84439
1.84415
1.84374
1.84335
1.84272
1.84219
1.84134
1.84068
1.8396
1.83882
1.83753
1.83661
1.83514
1.83401
1.83253
1.831
1.82968
1.82758
1.82668
1.82368
1.82345
1.81915
1.84401
1.84394
1.84374
1.8435
1.84309
1.8427
1.84208
1.84155
1.8407
1.84004
1.83896
1.83819
1.83688
1.83597
1.83449
1.83337
1.83187
1.83032
1.82906
1.82689
1.82603
1.82307
1.82288
1.81877
1.84307
1.84299
1.8428
1.84256
1.84216
1.84177
1.84116
1.84063
1.83979
1.83915
1.83807
1.83731
1.83602
1.83513
1.83365
1.83256
1.83104
1.82952
1.82829
1.82611
1.82526
1.82234
1.82214
1.81817
1.84182
1.84174
1.84155
1.84132
1.84092
1.84054
1.83993
1.83941
1.83858
1.83793
1.83687
1.83611
1.83483
1.83395
1.83248
1.83141
1.82987
1.82842
1.82712
1.82501
1.82413
1.82124
1.821
1.81703
1.84027
1.84019
1.84001
1.83977
1.83938
1.839
1.8384
1.83789
1.83707
1.83643
1.83539
1.83463
1.83337
1.8325
1.83104
1.83
1.82845
1.82707
1.82571
1.82368
1.82277
1.81992
1.81966
1.81571
1.83842
1.83835
1.83816
1.83793
1.83754
1.83717
1.83658
1.83606
1.83526
1.83463
1.8336
1.83285
1.83161
1.83075
1.8293
1.82828
1.82674
1.8254
1.82402
1.82205
1.82112
1.81832
1.81804
1.81415
1.83627
1.8362
1.83602
1.83579
1.83541
1.83504
1.83445
1.83395
1.83316
1.83253
1.83152
1.83079
1.82955
1.82871
1.82728
1.82628
1.82475
1.82346
1.82205
1.82016
1.8192
1.81646
1.81616
1.81233
1.83383
1.83376
1.83358
1.83335
1.83298
1.83261
1.83204
1.83154
1.83076
1.83014
1.82915
1.82843
1.82721
1.82638
1.82497
1.82399
1.82247
1.82123
1.81981
1.81798
1.817
1.81433
1.81401
1.81024
1.83109
1.83102
1.83084
1.83062
1.83025
1.82989
1.82932
1.82884
1.82807
1.82746
1.82648
1.82578
1.82458
1.82377
1.82238
1.82142
1.81992
1.81871
1.81729
1.81553
1.81452
1.81193
1.81159
1.8079
1.82806
1.82799
1.82781
1.82759
1.82723
1.82688
1.82632
1.82584
1.82509
1.82449
1.82353
1.82284
1.82166
1.82087
1.8195
1.81857
1.81708
1.81591
1.81449
1.8128
1.81178
1.80925
1.80891
1.80529
1.82473
1.82466
1.82449
1.82427
1.82392
1.82357
1.82302
1.82255
1.82181
1.82123
1.82029
1.81961
1.81845
1.81768
1.81634
1.81543
1.81396
1.81284
1.81141
1.80979
1.80875
1.80631
1.80596
1.80241
1.82111
1.82104
1.82087
1.82066
1.82031
1.81997
1.81944
1.81898
1.81825
1.81769
1.81676
1.8161
1.81496
1.81421
1.81289
1.81201
1.81057
1.80948
1.80806
1.8065
1.80546
1.80309
1.80274
1.79927
1.81719
1.81712
1.81696
1.81675
1.81641
1.81608
1.81556
1.81511
1.8144
1.81385
1.81294
1.8123
1.81119
1.81046
1.80916
1.80831
1.80689
1.80584
1.80444
1.80294
1.8019
1.79961
1.79926
1.79587
1.81299
1.81292
1.81276
1.81256
1.81223
1.8119
1.81139
1.81096
1.81026
1.80973
1.80884
1.80822
1.80713
1.80642
1.80516
1.80433
1.80294
1.80193
1.80054
1.79911
1.79807
1.79586
1.79551
1.7922
1.80849
1.80843
1.80827
1.80808
1.80775
1.80744
1.80694
1.80652
1.80584
1.80532
1.80445
1.80385
1.80279
1.80211
1.80087
1.80008
1.79871
1.79774
1.79638
1.79501
1.79397
1.79184
1.79148
1.78827
1.80371
1.80365
1.80349
1.8033
1.80299
1.80268
1.8022
1.80179
1.80113
1.80063
1.79979
1.79921
1.79817
1.79752
1.79631
1.79555
1.79421
1.79328
1.79194
1.79064
1.7896
1.78755
1.7872
1.78407
1.79864
1.79858
1.79843
1.79825
1.79794
1.79765
1.79717
1.79678
1.79614
1.79566
1.79484
1.79429
1.79328
1.79265
1.79147
1.79074
1.78944
1.78855
1.78724
1.786
1.78496
1.783
1.78264
1.77962
1.79328
1.79322
1.79308
1.7929
1.7926
1.79232
1.79187
1.79149
1.79087
1.79041
1.78961
1.78908
1.7881
1.78751
1.78636
1.78567
1.7844
1.78355
1.78227
1.78109
1.78007
1.77819
1.77783
1.7749
1.78764
1.78758
1.78745
1.78727
1.78699
1.78672
1.78628
1.78592
1.78532
1.78488
1.78411
1.7836
1.78266
1.78209
1.78098
1.78032
1.77909
1.77828
1.77703
1.77591
1.7749
1.77312
1.77275
1.76993
1.78172
1.78166
1.78153
1.78137
1.78109
1.78083
1.78041
1.78007
1.77949
1.77907
1.77833
1.77785
1.77693
1.7764
1.77532
1.7747
1.77351
1.77274
1.77153
1.77047
1.76948
1.76778
1.76742
1.76469
1.77552
1.77546
1.77533
1.77518
1.77491
1.77467
1.77426
1.77394
1.77338
1.77299
1.77227
1.77182
1.77094
1.77043
1.7694
1.76881
1.76766
1.76694
1.76577
1.76477
1.7638
1.76218
1.76183
1.7592
1.76904
1.76898
1.76886
1.76871
1.76846
1.76823
1.76784
1.76754
1.767
1.76663
1.76594
1.76552
1.76467
1.7642
1.7632
1.76266
1.76155
1.76087
1.75974
1.7588
1.75785
1.75633
1.75598
1.75345
1.76228
1.76223
1.76211
1.76197
1.76173
1.76152
1.76114
1.76086
1.76035
1.76001
1.75934
1.75895
1.75814
1.7577
1.75674
1.75624
1.75517
1.75454
1.75345
1.75257
1.75165
1.75021
1.74988
1.74745
1.75526
1.7552
1.75509
1.75496
1.75473
1.75453
1.75418
1.75391
1.75343
1.75311
1.75248
1.75212
1.75134
1.75094
1.75002
1.74955
1.74853
1.74795
1.7469
1.74608
1.74519
1.74384
1.74353
1.7412
1.74796
1.74791
1.74781
1.74768
1.74747
1.74728
1.74694
1.7467
1.74624
1.74595
1.74535
1.74502
1.74427
1.74391
1.74303
1.74261
1.74162
1.74109
1.74009
1.73933
1.73848
1.73721
1.73691
1.73469
1.7404
1.74036
1.74026
1.74014
1.73994
1.73976
1.73945
1.73922
1.73879
1.73852
1.73795
1.73766
1.73695
1.73662
1.73578
1.7354
1.73446
1.73398
1.73302
1.73232
1.73151
1.73033
1.73004
1.72793
1.73258
1.73254
1.73244
1.73234
1.73215
1.73199
1.73169
1.73149
1.73107
1.73084
1.7303
1.73004
1.72936
1.72908
1.72828
1.72794
1.72705
1.72661
1.7257
1.72506
1.72428
1.72319
1.72292
1.72092
1.72451
1.72446
1.72438
1.72428
1.7241
1.72395
1.72367
1.72349
1.7231
1.72289
1.72239
1.72216
1.72152
1.72127
1.72052
1.72022
1.71937
1.71899
1.71813
1.71754
1.71681
1.71581
1.71555
1.71366
1.71618
1.71613
1.71605
1.71596
1.7158
1.71567
1.7154
1.71524
1.71488
1.7147
1.71422
1.71402
1.71342
1.71321
1.7125
1.71225
1.71145
1.71112
1.7103
1.70978
1.70908
1.70817
1.70793
1.70615
1.7076
1.70756
1.70748
1.7074
1.70724
1.70713
1.70688
1.70675
1.70641
1.70625
1.7058
1.70564
1.70507
1.7049
1.70423
1.70402
1.70327
1.70299
1.70222
1.70176
1.70111
1.70028
1.70006
1.6984
1.69877
1.69873
1.69866
1.69859
1.69845
1.69834
1.69812
1.698
1.69769
1.69755
1.69714
1.697
1.69648
1.69634
1.69571
1.69555
1.69484
1.69462
1.6939
1.69349
1.69289
1.69213
1.69194
1.69039
1.68971
1.68967
1.6896
1.68954
1.68941
1.68932
1.68911
1.68901
1.68872
1.68862
1.68823
1.68813
1.68763
1.68754
1.68695
1.68683
1.68617
1.68599
1.68532
1.68498
1.68443
1.68375
1.68357
1.68214
1.6804
1.68036
1.68031
1.68025
1.68013
1.68005
1.67986
1.67979
1.67952
1.67944
1.67908
1.67901
1.67855
1.67849
1.67794
1.67787
1.67725
1.67713
1.6765
1.67622
1.67572
1.67511
1.67496
1.67365
1.67086
1.67083
1.67077
1.67072
1.67061
1.67055
1.67038
1.67032
1.67008
1.67002
1.66969
1.66966
1.66923
1.66921
1.66869
1.66867
1.66809
1.66802
1.66744
1.66722
1.66676
1.66623
1.66612
1.66491
1.66109
1.66106
1.66101
1.66097
1.66087
1.66082
1.66067
1.66063
1.66041
1.66038
1.66008
1.66007
1.65968
1.65969
1.65921
1.65923
1.65869
1.65867
1.65814
1.65798
1.65757
1.65711
1.65703
1.65594
1.6511
1.65107
1.65103
1.65099
1.6509
1.65087
1.65073
1.6507
1.65051
1.6505
1.65023
1.65025
1.64989
1.64994
1.6495
1.64956
1.64906
1.64909
1.6486
1.6485
1.64813
1.64775
1.6477
1.64672
1.64088
1.64085
1.64082
1.64079
1.64071
1.64069
1.64056
1.64056
1.64038
1.6404
1.64015
1.6402
1.63987
1.63996
1.63956
1.63966
1.63921
1.63929
1.63884
1.63879
1.63847
1.63815
1.63814
1.63727
1.63045
1.63042
1.63039
1.63036
1.6303
1.63029
1.63018
1.63019
1.63003
1.63007
1.62985
1.62993
1.62963
1.62976
1.62939
1.62954
1.62912
1.62925
1.62884
1.62886
1.62858
1.62833
1.62836
1.62759
1.6198
1.61977
1.61974
1.61973
1.61967
1.61967
1.61958
1.6196
1.61947
1.61953
1.61933
1.61944
1.61918
1.61933
1.619
1.61919
1.61881
1.61899
1.61862
1.6187
1.61846
1.61828
1.61835
1.61767
1.60894
1.60891
1.60888
1.60887
1.60883
1.60884
1.60876
1.60881
1.60869
1.60877
1.6086
1.60874
1.6085
1.60869
1.60839
1.60862
1.60828
1.60851
1.60818
1.60832
1.60811
1.60802
1.60811
1.60752
1.59786
1.59784
1.59782
1.59781
1.59778
1.5978
1.59774
1.5978
1.5977
1.5978
1.59766
1.59782
1.59761
1.59784
1.59757
1.59784
1.59753
1.59781
1.59752
1.59772
1.59755
1.59752
1.59766
1.59716
1.58659
1.58656
1.58655
1.58655
1.58652
1.58655
1.58651
1.58658
1.58651
1.58663
1.58651
1.5867
1.58652
1.58677
1.58654
1.58685
1.58657
1.5869
1.58664
1.58691
1.58676
1.58682
1.58698
1.58658
1.57511
1.57508
1.57507
1.57508
1.57506
1.57511
1.57507
1.57516
1.57511
1.57525
1.57516
1.57537
1.57522
1.57551
1.5753
1.57565
1.5754
1.57579
1.57555
1.57588
1.57576
1.5759
1.57607
1.57578
1.56343
1.56341
1.5634
1.56341
1.56341
1.56346
1.56344
1.56355
1.56351
1.56367
1.5636
1.56384
1.56372
1.56404
1.56386
1.56425
1.56404
1.56447
1.56426
1.56465
1.56456
1.56477
1.56496
1.56476
1.55156
1.55154
1.55153
1.55155
1.55155
1.55162
1.55162
1.55174
1.55172
1.5519
1.55185
1.55212
1.55202
1.55237
1.55223
1.55266
1.55247
1.55295
1.55277
1.55322
1.55315
1.55344
1.55364
1.55355
1.5395
1.53948
1.53948
1.5395
1.53951
1.53959
1.5396
1.53974
1.53974
1.53994
1.53991
1.5402
1.54013
1.54051
1.5404
1.54087
1.54071
1.54124
1.54108
1.5416
1.54154
1.54192
1.54211
1.54213
1.52725
1.52723
1.52724
1.52727
1.52729
1.52738
1.5274
1.52755
1.52757
1.52779
1.52779
1.5281
1.52805
1.52847
1.52838
1.52888
1.52875
1.52933
1.5292
1.52978
1.52974
1.5302
1.53039
1.53051
1.51483
1.51481
1.51482
1.51486
1.51489
1.51498
1.51502
1.51518
1.51522
1.51546
1.51548
1.51582
1.51579
1.51624
1.51617
1.51672
1.51661
1.51724
1.51713
1.51778
1.51774
1.5183
1.51848
1.5187
1.50223
1.50222
1.50223
1.50227
1.50231
1.50241
1.50247
1.50264
1.5027
1.50296
1.50299
1.50335
1.50336
1.50383
1.50379
1.50438
1.50429
1.50497
1.50487
1.50559
1.50555
1.50621
1.50638
1.5067
1.48947
1.48946
1.48947
1.48952
1.48957
1.48968
1.48974
1.48993
1.49
1.49028
1.49034
1.49072
1.49074
1.49125
1.49123
1.49186
1.49178
1.49253
1.49243
1.49323
1.49317
1.49392
1.4941
1.49451
1.47655
1.47654
1.47656
1.47661
1.47666
1.47678
1.47686
1.47706
1.47715
1.47744
1.47751
1.47792
1.47797
1.4785
1.4785
1.47917
1.47911
1.47991
1.47981
1.48069
1.48064
1.48145
1.48164
1.48214
1.46348
1.46346
1.46349
1.46354
1.4636
1.46373
1.46382
1.46403
1.46413
1.46444
1.46453
1.46497
1.46502
1.4656
1.4656
1.46632
1.46626
1.46713
1.46701
1.46798
1.46792
1.46881
1.46901
1.46958
1.45026
1.45024
1.45027
1.45033
1.4504
1.45053
1.45063
1.45085
1.45097
1.4513
1.4514
1.45186
1.45192
1.45254
1.45254
1.45332
1.45324
1.45418
1.45407
1.45508
1.45505
1.45599
1.4562
1.45685
1.4369
1.43689
1.43691
1.43698
1.43705
1.43719
1.4373
1.43754
1.43766
1.43801
1.43811
1.43861
1.43867
1.43933
1.43932
1.44016
1.44008
1.44107
1.44097
1.44202
1.44201
1.44301
1.44323
1.44395
1.42341
1.4234
1.42343
1.42349
1.42358
1.42372
1.42384
1.42408
1.42421
1.42458
1.42469
1.42522
1.42527
1.42598
1.42596
1.42684
1.42677
1.42779
1.42772
1.42881
1.42882
1.42986
1.43009
1.43089
1.4098
1.40978
1.40982
1.40988
1.40998
1.41012
1.41025
1.4105
1.41063
1.41103
1.41113
1.41169
1.41174
1.41247
1.41247
1.41337
1.41333
1.41437
1.41432
1.41544
1.41547
1.41656
1.4168
1.41766
1.39607
1.39605
1.3961
1.39616
1.39626
1.3964
1.39654
1.3968
1.39693
1.39735
1.39745
1.39803
1.39809
1.39884
1.39885
1.39977
1.39975
1.40081
1.40078
1.40193
1.40197
1.4031
1.40335
1.40428
1.38223
1.38221
1.38226
1.38232
1.38243
1.38257
1.38272
1.38298
1.38312
1.38354
1.38366
1.38424
1.38432
1.38507
1.38511
1.38604
1.38603
1.38711
1.3871
1.38828
1.38834
1.38951
1.38976
1.39075
1.36829
1.36827
1.36831
1.36838
1.36849
1.36863
1.36879
1.36904
1.36921
1.36961
1.36975
1.37034
1.37043
1.37119
1.37124
1.37218
1.37219
1.37329
1.3733
1.37449
1.37457
1.37577
1.37603
1.37707
1.35424
1.35423
1.35427
1.35434
1.35444
1.35459
1.35476
1.355
1.35519
1.35558
1.35574
1.35632
1.35643
1.35719
1.35726
1.35821
1.35824
1.35934
1.35937
1.36058
1.36067
1.3619
1.36217
1.36326
1.3401
1.34009
1.34013
1.3402
1.3403
1.34045
1.34062
1.34086
1.34107
1.34144
1.34164
1.34219
1.34233
1.34309
1.34317
1.34412
1.34417
1.34528
1.34532
1.34655
1.34665
1.34791
1.34819
1.34932
1.32587
1.32586
1.3259
1.32596
1.32607
1.32622
1.32639
1.32663
1.32685
1.32721
1.32743
1.32797
1.32813
1.32888
1.32898
1.32993
1.32999
1.33111
1.33117
1.33241
1.33252
1.33381
1.33409
1.33526
1.31155
1.31153
1.31157
1.31164
1.31175
1.3119
1.31207
1.31231
1.31254
1.31289
1.31312
1.31365
1.31383
1.31457
1.31469
1.31565
1.31572
1.31685
1.31691
1.31817
1.31829
1.3196
1.31988
1.32109
1.29714
1.29712
1.29716
1.29722
1.29733
1.29748
1.29766
1.2979
1.29813
1.29848
1.29872
1.29925
1.29944
1.30018
1.30031
1.30127
1.30135
1.30249
1.30256
1.30383
1.30396
1.30529
1.30557
1.30682
1.28263
1.28261
1.28265
1.28272
1.28283
1.28298
1.28316
1.2834
1.28364
1.28398
1.28424
1.28476
1.28497
1.28571
1.28585
1.28681
1.2869
1.28805
1.28813
1.28941
1.28955
1.29089
1.29118
1.29245
1.26804
1.26802
1.26806
1.26812
1.26824
1.26839
1.26857
1.26881
1.26906
1.26941
1.26968
1.27019
1.27042
1.27116
1.27131
1.27228
1.27237
1.27353
1.27362
1.27491
1.27505
1.27641
1.27669
1.27799
1.25335
1.25333
1.25338
1.25344
1.25356
1.25372
1.25391
1.25415
1.25441
1.25475
1.25504
1.25555
1.2558
1.25653
1.2567
1.25767
1.25777
1.25894
1.25904
1.26033
1.26049
1.26185
1.26214
1.26346
1.23859
1.23857
1.23862
1.23868
1.23881
1.23897
1.23916
1.23941
1.23968
1.24003
1.24034
1.24083
1.24111
1.24183
1.24203
1.24299
1.24311
1.24428
1.24439
1.24569
1.24585
1.24722
1.24751
1.24884
1.22375
1.22373
1.22378
1.22386
1.22398
1.22415
1.22435
1.22461
1.22489
1.22524
1.22557
1.22606
1.22637
1.22707
1.2273
1.22825
1.22839
1.22956
1.22967
1.23098
1.23115
1.23252
1.23281
1.23416
1.20887
1.20885
1.2089
1.20898
1.20911
1.20928
1.20949
1.20976
1.21004
1.2104
1.21074
1.21123
1.21157
1.21225
1.21251
1.21345
1.21361
1.21477
1.2149
1.21621
1.21638
1.21775
1.21804
1.2194
1.19396
1.19394
1.19399
1.19407
1.19421
1.19438
1.1946
1.19487
1.19516
1.19552
1.19587
1.19636
1.19672
1.19739
1.19768
1.19859
1.19878
1.19992
1.20006
1.20137
1.20154
1.20291
1.2032
1.20456
1.17906
1.17904
1.17909
1.17917
1.1793
1.17948
1.17969
1.17996
1.18025
1.18061
1.18097
1.18145
1.18182
1.18247
1.18279
1.18367
1.18389
1.18501
1.18516
1.18645
1.18663
1.188
1.18828
1.18964
1.16421
1.16419
1.16423
1.16431
1.16443
1.1646
1.1648
1.16506
1.16534
1.16569
1.16604
1.1665
1.16688
1.1675
1.16784
1.16868
1.16894
1.17002
1.1702
1.17147
1.17164
1.17301
1.17328
1.17464
1.14942
1.14939
1.14943
1.1495
1.1496
1.14976
1.14994
1.15018
1.15044
1.15077
1.1511
1.15154
1.1519
1.15249
1.15284
1.15364
1.15392
1.15495
1.15515
1.1564
1.15657
1.15793
1.15819
1.15955
1.13469
1.13466
1.13469
1.13474
1.13483
1.13496
1.13512
1.13533
1.13556
1.13586
1.13616
1.13656
1.13689
1.13745
1.13778
1.13853
1.13881
1.1398
1.14
1.14123
1.14139
1.14275
1.14299
1.14435
1.11999
1.11996
1.11997
1.12001
1.12008
1.12019
1.12032
1.1205
1.12069
1.12095
1.12121
1.12157
1.12187
1.12238
1.12267
1.12337
1.12363
1.12457
1.12477
1.12595
1.1261
1.12746
1.12769
1.12906
1.10525
1.10521
1.10522
1.10524
1.1053
1.10538
1.10549
1.10564
1.1058
1.10602
1.10625
1.10656
1.10682
1.10728
1.10752
1.10818
1.10838
1.10928
1.10943
1.11059
1.1107
1.11205
1.11225
1.11364
1.09036
1.09031
1.09032
1.09032
1.09038
1.09044
1.09055
1.09066
1.09083
1.09101
1.09121
1.09149
1.09172
1.09214
1.09232
1.09298
1.09307
1.09399
1.09402
1.09518
1.0952
1.09653
1.09669
1.09804
1.07518
1.07512
1.07514
1.07514
1.0752
1.07526
1.07538
1.07549
1.07565
1.07583
1.07603
1.07629
1.07651
1.0769
1.07707
1.07772
1.07773
1.07867
1.0786
1.07976
1.07969
1.08098
1.08107
1.08233
1.05957
1.05952
1.05953
1.05956
1.05962
1.05971
1.05983
1.05998
1.06015
1.06036
1.06058
1.06086
1.06111
1.06149
1.0617
1.06231
1.06236
1.06327
1.06318
1.06433
1.0642
1.06549
1.0655
1.0667
1.0434
1.04336
1.04338
1.04343
1.04352
1.04364
1.04379
1.04399
1.04421
1.04447
1.04474
1.04507
1.04538
1.0458
1.0461
1.04669
1.04685
1.04773
1.04769
1.04886
1.0487
1.05003
1.04999
1.0512
1.0266
1.02656
1.0266
1.02666
1.02678
1.02694
1.02715
1.0274
1.02768
1.02801
1.02837
1.02878
1.02918
1.02968
1.03009
1.03075
1.03103
1.03195
1.03201
1.03325
1.03311
1.03454
1.03446
1.03577
1.00912
1.00907
1.00913
1.00921
1.00937
1.00956
1.00983
1.01012
1.0105
1.01088
1.01135
1.01184
1.01237
1.01298
1.01352
1.0143
1.01472
1.0158
1.01595
1.01737
1.01729
1.01889
1.01881
1.02029
0.99097
0.990924
0.990998
0.991097
0.99128
0.991513
0.991817
0.992169
0.992601
0.993063
0.993616
0.994198
0.994843
0.995564
0.996256
0.997154
0.99777
0.999002
0.999345
1.00097
1.00104
1.00289
1.00287
1.00463
0.972229
0.97219
0.97226
0.972383
0.972575
0.972842
0.973166
0.973569
0.974031
0.974566
0.975162
0.975838
0.976554
0.977382
0.978198
0.979195
0.980043
0.981329
0.982008
0.983731
0.984105
0.986241
0.986388
0.988581
0.952997
0.952961
0.953031
0.953162
0.953361
0.953641
0.953981
0.954405
0.954891
0.955457
0.95609
0.956808
0.957578
0.958463
0.959359
0.960431
0.961424
0.962742
0.963737
0.965445
0.96624
0.968525
0.968975
0.971732
0.933395
0.933361
0.933427
0.933559
0.933758
0.93404
0.934383
0.93481
0.935303
0.935874
0.936518
0.937246
0.938035
0.938936
0.939863
0.940958
0.942008
0.943349
0.944473
0.946151
0.94725
0.94949
0.950269
0.953472
0.913552
0.913515
0.913577
0.913704
0.913897
0.914171
0.914507
0.914923
0.915408
0.915966
0.916602
0.917313
0.918095
0.918975
0.919897
0.920968
0.922016
0.923329
0.924454
0.926103
0.927213
0.929407
0.930232
0.933432
0.893589
0.893547
0.893604
0.893721
0.893905
0.894164
0.894486
0.894882
0.89535
0.89588
0.896495
0.897171
0.897928
0.898766
0.899658
0.900676
0.901692
0.90294
0.90401
0.905602
0.9066
0.908747
0.909443
0.912379
0.87361
0.873563
0.873613
0.873719
0.873891
0.874131
0.874435
0.874804
0.875249
0.875743
0.87633
0.87696
0.877683
0.878465
0.879316
0.880266
0.881232
0.882395
0.883406
0.884899
0.885819
0.887841
0.888477
0.891196
0.853706
0.853653
0.853698
0.85379
0.853949
0.854167
0.854452
0.854789
0.855208
0.855661
0.856217
0.856794
0.857479
0.858195
0.859002
0.859875
0.860788
0.861855
0.862809
0.864192
0.865041
0.866914
0.867511
0.870021
0.833952
0.833891
0.833935
0.834007
0.834158
0.834347
0.834618
0.834915
0.835315
0.835714
0.836248
0.836757
0.837416
0.83805
0.838822
0.839606
0.840468
0.841435
0.842329
0.843603
0.844388
0.846104
0.846668
0.848971
0.814407
0.814341
0.814384
0.814434
0.81458
0.814736
0.814997
0.815248
0.815636
0.815972
0.816493
0.81692
0.817567
0.818102
0.818857
0.81953
0.820361
0.821221
0.822056
0.823214
0.823948
0.825503
0.826039
0.828134
0.795124
0.795054
0.795089
0.795129
0.795257
0.795395
0.795629
0.795852
0.796208
0.796504
0.796989
0.79736
0.79797
0.798429
0.799149
0.799724
0.800518
0.801269
0.802057
0.803095
0.803784
0.805174
0.805686
0.807575
0.776141
0.776069
0.776092
0.776129
0.77623
0.776362
0.776556
0.776769
0.777073
0.777353
0.777775
0.778122
0.778662
0.779084
0.779732
0.780248
0.780979
0.781634
0.782387
0.783284
0.783937
0.785169
0.785659
0.787347
0.757488
0.757415
0.757428
0.757459
0.75754
0.757659
0.757824
0.758017
0.75828
0.758536
0.758905
0.759223
0.759698
0.760083
0.760659
0.761122
0.761786
0.762357
0.763068
0.76382
0.76445
0.765528
0.765998
0.767488
0.739192
0.739119
0.739123
0.739146
0.73921
0.739315
0.739454
0.739625
0.739853
0.740079
0.740404
0.740686
0.741106
0.741447
0.741962
0.742367
0.74297
0.743459
0.744121
0.744743
0.74536
0.746278
0.746729
0.748027
0.721273
0.7212
0.721196
0.721211
0.721261
0.721348
0.721466
0.721612
0.72181
0.722005
0.722291
0.722534
0.722907
0.7232
0.72366
0.724006
0.72455
0.724962
0.72557
0.726083
0.726684
0.727438
0.727875
0.728986
0.703747
0.703673
0.703663
0.703671
0.703704
0.70378
0.703873
0.703999
0.704167
0.704331
0.70458
0.704785
0.705114
0.70536
0.70577
0.706057
0.706547
0.706885
0.707439
0.707854
0.708427
0.70903
0.709454
0.710384
0.686625
0.68655
0.686536
0.686533
0.686561
0.686612
0.686694
0.68679
0.686937
0.687069
0.687286
0.687452
0.68774
0.68794
0.688302
0.688534
0.688972
0.68924
0.689743
0.690067
0.690602
0.691062
0.69148
0.692238
0.669917
0.669843
0.669819
0.669819
0.669819
0.669875
0.66992
0.67001
0.670121
0.670231
0.670412
0.670544
0.670793
0.670949
0.671267
0.671444
0.671833
0.672035
0.672488
0.67273
0.67322
0.673554
0.673961
0.674559
0.653628
0.653553
0.653531
0.653508
0.653523
0.653534
0.653594
0.653638
0.653743
0.653814
0.653972
0.654066
0.65428
0.654393
0.654669
0.654795
0.655138
0.655276
0.655681
0.655843
0.656291
0.656513
0.65691
0.657354
0.637763
0.63769
0.637657
0.637644
0.637623
0.637653
0.637664
0.637718
0.637779
0.637839
0.63796
0.638026
0.638203
0.638277
0.638513
0.638591
0.63889
0.638968
0.639327
0.639416
0.639817
0.639944
0.640329
0.640622
0.622323
0.622249
0.622221
0.622184
0.622182
0.622166
0.622198
0.6222
0.622267
0.622285
0.622389
0.622419
0.622567
0.622602
0.622801
0.622832
0.62309
0.623112
0.623429
0.623447
0.62381
0.623847
0.62421
0.624365
0.607311
0.607239
0.607202
0.607171
0.607143
0.607138
0.607131
0.60714
0.607167
0.607177
0.607248
0.607254
0.607369
0.607369
0.607533
0.60752
0.60774
0.607709
0.607986
0.607939
0.608263
0.608218
0.608556
0.608582
0.592723
0.592652
0.592617
0.592572
0.592549
0.592518
0.592516
0.59249
0.592516
0.592491
0.592547
0.592521
0.59261
0.592575
0.592706
0.592653
0.592835
0.592754
0.592993
0.592884
0.593173
0.59305
0.593358
0.593271
0.57856
0.57849
0.578453
0.578403
0.578374
0.578332
0.578317
0.57828
0.578283
0.578244
0.578273
0.578225
0.578285
0.57822
0.57832
0.578228
0.578376
0.578248
0.578451
0.578283
0.578536
0.578338
0.57862
0.57843
0.564817
0.564749
0.564707
0.564658
0.564615
0.564573
0.56454
0.564493
0.56448
0.564422
0.564431
0.564358
0.564394
0.5643
0.56437
0.564243
0.564358
0.564187
0.564356
0.564133
0.564355
0.564086
0.564342
0.564056
0.55149
0.551422
0.551385
0.55132
0.551288
0.551218
0.551195
0.551118
0.551103
0.551019
0.551015
0.550917
0.550931
0.550809
0.550853
0.550692
0.550778
0.550566
0.550704
0.55043
0.550624
0.550288
0.550526
0.550148
0.538573
0.53851
0.538465
0.538409
0.538354
0.538298
0.538242
0.538176
0.538129
0.538043
0.538012
0.5379
0.53789
0.537743
0.537762
0.537571
0.53763
0.53738
0.53749
0.537169
0.537337
0.536941
0.53716
0.5367
0.526064
0.525998
0.52596
0.525888
0.525846
0.525761
0.525722
0.52562
0.525584
0.525465
0.52543
0.525292
0.525267
0.525095
0.525092
0.524872
0.524907
0.524621
0.524707
0.524342
0.524488
0.524035
0.52424
0.523703
0.51395
0.51389
0.513844
0.51378
0.513721
0.513646
0.51358
0.513489
0.513421
0.513307
0.513245
0.513097
0.51305
0.512858
0.512834
0.512588
0.5126
0.512283
0.512345
0.511941
0.512066
0.511562
0.511753
0.511148
0.502229
0.502168
0.502127
0.502053
0.502
0.501908
0.501849
0.501734
0.501671
0.501531
0.501466
0.501296
0.501236
0.501024
0.500981
0.500711
0.500702
0.500356
0.500397
0.499957
0.500063
0.499512
0.499691
0.499023
0.49089
0.490834
0.490788
0.490718
0.490656
0.490566
0.490491
0.490379
0.490296
0.490154
0.49007
0.48989
0.489813
0.489583
0.489523
0.489232
0.489204
0.488831
0.488853
0.488379
0.488468
0.487874
0.488041
0.487318
0.479929
0.479872
0.47983
0.479753
0.479694
0.479594
0.47952
0.479394
0.479308
0.479152
0.479059
0.478864
0.478774
0.478528
0.478452
0.478141
0.478095
0.477698
0.477703
0.477199
0.477271
0.476638
0.476794
0.476022
0.469333
0.469282
0.469233
0.469164
0.469092
0.468998
0.46891
0.468784
0.468687
0.468523
0.46842
0.468213
0.46811
0.46785
0.467759
0.46743
0.467367
0.466949
0.466935
0.466405
0.466462
0.465794
0.465942
0.465118
0.459098
0.459046
0.459003
0.458924
0.458861
0.458752
0.458669
0.458531
0.458429
0.458257
0.458144
0.457926
0.457812
0.457538
0.457433
0.457088
0.45701
0.456572
0.456543
0.455988
0.456031
0.455331
0.455468
0.454602
0.449213
0.449165
0.449117
0.449046
0.448969
0.448869
0.448772
0.448635
0.448524
0.448344
0.448223
0.447995
0.44787
0.447584
0.447467
0.447107
0.447015
0.44656
0.446515
0.445938
0.445966
0.445239
0.445366
0.444461
0.43967
0.439623
0.439577
0.439501
0.439429
0.439319
0.439225
0.439078
0.438965
0.438776
0.438648
0.438411
0.438277
0.437979
0.437851
0.437478
0.437372
0.4369
0.436842
0.436245
0.43626
0.435507
0.435625
0.434682
0.43046
0.430416
0.430369
0.430294
0.430219
0.430108
0.430009
0.42986
0.429739
0.429547
0.42941
0.429166
0.429022
0.428715
0.428576
0.42819
0.428072
0.427588
0.427514
0.4269
0.426902
0.426126
0.426233
0.42526
0.421575
0.421533
0.421486
0.421412
0.421333
0.421223
0.421119
0.420967
0.420841
0.420642
0.420501
0.420248
0.420097
0.419781
0.419633
0.419236
0.419108
0.418609
0.418524
0.417896
0.417884
0.417088
0.417186
0.416182
0.413006
0.412965
0.41292
0.412843
0.412767
0.412651
0.412548
0.41239
0.412262
0.412058
0.41191
0.411652
0.411494
0.411169
0.411013
0.410606
0.410469
0.409959
0.409864
0.409221
0.409198
0.408386
0.408472
0.407446
0.404744
0.404706
0.40466
0.404584
0.404506
0.40439
0.404283
0.404124
0.403991
0.403783
0.403631
0.403366
0.403203
0.40287
0.402708
0.402292
0.402148
0.401626
0.401523
0.400868
0.400837
0.40001
0.400089
0.399043
0.396781
0.396745
0.396698
0.396624
0.396544
0.396428
0.396318
0.396156
0.396022
0.395808
0.395653
0.395383
0.395215
0.394875
0.394708
0.394283
0.394134
0.393601
0.393495
0.392824
0.392791
0.391948
0.392024
0.390965
0.389109
0.389073
0.389029
0.388952
0.388875
0.388755
0.388646
0.38848
0.388343
0.388127
0.387968
0.387693
0.387521
0.387176
0.387004
0.386571
0.386417
0.385875
0.385764
0.385084
0.385046
0.384191
0.384264
0.383194
0.381718
0.381685
0.381639
0.381565
0.381484
0.381366
0.381254
0.381088
0.380948
0.380729
0.380567
0.380288
0.380112
0.379762
0.379586
0.379147
0.378988
0.378439
0.378324
0.377634
0.377593
0.376729
0.376796
0.375718
0.374601
0.374569
0.374524
0.37445
0.374369
0.37425
0.374137
0.373969
0.373828
0.373606
0.373442
0.373159
0.37298
0.372626
0.372445
0.372002
0.371839
0.371284
0.371162
0.370468
0.37042
0.369549
0.369612
0.368524
0.36775
0.367719
0.367675
0.3676
0.367521
0.367399
0.367287
0.367116
0.366974
0.36675
0.366583
0.366298
0.366116
0.365758
0.365574
0.365126
0.364958
0.364399
0.364273
0.363573
0.36352
0.362643
0.362699
0.361606
0.361156
0.361127
0.361083
0.36101
0.360928
0.360808
0.360693
0.360523
0.360378
0.360153
0.359984
0.359696
0.359512
0.359151
0.358963
0.358513
0.35834
0.357778
0.357646
0.356942
0.356884
0.356002
0.356054
0.354953
0.354812
0.354784
0.354741
0.354668
0.354587
0.354466
0.354352
0.354179
0.354035
0.353806
0.353637
0.353346
0.35316
0.352796
0.352606
0.352152
0.351976
0.351411
0.351274
0.350568
0.350503
0.349618
0.349664
0.34856
0.348711
0.348684
0.348642
0.348567
0.34849
0.348365
0.348253
0.348078
0.347934
0.347703
0.347533
0.34724
0.347053
0.346686
0.346494
0.346038
0.345858
0.345291
0.34515
0.344441
0.344372
0.343483
0.343526
0.342416
0.342846
0.34282
0.342777
0.342706
0.342623
0.342504
0.342386
0.342215
0.342067
0.341837
0.341666
0.341371
0.341183
0.340813
0.34062
0.340161
0.33998
0.339409
0.339266
0.338554
0.33848
0.337592
0.337628
0.336518
0.337208
0.337183
0.337143
0.337067
0.336992
0.336864
0.336755
0.336575
0.336434
0.336197
0.336029
0.33573
0.335543
0.33517
0.334977
0.334515
0.334333
0.33376
0.333615
0.332901
0.332825
0.331933
0.331967
0.330855
0.331792
0.331769
0.331726
0.331656
0.331574
0.331455
0.331337
0.331164
0.331016
0.330784
0.330613
0.330313
0.330126
0.329751
0.329559
0.329093
0.328912
0.328335
0.328191
0.327474
0.327397
0.326502
0.326534
0.325423
0.326591
0.326567
0.326529
0.326453
0.326379
0.32625
0.326143
0.32596
0.325821
0.325581
0.325415
0.325111
0.324927
0.324547
0.324358
0.323887
0.32371
0.323128
0.322986
0.322265
0.322191
0.321292
0.321324
0.320214
0.321598
0.321577
0.321535
0.321465
0.321383
0.321264
0.321148
0.320973
0.320828
0.320591
0.320424
0.320118
0.319937
0.319553
0.319368
0.318892
0.318719
0.318131
0.317995
0.317267
0.3172
0.316295
0.316328
0.315221
0.316808
0.316785
0.316748
0.316671
0.3166
0.316469
0.316365
0.316179
0.316044
0.315799
0.315639
0.315327
0.315151
0.314761
0.314582
0.314099
0.313934
0.313339
0.313211
0.312474
0.312414
0.311507
0.31154
0.310438
0.312213
0.312192
0.312152
0.312081
0.312003
0.311881
0.311769
0.311589
0.311451
0.311207
0.311048
0.310733
0.310562
0.310167
0.309994
0.309504
0.309348
0.308743
0.308624
0.307881
0.307828
0.306918
0.306952
0.305856
0.307809
0.307787
0.307751
0.307675
0.307604
0.307474
0.307371
0.307184
0.307052
0.306803
0.306649
0.30633
0.306164
0.305764
0.305597
0.305101
0.304952
0.304341
0.30423
0.30348
0.303432
0.302523
0.302556
0.301466
0.303589
0.303569
0.303531
0.303458
0.303385
0.303258
0.303153
0.302967
0.302836
0.302586
0.302435
0.302113
0.301951
0.301547
0.301385
0.300885
0.300742
0.300124
0.300023
0.299266
0.299224
0.298313
0.298346
0.29726
0.299549
0.299529
0.299492
0.299418
0.299347
0.299218
0.299116
0.298928
0.2988
0.298547
0.2984
0.298075
0.297918
0.297509
0.297354
0.296848
0.296713
0.296089
0.295995
0.295235
0.295194
0.294286
0.294317
0.293236
0.295683
0.295663
0.295628
0.295552
0.295484
0.295352
0.295255
0.295062
0.29494
0.294682
0.294542
0.29421
0.294061
0.293644
0.2935
0.292983
0.292862
0.292227
0.292143
0.291378
0.291342
0.290434
0.290464
0.289389
0.291986
0.291967
0.291931
0.291858
0.291787
0.291658
0.291559
0.291368
0.291247
0.290986
0.290853
0.290513
0.290375
0.289948
0.289818
0.289288
0.28918
0.288537
0.288459
0.287694
0.287658
0.286755
0.286782
0.285716
0.288454
0.288433
0.288402
0.288321
0.288262
0.28812
0.288036
0.287831
0.287725
0.287451
0.287331
0.28698
0.286855
0.286416
0.286299
0.285761
0.28566
0.285014
0.284941
0.284175
0.284141
0.28324
0.283267
0.282207
0.285082
0.285063
0.285027
0.284954
0.284886
0.284755
0.284662
0.284463
0.284355
0.284081
0.283967
0.283609
0.283494
0.283047
0.282938
0.282395
0.2823
0.281652
0.281581
0.280818
0.280783
0.279889
0.279912
0.278861
0.281866
0.281844
0.281816
0.28173