/*--------------------------------*- C++ -*----------------------------------*\
  =========                 |
  \\      /  F ield         | OpenFOAM: The Open Source CFD Toolbox
   \\    /   O peration     | Website:  https://openfoam.org
    \\  /    A nd           | Version:  10
     \\/     M anipulation  |
\*---------------------------------------------------------------------------*/
FoamFile
{
    format      ascii;
    class       surfaceScalarField;
    location    "0.25";
    object      phi;
}
// * * * * * * * * * * * * * * * * * * * * * * * * * * * * * * * * * * * * * //

dimensions      [1 0 -1 0 0 0 0];

internalField   nonuniform List<scalar> 
8154
(
-5.81676e-09
-2.20665e-08
-5.68016e-08
-9.1738e-08
-1.71469e-07
-2.25905e-07
-3.7014e-07
-4.54789e-07
-6.75e-07
-8.14707e-07
-1.10461e-06
-1.33702e-06
-1.66791e-06
-2.02774e-06
-2.36095e-06
-2.86536e-06
-3.25413e-06
-3.98494e-06
-4.5668e-06
-5.50964e-06
-6.82477e-06
-7.23856e-06
-6.85767e-06
-0.000277439
-0.000832371
2.40405e-08
-0.00138747
9.62821e-08
-0.00194289
2.13419e-07
-0.00249867
3.78171e-07
-0.00305504
5.77414e-07
-0.00361203
8.23598e-07
-0.00416974
1.0883e-06
-0.00472846
1.39739e-06
-0.00528792
1.71044e-06
-0.0058488
2.05565e-06
-0.00641058
2.40257e-06
-0.00697379
2.74852e-06
-0.00753869
3.12053e-06
-0.00810415
3.43598e-06
-0.0086731
3.85019e-06
-0.00924028
4.12726e-06
-0.00981493
4.57462e-06
-0.0103833
4.92573e-06
-0.0109646
5.13867e-06
-0.0115339
5.28066e-06
-0.0121234
5.11956e-06
-0.0126948
4.03159e-06
-0.0132931
2.44803e-06
-0.000277463
-0.000832443
2.63544e-08
-0.00138758
1.04829e-07
-0.00194306
2.34816e-07
-0.00249887
4.10291e-07
-0.00305529
6.35349e-07
-0.0036123
8.89691e-07
-0.00417005
1.19454e-06
-0.00472877
1.5008e-06
-0.00528827
1.8664e-06
-0.00584914
2.19026e-06
-0.00641093
2.59318e-06
-0.00697416
2.89328e-06
-0.00753901
3.29937e-06
-0.00810457
3.53928e-06
-0.00867337
3.90443e-06
-0.00924073
4.10593e-06
-0.00981528
4.39067e-06
-0.0103835
5.00296e-06
-0.0109647
4.66549e-06
-0.0115337
5.23336e-06
-0.0121224
5.33377e-06
-0.0126932
5.04532e-06
-0.0132906
4.22866e-06
-0.000277489
-0.000832522
2.12905e-08
-0.00138771
8.4939e-08
-0.00194323
1.8814e-07
-0.0024991
3.30616e-07
-0.00305554
5.02003e-07
-0.0036126
7.07449e-07
-0.00417036
9.22568e-07
-0.00472914
1.16617e-06
-0.00528859
1.39354e-06
-0.00584954
1.64149e-06
-0.00641122
1.84629e-06
-0.00697457
2.05038e-06
-0.00753925
2.19802e-06
-0.00810493
2.28417e-06
-0.00867357
2.35413e-06
-0.00924101
2.20752e-06
-0.00981589
2.34381e-06
-0.0103832
1.89988e-06
-0.0109653
1.78065e-06
-0.0115338
1.39272e-06
-0.0121221
1.16025e-06
-0.0126924
7.23943e-07
-0.0132864
5.1623e-07
-0.00027751
-0.000832585
2.55214e-08
-0.00138782
1.01884e-07
-0.00194337
2.26077e-07
-0.00249927
3.97866e-07
-0.00305575
6.05697e-07
-0.00361282
8.55761e-07
-0.0041706
1.11942e-06
-0.00472937
1.42037e-06
-0.00528884
1.702e-06
-0.00584975
2.01662e-06
-0.00641143
2.2722e-06
-0.00697471
2.54906e-06
-0.00753933
2.73451e-06
-0.008105
2.89562e-06
-0.00867342
2.98584e-06
-0.00924114
2.89872e-06
-0.00981544
2.97453e-06
-0.0103831
2.28357e-06
-0.0109649
2.51661e-06
-0.0115336
1.72584e-06
-0.0121216
1.21084e-06
-0.0126922
3.84042e-07
-0.0132858
-1.68839e-07
-0.000277536
-0.000832661
3.36296e-08
-0.00138794
1.34225e-07
-0.00194354
2.99179e-07
-0.00249948
5.26464e-07
-0.003056
8.07977e-07
-0.00361308
1.14178e-06
-0.0041709
1.51194e-06
-0.00472965
1.919e-06
-0.00528915
2.33867e-06
-0.00585
2.77319e-06
-0.0064117
3.19438e-06
-0.0069749
3.59677e-06
-0.00753949
3.96511e-06
-0.00810509
4.25931e-06
-0.00867333
4.52253e-06
-0.00924122
4.61604e-06
-0.00981474
4.73056e-06
-0.0103833
4.40123e-06
-0.0109641
4.36592e-06
-0.011533
3.6734e-06
-0.0121208
3.21639e-06
-0.0126916
2.27485e-06
-0.013286
1.35355e-06
-0.00027757
-0.000832762
3.75453e-08
-0.00138811
1.49864e-07
-0.00194377
3.34326e-07
-0.00249976
5.88426e-07
-0.00305633
9.04353e-07
-0.00361345
1.27846e-06
-0.00417131
1.69621e-06
-0.00473007
2.15389e-06
-0.00528958
2.63075e-06
-0.00585042
3.12099e-06
-0.0064121
3.60279e-06
-0.00697526
4.05905e-06
-0.00753979
4.48265e-06
-0.00810536
4.82202e-06
-0.00867343
5.12418e-06
-0.00924133
5.25048e-06
-0.00981441
5.36936e-06
-0.0103833
5.08297e-06
-0.0109634
4.96672e-06
-0.0115326
4.21632e-06
-0.0121199
3.68112e-06
-0.0126907
2.64422e-06
-0.0132847
1.61865e-06
-0.000277607
-0.000832874
4.13712e-08
-0.00138829
1.65149e-07
-0.00194403
3.68549e-07
-0.00250007
6.48832e-07
-0.0030567
9.97767e-07
-0.00361387
1.41132e-06
-0.00417176
1.87412e-06
-0.00473054
2.38197e-06
-0.00529007
2.91237e-06
-0.0058509
3.45927e-06
-0.00641256
3.9971e-06
-0.00697569
4.51e-06
-0.00754013
4.9834e-06
-0.00810566
5.37111e-06
-0.00867355
5.707e-06
-0.00924145
5.86291e-06
-0.00981412
5.99728e-06
-0.0103832
5.71937e-06
-0.0109627
5.5965e-06
-0.011532
4.81028e-06
-0.0121188
4.20709e-06
-0.0126897
2.99498e-06
-0.013283
1.80062e-06
-0.000277648
-0.000832998
4.50586e-08
-0.00138849
1.79859e-07
-0.00194431
4.01447e-07
-0.00250042
7.06698e-07
-0.00305712
1.0871e-06
-0.00361433
1.53778e-06
-0.00417227
2.04328e-06
-0.00473107
2.59776e-06
-0.00529062
3.17901e-06
-0.00585143
3.77821e-06
-0.00641307
4.37011e-06
-0.00697616
4.93504e-06
-0.00754052
5.45753e-06
-0.008106
5.88879e-06
-0.00867371
6.25744e-06
-0.00924158
6.44142e-06
-0.00981384
6.5816e-06
-0.010383
6.32941e-06
-0.0109619
6.17343e-06
-0.0115314
5.37087e-06
-0.0121176
4.84229e-06
-0.0126885
3.36395e-06
-0.0132812
2.01803e-06
-0.000277693
-0.000833133
4.86965e-08
-0.00138871
1.94361e-07
-0.00194461
4.33825e-07
-0.0025008
7.63547e-07
-0.00305757
1.17459e-06
-0.00361483
1.6613e-06
-0.00417283
2.20777e-06
-0.00473165
2.807e-06
-0.00529122
3.43644e-06
-0.00585203
4.08559e-06
-0.00641364
4.72861e-06
-0.00697668
5.34375e-06
-0.00754095
5.91321e-06
-0.00810637
6.38701e-06
-0.00867389
6.7871e-06
-0.00924172
6.99656e-06
-0.00981359
7.13785e-06
-0.0103829
6.90529e-06
-0.0109611
6.72457e-06
-0.0115308
5.88556e-06
-0.0121162
4.87803e-06
-0.0126872
3.69232e-06
-0.0132792
2.20949e-06
-0.000277742
-0.000833278
5.22842e-08
-0.00138895
2.08658e-07
-0.00194494
4.65723e-07
-0.00250121
8.19502e-07
-0.00305805
1.26055e-06
-0.00361538
1.78239e-06
-0.00417342
2.36851e-06
-0.00473228
3.01072e-06
-0.00529187
3.68594e-06
-0.00585267
4.38229e-06
-0.00641425
5.07325e-06
-0.00697725
5.73561e-06
-0.00754142
6.34957e-06
-0.00810677
6.86422e-06
-0.0086741
7.29519e-06
-0.00924186
7.52806e-06
-0.00981335
7.66891e-06
-0.0103827
7.45189e-06
-0.0109602
7.25043e-06
-0.0115301
6.39702e-06
-0.0121148
5.58838e-06
-0.0126857
4.03896e-06
-0.013277
2.40552e-06
-0.000277794
-0.000833435
5.58371e-08
-0.00138921
2.22819e-07
-0.00194529
4.9733e-07
-0.00250165
8.74962e-07
-0.00305858
1.34573e-06
-0.00361597
1.9023e-06
-0.00417407
2.52741e-06
-0.00473296
3.2116e-06
-0.00529256
3.93099e-06
-0.00585336
4.67242e-06
-0.00641491
5.40845e-06
-0.00697786
6.115e-06
-0.00754193
6.77029e-06
-0.0081072
7.32348e-06
-0.00867433
7.78451e-06
-0.00924199
8.04195e-06
-0.00981313
8.18882e-06
-0.0103825
7.97325e-06
-0.0109594
7.74377e-06
-0.0115293
6.85782e-06
-0.0121132
6.00838e-06
-0.012684
4.35768e-06
-0.0132746
2.58917e-06
-0.00027785
-0.000833602
5.93486e-08
-0.00138949
2.36823e-07
-0.00194567
5.28611e-07
-0.00250213
9.29915e-07
-0.00305913
1.43021e-06
-0.00361659
2.02133e-06
-0.00417475
2.68511e-06
-0.00473368
3.41081e-06
-0.0052933
4.17342e-06
-0.00585409
4.95844e-06
-0.00641562
5.73723e-06
-0.00697852
6.48501e-06
-0.00754249
7.17807e-06
-0.00810767
7.76624e-06
-0.00867458
8.25442e-06
-0.00924214
8.53476e-06
-0.00981291
8.68843e-06
-0.0103823
8.4708e-06
-0.0109585
8.20707e-06
-0.0115284
7.28348e-06
-0.0121115
6.37301e-06
-0.0126823
4.65333e-06
-0.013272
2.76001e-06
-0.00027791
-0.000833779
6.2819e-08
-0.00138978
2.50668e-07
-0.00194607
5.59563e-07
-0.00250263
9.84356e-07
-0.00305972
1.51401e-06
-0.00361725
2.13957e-06
-0.00417547
2.84194e-06
-0.00473444
3.60903e-06
-0.00529409
4.41454e-06
-0.00585487
5.24246e-06
-0.00641637
6.06261e-06
-0.00697921
6.84941e-06
-0.00754308
7.57707e-06
-0.00810816
8.19649e-06
-0.00867486
8.70812e-06
-0.00924229
9.00819e-06
-0.00981269
9.16613e-06
-0.010382
8.94903e-06
-0.0109576
8.64551e-06
-0.0115275
7.67671e-06
-0.0121098
6.70461e-06
-0.0126804
4.89733e-06
-0.0132692
2.90715e-06
-0.000277972
-0.000833967
6.62513e-08
-0.00139009
2.6436e-07
-0.0019465
5.90175e-07
-0.00250315
1.03822e-06
-0.00306035
1.59697e-06
-0.00361796
2.25674e-06
-0.00417624
2.99752e-06
-0.00473524
3.80593e-06
-0.00529492
4.65428e-06
-0.00585569
5.52495e-06
-0.00641715
6.38594e-06
-0.00697994
7.21057e-06
-0.00754369
7.97065e-06
-0.00810867
8.61801e-06
-0.00867516
9.14896e-06
-0.00924244
9.46468e-06
-0.00981247
9.62526e-06
-0.0103817
9.41064e-06
-0.0109566
9.06527e-06
-0.0115265
8.05103e-06
-0.012108
7.00976e-06
-0.0126784
5.05624e-06
-0.0132663
3.03308e-06
-0.000278039
-0.000834165
6.96529e-08
-0.00139041
2.7792e-07
-0.00194694
6.20468e-07
-0.00250371
1.09148e-06
-0.00306101
1.67894e-06
-0.0036187
2.37247e-06
-0.00417705
3.15122e-06
-0.00473609
4.00062e-06
-0.00529579
4.89163e-06
-0.00585655
5.80504e-06
-0.00641798
6.70692e-06
-0.0069807
7.5692e-06
-0.00754434
8.36094e-06
-0.0081092
9.03428e-06
-0.00867548
9.58113e-06
-0.0092426
9.90758e-06
-0.00981225
1.00668e-05
-0.0103814
9.85213e-06
-0.0109556
9.46595e-06
-0.0115255
8.4134e-06
-0.0121061
7.3079e-06
-0.0126764
5.27818e-06
-0.0132633
3.1658e-06
-0.000278108
-0.000834373
7.30272e-08
-0.00139075
2.91363e-07
-0.00194742
6.50446e-07
-0.0025043
1.14407e-06
-0.0030617
1.75971e-06
-0.00361947
2.4863e-06
-0.0041779
3.30219e-06
-0.00473698
4.19177e-06
-0.0052967
5.12479e-06
-0.00585745
6.08061e-06
-0.00641884
7.02344e-06
-0.00698149
7.9237e-06
-0.00754502
8.74756e-06
-0.00810975
9.44679e-06
-0.00867581
1.00084e-05
-0.00924276
1.03422e-05
-0.00981203
1.04935e-05
-0.010381
1.02661e-05
-0.0109546
9.84601e-06
-0.0115244
8.75544e-06
-0.012104
7.588e-06
-0.0126743
5.49606e-06
-0.0132601
3.28978e-06
-0.000278181
-0.000834592
7.63647e-08
-0.00139111
3.04644e-07
-0.00194791
6.80004e-07
-0.00250492
1.19579e-06
-0.00306242
1.8389e-06
-0.00362029
2.59756e-06
-0.00417879
3.44936e-06
-0.00473791
4.37779e-06
-0.00529765
5.3515e-06
-0.00585839
6.34869e-06
-0.00641974
7.33197e-06
-0.00698231
8.27031e-06
-0.00754571
9.12712e-06
-0.00811032
9.85335e-06
-0.00867614
1.0431e-05
-0.00924291
1.07725e-05
-0.00981181
1.09147e-05
-0.0103806
1.06708e-05
-0.0109535
1.02156e-05
-0.0115232
9.08802e-06
-0.0121019
7.85777e-06
-0.012672
5.69614e-06
-0.0132568
3.40667e-06
-0.000278258
-0.00083482
7.96392e-08
-0.00139149
3.1766e-07
-0.00194842
7.0892e-07
-0.00250556
1.24627e-06
-0.00306318
1.91595e-06
-0.00362114
2.7055e-06
-0.00417972
3.59168e-06
-0.00473889
4.55716e-06
-0.00529865
5.56965e-06
-0.00585937
6.60642e-06
-0.00642068
7.62874e-06
-0.00698317
8.60446e-06
-0.00754644
9.49456e-06
-0.00811089
1.0249e-05
-0.00867648
1.08449e-05
-0.00924305
1.11964e-05
-0.00981156
1.13315e-05
-0.0103801
1.10733e-05
-0.0109524
1.05787e-05
-0.011522
9.4173e-06
-0.0120998
8.12337e-06
-0.0126697
5.89062e-06
-0.0132534
3.51937e-06
-0.000278337
-0.000835058
8.27925e-08
-0.00139188
3.30188e-07
-0.00194896
7.36732e-07
-0.00250623
1.29476e-06
-0.00306397
1.98986e-06
-0.00362203
2.8088e-06
-0.00418068
3.72754e-06
-0.0047399
4.72793e-06
-0.00529969
5.77678e-06
-0.00586039
6.85061e-06
-0.00642165
7.90961e-06
-0.00698406
8.92088e-06
-0.0075472
9.84342e-06
-0.00811149
1.06265e-05
-0.00867683
1.12428e-05
-0.00924318
1.16072e-05
-0.0098113
1.17392e-05
-0.0103796
1.14693e-05
-0.0109512
1.09348e-05
-0.0115207
9.74613e-06
-0.0120975
8.39209e-06
-0.0126674
6.08458e-06
-0.0132499
3.63068e-06
-0.00027842
-0.000835306
8.57469e-08
-0.00139229
3.4193e-07
-0.00194952
7.6281e-07
-0.00250692
1.34025e-06
-0.00306479
2.05922e-06
-0.00362294
2.90574e-06
-0.00418168
3.85495e-06
-0.00474095
4.88785e-06
-0.00530076
5.97034e-06
-0.00586145
7.07825e-06
-0.00642267
8.17085e-06
-0.00698498
9.21471e-06
-0.00754798
1.01674e-05
-0.00811211
1.09779e-05
-0.00867719
1.16152e-05
-0.00924331
1.19952e-05
-0.00981103
1.21292e-05
-0.0103791
1.18521e-05
-0.01095
1.12819e-05
-0.0115193
1.00747e-05
-0.0120952
8.66536e-06
-0.0126649
6.28483e-06
-0.0132463
3.74444e-06
-0.000278506
-0.000835562
8.84126e-08
-0.00139271
3.52535e-07
-0.0019501
7.8641e-07
-0.00250764
1.38152e-06
-0.00306564
2.1223e-06
-0.00362389
2.99412e-06
-0.00418271
3.97133e-06
-0.00474203
5.03405e-06
-0.00530187
6.14726e-06
-0.00586254
7.28603e-06
-0.00642371
8.4087e-06
-0.00698593
9.48147e-06
-0.00754879
1.04608e-05
-0.00811275
1.12958e-05
-0.00867757
1.19526e-05
-0.00924344
1.23485e-05
-0.00981075
1.24883e-05
-0.0103785
1.22114e-05
-0.0109488
1.16197e-05
-0.0115179
1.03946e-05
-0.0120929
8.93654e-06
-0.0126623
6.49208e-06
-0.0132426
3.86245e-06
-0.000278594
-0.000835826
9.07027e-08
-0.00139314
3.61661e-07
-0.00195069
8.06777e-07
-0.00250838
1.41727e-06
-0.00306651
2.17721e-06
-0.00362487
3.07142e-06
-0.00418378
4.07358e-06
-0.00474314
5.16302e-06
-0.00530301
6.30372e-06
-0.00586367
7.46995e-06
-0.00642478
8.619e-06
-0.00698691
9.71666e-06
-0.00754962
1.07183e-05
-0.00811341
1.15736e-05
-0.00867797
1.22464e-05
-0.00924358
1.26556e-05
-0.00981047
1.28011e-05
-0.0103779
1.25278e-05
-0.0109476
1.19261e-05
-0.0115164
1.06848e-05
-0.0120904
9.18682e-06
-0.0126597
6.69661e-06
-0.0132387
3.98029e-06
-0.000278685
-0.000836097
9.25455e-08
-0.00139359
3.69019e-07
-0.0019513
8.23254e-07
-0.00250914
1.44633e-06
-0.0030674
2.2221e-06
-0.00362587
3.13505e-06
-0.00418487
4.15835e-06
-0.00474428
5.27068e-06
-0.00530417
6.43511e-06
-0.00586481
7.62506e-06
-0.00642588
8.79667e-06
-0.00698791
9.91511e-06
-0.00755048
1.09348e-05
-0.00811408
1.18055e-05
-0.00867838
1.24896e-05
-0.00924372
1.29077e-05
-0.00981019
1.30557e-05
-0.0103773
1.27839e-05
-0.0109464
1.21713e-05
-0.0115149
1.09216e-05
-0.0120879
9.39083e-06
-0.0126569
6.87246e-06
-0.0132348
4.08039e-06
-0.000278777
-0.000836373
9.3892e-08
-0.00139404
3.74404e-07
-0.00195193
8.35347e-07
-0.00250992
1.46775e-06
-0.00306832
2.25539e-06
-0.00362689
3.18261e-06
-0.00418598
4.2223e-06
-0.00474545
5.35272e-06
-0.00530536
6.53621e-06
-0.00586598
7.74544e-06
-0.006427
8.93538e-06
-0.00698893
1.00705e-05
-0.00755135
1.11037e-05
-0.00811477
1.19852e-05
-0.0086788
1.26757e-05
-0.00924387
1.30975e-05
-0.00980992
1.32435e-05
-0.0103767
1.29695e-05
-0.0109451
1.23445e-05
-0.0115134
1.10896e-05
-0.0120854
9.52211e-06
-0.0126541
6.97521e-06
-0.0132307
4.12869e-06
-0.000278871
-0.000836653
9.47293e-08
-0.0013945
3.77755e-07
-0.00195256
8.42883e-07
-0.0025107
1.48114e-06
-0.00306924
2.27631e-06
-0.00362793
3.21276e-06
-0.00418711
4.26329e-06
-0.00474663
5.40612e-06
-0.00530657
6.603e-06
-0.00586717
7.82643e-06
-0.00642813
9.02987e-06
-0.00698996
1.01776e-05
-0.00755223
1.12202e-05
-0.00811546
1.2109e-05
-0.00867922
1.28009e-05
-0.00924401
1.32225e-05
-0.00980964
1.33609e-05
-0.0103761
1.30812e-05
-0.0109438
1.24421e-05
-0.0115118
1.11843e-05
-0.0120828
9.56905e-06
-0.0126513
6.96851e-06
-0.0132265
4.09911e-06
-0.000278966
-0.000836936
9.54368e-08
-0.00139496
3.80579e-07
-0.0019532
8.49221e-07
-0.0025115
1.49239e-06
-0.00307018
2.2939e-06
-0.00362898
3.23825e-06
-0.00418825
4.29831e-06
-0.00474783
5.45251e-06
-0.0053078
6.66249e-06
-0.00586838
7.90071e-06
-0.00642928
9.11988e-06
-0.006991
1.02837e-05
-0.00755312
1.13415e-05
-0.00811615
1.22437e-05
-0.00867964
1.29453e-05
-0.00924415
1.33739e-05
-0.00980936
1.35135e-05
-0.0103754
1.32353e-05
-0.0109426
1.25911e-05
-0.0115102
1.13345e-05
-0.0120802
9.69273e-06
-0.0126484
7.06077e-06
-0.0132224
4.20229e-06
-0.000279061
-0.000837221
9.57458e-08
-0.00139543
3.81805e-07
-0.00195384
8.51951e-07
-0.0025123
1.4972e-06
-0.00307112
2.30141e-06
-0.00363004
3.2492e-06
-0.0041894
4.31368e-06
-0.00474904
5.47361e-06
-0.00530903
6.69091e-06
-0.00586959
7.93831e-06
-0.00643044
9.16848e-06
-0.00699206
1.03448e-05
-0.00755402
1.14158e-05
-0.00811686
1.23308e-05
-0.00868007
1.30433e-05
-0.00924429
1.348e-05
-0.00980908
1.3623e-05
-0.0103748
1.33469e-05
-0.0109413
1.26981e-05
-0.0115086
1.14402e-05
-0.0120776
9.78646e-06
-0.0126455
7.1472e-06
-0.0132183
4.38862e-06
-0.000279157
-0.000837507
9.55454e-08
-0.0013959
3.80993e-07
-0.00195448
8.50097e-07
-0.00251311
1.49387e-06
-0.00307207
2.29621e-06
-0.00363111
3.24189e-06
-0.00419056
4.30423e-06
-0.00475025
5.46244e-06
-0.00531028
6.67886e-06
-0.00587082
7.92691e-06
-0.00643162
9.15957e-06
-0.00699313
1.03406e-05
-0.00755493
1.14185e-05
-0.00811757
1.23419e-05
-0.00868051
1.30629e-05
-0.00924443
1.35068e-05
-0.0098088
1.3653e-05
-0.0103742
1.33782e-05
-0.0109401
1.27248e-05
-0.0115069
1.14677e-05
-0.012075
9.80501e-06
-0.0126426
7.15815e-06
-0.0132141
3.99389e-06
-0.000279252
-0.000837792
9.48719e-08
-0.00139637
3.78298e-07
-0.00195513
8.44047e-07
-0.00251391
1.48318e-06
-0.00307302
2.27964e-06
-0.00363217
3.21839e-06
-0.00419172
4.27295e-06
-0.00475147
5.42302e-06
-0.00531153
6.63131e-06
-0.00587206
7.87209e-06
-0.0064328
9.099e-06
-0.00699421
1.02769e-05
-0.00755585
1.13546e-05
-0.00811829
1.22813e-05
-0.00868096
1.30083e-05
-0.00924458
1.34599e-05
-0.00980853
1.36122e-05
-0.0103735
1.33417e-05
-0.0109388
1.26856e-05
-0.0115053
1.14288e-05
-0.0120723
9.75334e-06
-0.0126396
7.14154e-06
-0.0132098
3.94744e-06
-0.000279347
-0.000838075
9.37515e-08
-0.00139684
3.73832e-07
-0.00195577
8.34088e-07
-0.0025147
1.4657e-06
-0.00307396
2.25276e-06
-0.00363322
3.18049e-06
-0.00419287
4.22261e-06
-0.00475268
5.35926e-06
-0.00531277
6.55351e-06
-0.00587328
7.78039e-06
-0.00643398
8.99422e-06
-0.00699528
1.01612e-05
-0.00755678
1.12312e-05
-0.00811902
1.21549e-05
-0.00868141
1.28839e-05
-0.00924473
1.33427e-05
-0.00980826
1.35051e-05
-0.0103728
1.32461e-05
-0.0109376
1.2596e-05
-0.0115036
1.13433e-05
-0.0120697
9.64775e-06
-0.0126367
7.09212e-06
-0.0132056
4.19542e-06
-0.000279441
-0.000838355
9.22112e-08
-0.0013973
3.67708e-07
-0.0019564
8.20488e-07
-0.00251549
1.44197e-06
-0.00307488
2.21649e-06
-0.00363426
3.12966e-06
-0.00419401
4.1555e-06
-0.00475387
5.2746e-06
-0.005314
6.45031e-06
-0.0058745
7.65829e-06
-0.00643515
8.85337e-06
-0.00699635
1.00031e-05
-0.0075577
1.10584e-05
-0.00811975
1.1972e-05
-0.00868187
1.26968e-05
-0.0092449
1.31592e-05
-0.00980801
1.33328e-05
-0.0103722
1.3092e-05
-0.0109363
1.2462e-05
-0.0115019
1.12314e-05
-0.0120672
9.54388e-06
-0.0126338
7.01565e-06
-0.0132014
4.17086e-06
-0.000279533
-0.00083863
9.0291e-08
-0.00139775
3.60084e-07
-0.00195702
8.03591e-07
-0.00251627
1.41256e-06
-0.0030758
2.17175e-06
-0.00363529
3.06724e-06
-0.00419513
4.07357e-06
-0.00475505
5.17184e-06
-0.0053152
6.32572e-06
-0.00587569
7.51139e-06
-0.00643629
8.68399e-06
-0.00699741
9.81212e-06
-0.00755861
1.08473e-05
-0.00812047
1.17449e-05
-0.00868234
1.24585e-05
-0.00924507
1.29183e-05
-0.00980777
1.30992e-05
-0.0103716
1.28774e-05
-0.0109351
1.22765e-05
-0.0115002
1.10856e-05
-0.0120646
9.43427e-06
-0.012631
6.93762e-06
-0.0131973
4.12205e-06
-0.000279623
-0.0008389
8.80496e-08
-0.00139819
3.51186e-07
-0.00195763
7.83879e-07
-0.00251702
1.37828e-06
-0.00307669
2.11966e-06
-0.0036363
2.99474e-06
-0.00419623
3.97869e-06
-0.0047562
5.05334e-06
-0.00531639
6.18283e-06
-0.00587686
7.3439e-06
-0.00643742
8.49192e-06
-0.00699844
9.59631e-06
-0.00755951
1.06088e-05
-0.00812119
1.14864e-05
-0.0086828
1.21835e-05
-0.00924525
1.2634e-05
-0.00980756
1.28151e-05
-0.010371
1.26073e-05
-0.0109339
1.20358e-05
-0.0114985
1.08919e-05
-0.0120621
9.29092e-06
-0.0126281
6.85654e-06
-0.0131932
4.06814e-06
-0.000279711
-0.000839163
8.55621e-08
-0.00139863
3.41307e-07
-0.00195822
7.61974e-07
-0.00251777
1.34015e-06
-0.00307757
2.06167e-06
-0.00363728
2.91395e-06
-0.0041973
3.87297e-06
-0.00475733
4.92142e-06
-0.00531755
6.02423e-06
-0.00587801
7.15881e-06
-0.00643853
8.28099e-06
-0.00699945
9.36097e-06
-0.00756039
1.03503e-05
-0.00812188
1.12073e-05
-0.00868325
1.18859e-05
-0.00924543
1.2323e-05
-0.00980735
1.24975e-05
-0.0103704
1.22953e-05
-0.0109328
1.17455e-05
-0.0114969
1.06466e-05
-0.0120597
9.10872e-06
-0.0126254
6.77434e-06
-0.0131891
4.00877e-06
-0.000279796
-0.000839418
8.29112e-08
-0.00139905
3.30769e-07
-0.0019588
7.38576e-07
-0.00251849
1.29934e-06
-0.00307842
1.99943e-06
-0.00363824
2.82701e-06
-0.00419835
3.75888e-06
-0.00475843
4.77874e-06
-0.00531868
5.8525e-06
-0.00587913
6.95858e-06
-0.00643961
8.05359e-06
-0.00700044
9.10874e-06
-0.00756125
1.00756e-05
-0.00812256
1.09134e-05
-0.00868368
1.15752e-05
-0.00924561
1.19995e-05
-0.00980715
1.21649e-05
-0.0103698
1.19622e-05
-0.0109316
1.14219e-05
-0.0114954
1.03537e-05
-0.0120574
8.8747e-06
-0.0126226
6.64783e-06
-0.0131851
3.93151e-06
-0.000279879
-0.000839666
8.01738e-08
-0.00139945
3.19877e-07
-0.00195936
7.14351e-07
-0.00251919
1.25697e-06
-0.00307925
1.93463e-06
-0.00363917
2.73615e-06
-0.00419937
3.63912e-06
-0.00475951
4.62828e-06
-0.00531979
5.67061e-06
-0.00588022
6.74584e-06
-0.00644066
7.81168e-06
-0.00700141
8.84079e-06
-0.00756208
9.78517e-06
-0.00812323
1.06054e-05
-0.00868411
1.12541e-05
-0.00924577
1.16698e-05
-0.00980695
1.18302e-05
-0.0103693
1.16279e-05
-0.0109306
1.10916e-05
-0.0114939
1.00398e-05
-0.0120551
8.59202e-06
-0.0126199
6.41914e-06
-0.0131811
3.82117e-06
-0.000279959
-0.000839906
7.74072e-08
-0.00139985
3.0886e-07
-0.0019599
6.89814e-07
-0.00251987
1.21398e-06
-0.00308005
1.86868e-06
-0.00364007
2.64331e-06
-0.00420036
3.51617e-06
-0.00476055
4.47299e-06
-0.00532086
5.48174e-06
-0.00588129
6.52358e-06
-0.00644169
7.55761e-06
-0.00700235
8.55816e-06
-0.0075629
9.47843e-06
-0.00812388
1.02808e-05
-0.00868452
1.09188e-05
-0.00924593
1.13307e-05
-0.00980674
1.14938e-05
-0.0103688
1.12997e-05
-0.0109295
1.07739e-05
-0.0114925
9.73878e-06
-0.012053
8.31336e-06
-0.0126173
6.18614e-06
-0.0131773
3.67771e-06
-0.000280037
-0.000840137
7.46428e-08
-0.00140023
2.97844e-07
-0.00196043
6.65262e-07
-0.00252052
1.17089e-06
-0.00308082
1.80244e-06
-0.00364095
2.54981e-06
-0.00420131
3.39185e-06
-0.00476156
4.31516e-06
-0.00532191
5.28865e-06
-0.00588232
6.2948e-06
-0.00644269
7.29409e-06
-0.00700327
8.26267e-06
-0.0075637
9.15524e-06
-0.00812452
9.93688e-06
-0.00868493
1.05632e-05
-0.00924609
1.09729e-05
-0.00980654
1.11448e-05
-0.0103682
1.09679e-05
-0.0109285
1.04662e-05
-0.0114911
9.45753e-06
-0.0120508
8.05905e-06
-0.0126148
5.9682e-06
-0.0131736
3.49117e-06
-0.000280111
-0.00084036
7.18789e-08
-0.0014006
2.8683e-07
-0.00196093
6.40703e-07
-0.00252115
1.12776e-06
-0.00308157
1.73607e-06
-0.00364179
2.45592e-06
-0.00420224
3.26668e-06
-0.00476253
4.15567e-06
-0.00532291
5.09266e-06
-0.00588332
6.06123e-06
-0.00644366
7.02305e-06
-0.00700417
7.95601e-06
-0.00756448
8.81635e-06
-0.00812515
9.5721e-06
-0.00868535
1.01822e-05
-0.00924626
1.05863e-05
-0.00980636
1.07671e-05
-0.0103677
1.06109e-05
-0.0109275
1.01472e-05
-0.0114897
9.18142e-06
-0.0120488
7.83697e-06
-0.0126123
5.78738e-06
-0.0131702
3.31723e-06
-0.000280183
-0.000840576
6.90926e-08
-0.00140095
2.7573e-07
-0.00196142
6.15952e-07
-0.00252176
1.08427e-06
-0.00308229
1.66911e-06
-0.0036426
2.36111e-06
-0.00420312
3.14007e-06
-0.00476347
3.99397e-06
-0.00532388
4.89342e-06
-0.00588428
5.82287e-06
-0.00644459
6.74501e-06
-0.00700503
7.63906e-06
-0.00756524
8.4628e-06
-0.00812576
9.18676e-06
-0.00868575
9.77391e-06
-0.00924644
1.01648e-05
-0.0098062
1.03474e-05
-0.0103673
1.02058e-05
-0.0109265
9.78341e-06
-0.0114883
8.86827e-06
-0.0120467
7.60968e-06
-0.0126098
5.64121e-06
-0.0131668
3.29206e-06
-0.000280253
-0.000840782
6.62345e-08
-0.00140129
2.64349e-07
-0.00196189
5.90576e-07
-0.00252234
1.03968e-06
-0.00308298
1.60042e-06
-0.00364338
2.26376e-06
-0.00420398
3.00994e-06
-0.00476436
3.82756e-06
-0.00532481
4.68811e-06
-0.00588521
5.57676e-06
-0.00644549
6.45717e-06
-0.00700585
7.30942e-06
-0.00756596
8.09286e-06
-0.00812634
8.7797e-06
-0.00868614
9.33714e-06
-0.00924663
9.70575e-06
-0.00980605
9.87869e-06
-0.0103669
9.73822e-06
-0.0109256
9.34705e-06
-0.0114871
8.47287e-06
-0.0120448
7.30516e-06
-0.0126075
5.42967e-06
-0.0131635
3.22654e-06
-0.000280319
-0.000840981
6.32373e-08
-0.00140162
2.52409e-07
-0.00196234
5.63952e-07
-0.0025229
9.92876e-07
-0.00308365
1.52827e-06
-0.00364412
2.16144e-06
-0.00420479
2.87302e-06
-0.00476522
3.65234e-06
-0.0053257
4.47166e-06
-0.00588609
5.3172e-06
-0.00644634
6.15296e-06
-0.00700664
6.96081e-06
-0.00756665
7.69981e-06
-0.0081269
8.3461e-06
-0.00868651
8.8664e-06
-0.0092468
9.2068e-06
-0.00980591
9.35526e-06
-0.0103665
9.205e-06
-0.0109247
8.8222e-06
-0.0114859
7.97734e-06
-0.0120429
6.87672e-06
-0.0126053
5.0964e-06
-0.0131603
3.04346e-06
-0.000280382
-0.00084117
6.03577e-08
-0.00140193
2.40931e-07
-0.00196277
5.38365e-07
-0.00252344
9.4794e-07
-0.00308428
1.45903e-06
-0.00364483
2.06334e-06
-0.00420557
2.74183e-06
-0.00476604
3.48477e-06
-0.00532654
4.265e-06
-0.00588692
5.07027e-06
-0.00644715
5.8643e-06
-0.00700738
6.63185e-06
-0.00756729
7.3302e-06
-0.00812742
7.94153e-06
-0.00868686
8.42798e-06
-0.00924695
8.74604e-06
-0.00980577
8.86903e-06
-0.0103661
8.71185e-06
-0.0109239
8.32682e-06
-0.0114848
7.5107e-06
-0.0120411
6.45216e-06
-0.0126032
4.75661e-06
-0.0131573
2.81608e-06
-0.000280443
-0.000841351
5.78073e-08
-0.00140223
2.30784e-07
-0.00196318
5.15788e-07
-0.00252395
9.08367e-07
-0.00308488
1.3982e-06
-0.00364551
1.97736e-06
-0.00420631
2.62728e-06
-0.00476682
3.33894e-06
-0.00532734
4.08637e-06
-0.00588771
4.85801e-06
-0.00644792
5.61893e-06
-0.00700808
6.35438e-06
-0.00756791
7.02408e-06
-0.0081279
7.61022e-06
-0.00868717
8.07887e-06
-0.00924707
8.38451e-06
-0.00980562
8.50275e-06
-0.0103657
8.34532e-06
-0.0109231
7.97969e-06
-0.0114837
7.19068e-06
-0.0120394
6.19163e-06
-0.0126013
4.55521e-06
-0.0131544
2.73857e-06
-0.000280501
-0.000841525
5.50564e-08
-0.00140251
2.19843e-07
-0.00196357
4.91437e-07
-0.00252444
8.65684e-07
-0.00308546
1.33255e-06
-0.00364616
1.88452e-06
-0.00420702
2.50355e-06
-0.00476757
3.18138e-06
-0.00532811
3.89329e-06
-0.00588848
4.62843e-06
-0.00644865
5.35346e-06
-0.00700875
6.05391e-06
-0.0075685
6.69274e-06
-0.00812836
7.25133e-06
-0.00868748
7.70069e-06
-0.00924719
7.99235e-06
-0.00980548
8.10788e-06
-0.0103653
7.95136e-06
-0.0109223
7.6071e-06
-0.0114827
6.84396e-06
-0.0120378
5.89182e-06
-0.0125995
4.30357e-06
-0.0131517
2.65646e-06
-0.000280556
-0.00084169
5.2077e-08
-0.00140278
2.07998e-07
-0.00196394
4.65081e-07
-0.00252491
8.1948e-07
-0.00308601
1.26149e-06
-0.00364678
1.78406e-06
-0.0042077
2.36974e-06
-0.00476828
3.011e-06
-0.00532885
3.68455e-06
-0.0058892
4.38019e-06
-0.00644936
5.06638e-06
-0.00700939
5.72887e-06
-0.00756906
6.33427e-06
-0.0081288
6.86268e-06
-0.00868776
7.29007e-06
-0.00924731
7.56535e-06
-0.00980533
7.67968e-06
-0.010365
7.52817e-06
-0.0109215
7.21352e-06
-0.0114818
6.48305e-06
-0.0120362
5.57056e-06
-0.0125978
4.00587e-06
-0.013149
2.45755e-06
-0.000280609
-0.000841846
4.88445e-08
-0.00140304
1.95158e-07
-0.0019643
4.36516e-07
-0.00252535
7.69429e-07
-0.00308653
1.18453e-06
-0.00364737
1.67535e-06
-0.00420834
2.22509e-06
-0.00476895
2.82702e-06
-0.00532954
3.4593e-06
-0.00588989
4.11237e-06
-0.00645002
4.75688e-06
-0.00701
5.3784e-06
-0.00756959
5.94823e-06
-0.00812923
6.44366e-06
-0.00868803
6.84657e-06
-0.00924742
7.10151e-06
-0.00980518
7.21483e-06
-0.0103647
7.06931e-06
-0.0109207
6.79107e-06
-0.0114809
6.09988e-06
-0.0120346
5.27677e-06
-0.0125962
4.01226e-06
-0.0131466
2.31163e-06
-0.000280658
-0.000841993
4.53369e-08
-0.00140328
1.81238e-07
-0.00196463
4.05562e-07
-0.00252576
7.15199e-07
-0.00308702
1.1012e-06
-0.00364792
1.55774e-06
-0.00420895
2.06882e-06
-0.00476959
2.62848e-06
-0.0053302
3.21652e-06
-0.00589053
3.82382e-06
-0.00645064
4.42382e-06
-0.00701057
5.00131e-06
-0.00757008
5.53369e-06
-0.00812963
5.99364e-06
-0.00868828
6.37061e-06
-0.00924754
6.60169e-06
-0.00980503
6.71478e-06
-0.0103644
6.57279e-06
-0.01092
6.32396e-06
-0.0114801
5.65763e-06
-0.0120332
4.96555e-06
-0.0125947
3.63595e-06
-0.0131443
2.16131e-06
-0.000280703
-0.00084213
4.1544e-08
-0.00140351
1.66196e-07
-0.00196494
3.72101e-07
-0.00252615
6.56574e-07
-0.00308748
1.01113e-06
-0.00364843
1.43072e-06
-0.00420951
1.90021e-06
-0.00477017
2.41453e-06
-0.0053308
2.95519e-06
-0.00589113
3.51337e-06
-0.00645122
4.06601e-06
-0.0070111
4.59617e-06
-0.00757054
5.08936e-06
-0.00813001
5.51111e-06
-0.00868851
5.86192e-06
-0.00924765
6.06701e-06
-0.00980487
6.1847e-06
-0.0103642
6.04496e-06
-0.0109194
5.82148e-06
-0.0114794
5.1503e-06
-0.0120318
4.60526e-06
-0.0125933
3.33024e-06
-0.0131421
1.98322e-06
-0.000280745
-0.000842255
3.74755e-08
-0.00140371
1.50052e-07
-0.00196522
3.3614e-07
-0.0025265
5.93491e-07
-0.0030879
9.14202e-07
-0.0036489
1.29406e-06
-0.00421002
1.71891e-06
-0.00477071
2.1846e-06
-0.00533136
2.67459e-06
-0.00589168
3.18009e-06
-0.00645175
3.68262e-06
-0.0070116
4.1619e-06
-0.00757096
4.61424e-06
-0.00813037
4.99428e-06
-0.00868871
5.31983e-06
-0.00924776
5.49657e-06
-0.00980473
5.62362e-06
-0.0103639
5.47815e-06
-0.0109187
5.33335e-06
-0.0114788
4.99409e-06
-0.0120305
4.10053e-06
-0.012592
3.02316e-06
-0.0131401
1.79048e-06
-0.000280783
-0.000842368
3.31581e-08
-0.0014039
1.32885e-07
-0.00196548
2.97799e-07
-0.00252682
5.26128e-07
-0.00308828
8.10555e-07
-0.00364932
1.14795e-06
-0.00421049
1.52509e-06
-0.0047712
1.93878e-06
-0.00533187
2.3746e-06
-0.00589219
2.82355e-06
-0.00645224
3.27343e-06
-0.00701205
3.69809e-06
-0.00757133
4.10852e-06
-0.0081307
4.44173e-06
-0.00868888
4.74601e-06
-0.00924788
4.89093e-06
-0.0098046
5.03137e-06
-0.0103638
4.8504e-06
-0.0109181
4.82248e-06
-0.0114782
4.35676e-06
-0.0120295
3.6677e-06
-0.0125907
2.72095e-06
-0.0131383
1.60616e-06
-0.000280817
-0.000842469
2.86108e-08
-0.00140406
1.14765e-07
-0.00196571
2.57239e-07
-0.0025271
4.5475e-07
-0.00308861
7.00614e-07
-0.0036497
9.93002e-07
-0.0042109
1.31961e-06
-0.00477164
1.67798e-06
-0.00533232
2.05615e-06
-0.00589264
2.44429e-06
-0.00645266
2.83962e-06
-0.00701246
3.20522e-06
-0.00757165
3.57451e-06
-0.00813101
3.85216e-06
-0.00868903
4.14473e-06
-0.00924802
4.25094e-06
-0.00980443
4.43451e-06
-0.0103637
4.56252e-06
-0.0109176
4.15391e-06
-0.0114776
3.76078e-06
-0.0120285
3.20218e-06
-0.0125896
2.3861e-06
-0.0131367
1.40839e-06
-0.000280846
-0.000842555
2.38043e-08
-0.00140421
9.57014e-08
-0.0019659
2.14598e-07
-0.00252735
3.79782e-07
-0.0030889
5.8515e-07
-0.00365002
8.30356e-07
-0.00421126
1.10389e-06