/*--------------------------------*- C++ -*----------------------------------*\
  =========                 |
  \\      /  F ield         | OpenFOAM: The Open Source CFD Toolbox
   \\    /   O peration     | Website:  https://openfoam.org
    \\  /    A nd           | Version:  10
     \\/     M anipulation  |
\*---------------------------------------------------------------------------*/
FoamFile
{
    format      ascii;
    class       volScalarField;
    location    "0.25";
    object      rho;
}
// * * * * * * * * * * * * * * * * * * * * * * * * * * * * * * * * * * * * * //

dimensions      [1 -3 0 0 0 0 0];

internalField   nonuniform List<scalar> 
4176
(
0.0308488
0.0308519
0.0308581
0.0308685
0.0308815
0.030898
0.0309188
0.0309403
0.0309695
0.0309957
0.0310325
0.0310649
0.0311071
0.0311478
0.0311926
0.031244
0.0312873
0.0313551
0.0313935
0.0314791
0.0315111
0.031616
0.0316363
0.0317508
0.0308569
0.0308597
0.030865
0.0308749
0.0308859
0.0309017
0.0309194
0.0309401
0.0309651
0.0309901
0.0310222
0.0310524
0.0310901
0.0311273
0.0311682
0.0312142
0.0312544
0.0313146
0.0313502
0.0314267
0.0314542
0.031554
0.0315749
0.031704
0.0308761
0.0308791
0.0308846
0.0308948
0.0309064
0.0309225
0.0309411
0.0309623
0.0309886
0.0310142
0.0310479
0.0310788
0.0311184
0.0311565
0.0311996
0.0312469
0.0312893
0.0313522
0.0313879
0.0314682
0.0314958
0.0315944
0.0316134
0.0317347
0.0309049
0.0309077
0.0309131
0.030923
0.0309342
0.03095
0.0309681
0.0309885
0.0310143
0.0310389
0.0310722
0.0311017
0.0311409
0.0311772
0.0312201
0.0312655
0.0313076
0.0313705
0.0314016
0.0314843
0.0315095
0.0316068
0.0316247
0.031737
0.0309443
0.0309472
0.0309525
0.0309625
0.0309736
0.0309895
0.0310074
0.0310281
0.0310536
0.0310785
0.0311114
0.0311414
0.0311803
0.0312167
0.0312597
0.0313045
0.0313486
0.0314083
0.0314431
0.0315237
0.0315507
0.0316473
0.0316667
0.0317807
0.0309938
0.0309966
0.0310019
0.0310118
0.0310227
0.0310384
0.031056
0.0310765
0.0311015
0.0311262
0.0311585
0.0311882
0.0312264
0.0312625
0.031305
0.0313489
0.0313933
0.0314501
0.0314883
0.0315649
0.0315927
0.0316882
0.0317085
0.0318239
0.0310537
0.0310565
0.0310617
0.0310716
0.0310823
0.031098
0.0311153
0.0311357
0.0311604
0.031185
0.031217
0.0312464
0.0312844
0.03132
0.0313624
0.0314054
0.0314501
0.0315053
0.0315443
0.031619
0.0316481
0.031742
0.0317626
0.031876
0.0311238
0.0311266
0.0311317
0.0311415
0.0311521
0.0311676
0.0311847
0.0312049
0.0312293
0.0312536
0.0312851
0.0313141
0.0313517
0.0313867
0.0314289
0.031471
0.0315157
0.031569
0.0316093
0.0316813
0.0317114
0.0318038
0.0318249
0.031937
0.0312043
0.0312071
0.0312121
0.0312219
0.0312323
0.0312477
0.0312645
0.0312845
0.0313085
0.0313325
0.0313637
0.0313923
0.0314295
0.0314639
0.0315058
0.031547
0.0315918
0.0316434
0.0316845
0.031754
0.0317852
0.0318757
0.0318971
0.0320074
0.0312951
0.0312979
0.0313029
0.0313125
0.0313228
0.031338
0.0313546
0.0313743
0.031398
0.0314217
0.0314524
0.0314806
0.0315173
0.0315511
0.0315926
0.0316329
0.0316775
0.0317275
0.0317693
0.0318365
0.0318688
0.0319565
0.0319787
0.0320872
0.0313964
0.0313992
0.031404
0.0314136
0.0314237
0.0314387
0.031455
0.0314745
0.0314979
0.0315212
0.0315515
0.0315792
0.0316154
0.0316486
0.0316896
0.031729
0.0317734
0.0318219
0.0318641
0.0319289
0.0319618
0.0320475
0.0320699
0.0321764
0.0315081
0.0315109
0.0315157
0.0315251
0.031535
0.0315499
0.0315659
0.0315851
0.0316081
0.031631
0.0316608
0.031688
0.0317238
0.0317562
0.0317968
0.0318351
0.0318792
0.0319263
0.0319689
0.0320313
0.032065
0.0321479
0.0321707
0.0322751
0.0316304
0.0316332
0.0316378
0.0316472
0.0316568
0.0316715
0.0316872
0.0317061
0.0317287
0.0317512
0.0317806
0.0318072
0.0318424
0.0318742
0.0319142
0.0319515
0.0319952
0.0320408
0.0320837
0.0321437
0.0321778
0.0322585
0.0322813
0.0323834
0.0317633
0.031766
0.0317706
0.0317798
0.0317893
0.0318037
0.0318191
0.0318377
0.0318598
0.0318819
0.0319107
0.0319368
0.0319714
0.0320024
0.0320419
0.0320782
0.0321214
0.0321655
0.0322085
0.0322661
0.0323008
0.0323788
0.0324017
0.0325014
0.0319069
0.0319096
0.0319141
0.0319231
0.0319324
0.0319466
0.0319616
0.0319798
0.0320015
0.0320231
0.0320514
0.0320769
0.0321108
0.032141
0.0321799
0.0322152
0.0322578
0.0323004
0.0323434
0.0323986
0.0324338
0.0325091
0.032532
0.0326292
0.0320613
0.032064
0.0320683
0.0320773
0.0320862
0.0321002
0.0321148
0.0321327
0.0321538
0.0321749
0.0322026
0.0322274
0.0322608
0.0322901
0.0323283
0.0323625
0.0324046
0.0324456
0.0324884
0.0325412
0.0325768
0.0326493
0.0326726
0.0327669
0.0322266
0.0322292
0.0322334
0.0322422
0.0322509
0.0322646
0.0322788
0.0322963
0.0323169
0.0323375
0.0323645
0.0323886
0.0324212
0.0324497
0.0324872
0.0325202
0.0325617
0.0326012
0.0326437
0.0326941
0.03273
0.0327995
0.0328232
0.0329146
0.0324028
0.0324055
0.0324095
0.0324182
0.0324266
0.03244
0.0324538
0.0324708
0.0324908
0.0325108
0.0325371
0.0325605
0.0325924
0.0326199
0.0326566
0.0326885
0.0327292
0.0327672
0.0328092
0.0328572
0.0328934
0.0329599
0.032984
0.0330723
0.0325902
0.0325928
0.0325967
0.0326052
0.0326133
0.0326264
0.0326397
0.0326563
0.0326757
0.0326951
0.0327207
0.0327433
0.0327742
0.0328008
0.0328366
0.0328673
0.0329072
0.0329437
0.0329852
0.0330308
0.0330671
0.0331306
0.033155
0.0332402
0.0327887
0.0327913
0.0327951
0.0328034
0.0328112
0.0328239
0.0328367
0.0328528
0.0328716
0.0328903
0.0329151
0.0329369
0.032967
0.0329925
0.0330274
0.0330568
0.0330958
0.0331307
0.0331716
0.0332148
0.0332513
0.0333117
0.0333363
0.0334183
0.0329986
0.0330012
0.0330048
0.0330129
0.0330203
0.0330326
0.033045
0.0330605
0.0330787
0.0330967
0.0331207
0.0331416
0.0331708
0.0331952
0.0332291
0.0332572
0.0332952
0.0333284
0.0333685
0.0334094
0.0334459
0.0335032
0.033528
0.0336068
0.0332199
0.0332224
0.0332258
0.0332337
0.0332408
0.0332527
0.0332645
0.0332795
0.033297
0.0333142
0.0333374
0.0333574
0.0333856
0.0334089
0.0334418
0.0334684
0.0335055
0.0335369
0.0335762
0.0336148
0.0336511
0.0337051
0.0337301
0.0338056
0.0334527
0.0334552
0.0334584
0.033466
0.0334727
0.0334843
0.0334955
0.0335099
0.0335266
0.0335431
0.0335654
0.0335844
0.0336116
0.0336338
0.0336656
0.0336908
0.0337267
0.0337564
0.0337947
0.033831
0.033867
0.0339178
0.0339429
0.0340148
0.0336971
0.0336995
0.0337026
0.03371
0.0337162
0.0337273
0.0337379
0.0337517
0.0337677
0.0337833
0.0338047
0.0338227
0.0338489
0.0338699
0.0339005
0.0339243
0.0339591
0.033987
0.0340242
0.0340581
0.0340938
0.0341413
0.0341664
0.0342346
0.0339532
0.0339556
0.0339584
0.0339655
0.0339714
0.0339821
0.033992
0.0340052
0.0340203
0.0340351
0.0340555
0.0340725
0.0340976
0.0341173
0.0341468
0.0341691
0.0342027
0.0342287
0.0342649
0.0342964
0.0343317
0.0343757
0.0344008
0.034465
0.034221
0.0342234
0.034226
0.0342329
0.0342383
0.0342485
0.0342578
0.0342704
0.0342846
0.0342986
0.034318
0.0343339
0.0343579
0.0343762
0.0344046
0.0344253
0.0344576
0.0344818
0.0345168
0.034546
0.0345806
0.0346213
0.0346462
0.0347065
0.0345007
0.034503
0.0345054
0.0345121
0.0345171
0.0345268
0.0345355
0.0345473
0.0345607
0.0345738
0.0345922
0.0346069
0.0346297
0.0346468
0.0346738
0.034693
0.034724
0.0347463
0.0347801
0.0348069
0.0348408
0.0348779
0.0349028
0.0349594
0.0347923
0.0347946
0.0347968
0.0348032
0.0348077
0.034817
0.034825
0.0348362
0.0348487
0.0348609
0.0348782
0.0348918
0.0349134
0.0349291
0.0349548
0.0349723
0.035002
0.0350224
0.0350549
0.0350793
0.0351122
0.0351459
0.0351707
0.0352234
0.035096
0.0350982
0.0351002
0.0351063
0.0351104
0.0351192
0.0351266
0.035137
0.0351487
0.0351599
0.0351762
0.0351886
0.035209
0.0352232
0.0352476
0.0352635
0.0352917
0.0353102
0.0353414
0.0353634
0.0353953
0.0354254
0.0354501
0.0354985
0.0354118
0.0354139
0.0354157
0.0354216
0.0354252
0.0354336
0.0354402
0.03545
0.0354608
0.035471
0.0354863
0.0354975
0.0355166
0.0355294
0.0355524
0.0355665
0.0355934
0.0356098
0.0356396
0.0356592
0.03569
0.0357166
0.0357411
0.0357853
0.0357398
0.0357419
0.0357434
0.035749
0.0357522
0.0357601
0.035766
0.0357751
0.035785
0.0357943
0.0358085
0.0358185
0.0358364
0.0358477
0.0358694
0.0358817
0.0359071
0.0359214
0.0359497
0.0359669
0.0359966
0.0360197
0.036044
0.0360837
0.0360801
0.0360821
0.0360835
0.0360888
0.0360915
0.0360989
0.0361041
0.0361125
0.0361215
0.0361299
0.036143
0.0361518
0.0361685
0.0361783
0.0361986
0.0362092
0.036233
0.0362452
0.036272
0.0362867
0.036315
0.036335
0.0363589
0.0363942
0.0364328
0.0364347
0.0364359
0.0364409
0.0364432
0.03645
0.0364546
0.0364622
0.0364704
0.0364778
0.0364898
0.0364975
0.0365129
0.0365213
0.0365402
0.036549
0.0365713
0.0365814
0.0366067
0.0366188
0.0366456
0.0366624
0.036686
0.0367167
0.0367979
0.0367998
0.0368008
0.0368055
0.0368073
0.0368137
0.0368176
0.0368245
0.0368317
0.0368382
0.0368491
0.0368556
0.0368697
0.0368767
0.0368942
0.0369012
0.0369221
0.0369301
0.0369538
0.0369633
0.0369887
0.0370022
0.0370255
0.0370513
0.0371756
0.0371775
0.0371782
0.0371827
0.037184
0.03719
0.0371931
0.0371993
0.0372057
0.0372112
0.037221
0.0372263
0.0372392
0.0372446
0.0372608
0.037266
0.0372855
0.0372913
0.0373135
0.0373204
0.0373444
0.0373545
0.0373771
0.0373984
0.037566
0.0375678
0.0375683
0.0375726
0.0375734
0.0375789
0.0375814
0.0375869
0.0375923
0.0375969
0.0376056
0.0376097
0.0376213
0.0376253
0.03764
0.0376435
0.0376615
0.0376652
0.0376859
0.0376903
0.0377128
0.0377197
0.0377414
0.0377579
0.037969
0.0379708
0.0379711
0.0379752
0.0379756
0.0379806
0.0379824
0.0379872
0.0379918
0.0379954
0.0380031
0.0380059
0.0380163
0.0380188
0.0380321
0.0380338
0.0380503
0.0380519
0.0380711
0.0380729
0.0380942
0.0380979
0.0381184
0.0381301
0.038385
0.0383867
0.0383869
0.0383906
0.0383906
0.0383952
0.0383964
0.0384005
0.0384042
0.0384069
0.0384135
0.0384151
0.0384242
0.0384252
0.0384372
0.0384369
0.038452
0.0384514
0.0384692
0.0384683
0.0384883
0.0384889
0.0385084
0.0385152
0.0388139
0.0388156
0.0388156
0.0388191
0.0388187
0.0388228
0.0388233
0.0388268
0.0388296
0.0388314
0.0388369
0.0388374
0.0388453
0.0388447
0.0388553
0.0388532
0.0388668
0.0388639
0.0388803
0.0388768
0.0388954
0.0388928
0.0389113
0.0389135
0.039256
0.0392577
0.0392574
0.0392607
0.0392598
0.0392635
0.0392633
0.0392662
0.0392681
0.039269
0.0392735
0.0392728
0.0392794
0.0392774
0.0392866
0.0392827
0.0392948
0.0392896
0.0393046
0.0392983
0.0393154
0.0393098
0.0393272
0.0393251
0.0397113
0.0397129
0.0397124
0.0397155
0.0397142
0.0397174
0.0397166
0.0397188
0.0397199
0.0397198
0.0397233
0.0397214
0.0397268
0.0397234
0.0397313
0.0397255
0.0397362
0.0397287
0.0397422
0.0397331
0.0397489
0.0397398
0.0397559
0.0397502
0.0401799
0.0401815
0.0401808
0.0401837
0.0401819
0.0401847
0.0401832
0.0401847
0.040185
0.040184
0.0401864
0.0401834
0.0401876
0.0401826
0.0401892
0.0401817
0.040191
0.0401812
0.0401933
0.0401814
0.0401958
0.0401832
0.0401984
0.0401882
0.040662
0.0406636
0.0406627
0.0406653
0.0406631
0.0406654
0.0406633
0.0406641
0.0406635
0.0406616
0.040663
0.0406588
0.0406618
0.0406554
0.0406606
0.0406513
0.0406592
0.0406471
0.040658
0.0406432
0.0406564
0.0406402
0.0406544
0.0406396
0.0411577
0.0411593
0.0411582
0.0411605
0.0411579
0.0411598
0.0411569
0.0411571
0.0411556
0.0411528
0.0411531
0.0411477
0.0411495
0.0411416
0.0411456
0.0411344
0.041141
0.0411266
0.0411363
0.0411185
0.0411307
0.0411108
0.0411245
0.0411048
0.0416671
0.0416686
0.0416673
0.0416694
0.0416663
0.0416678
0.0416643
0.0416638
0.0416614
0.0416576
0.0416568
0.0416503
0.0416508
0.0416415
0.0416441
0.0416311
0.0416363
0.0416197
0.041628
0.0416074
0.0416188
0.0415951
0.0416082
0.0415841
0.0421902
0.0421917
0.0421902
0.0421921
0.0421885
0.0421895
0.0421853
0.0421841
0.0421809
0.0421762
0.0421743
0.0421665
0.0421659
0.042155
0.0421563
0.0421415
0.0421453
0.0421265
0.0421335
0.0421099
0.0421205
0.0420931
0.0421059
0.0420768
0.0427272
0.0427286
0.0427269
0.0427286
0.0427245
0.0427251
0.0427202
0.0427183
0.0427141
0.0427085
0.0427056
0.0426966
0.0426947
0.0426824
0.0426823
0.0426656
0.0426681
0.0426469
0.0426528
0.042626
0.0426362
0.0426047
0.0426175
0.0425831
0.043278
0.0432794
0.0432774
0.0432789
0.0432743
0.0432745
0.0432689
0.0432663
0.0432613
0.0432547
0.0432507
0.0432405
0.0432374
0.0432236
0.0432222
0.0432036
0.0432048
0.043181
0.0431861
0.043156
0.0431654
0.0431297
0.0431432
0.0431035
0.0438426
0.043844
0.0438418
0.043843
0.043838
0.0438377
0.0438314
0.0438282
0.0438222
0.0438147
0.0438097
0.0437983
0.043794
0.0437786
0.043776
0.0437554
0.0437554
0.0437291
0.0437334
0.0436999
0.0437089
0.0436687
0.0436825
0.0436379
0.0444211
0.0444224
0.04442
0.044421
0.0444155
0.0444148
0.0444078
0.0444039
0.0443971
0.0443886
0.0443825
0.0443699
0.0443644
0.0443474
0.0443437
0.0443211
0.04432
0.044291
0.0442947
0.0442577
0.0442666
0.0442216
0.0442358
0.0441863
0.0450133
0.0450145
0.045012
0.0450127
0.0450068
0.0450057
0.044998
0.0449934
0.0449857
0.0449763
0.0449692
0.0449554
0.0449488
0.0449302
0.0449255
0.0449006
0.0448986
0.0448669
0.0448699
0.044829
0.044839
0.0447889
0.0448028
0.0447489
0.0456191
0.0456204
0.0456177
0.0456182
0.0456118
0.0456102
0.0456019
0.0455967
0.0455882
0.0455778
0.0455698
0.0455546
0.0455471
0.0455267
0.0455212
0.045494
0.0454914
0.0454567
0.0454595
0.0454146
0.0454244
0.0453706
0.0453841
0.0453257
0.0462386
0.0462398
0.0462369
0.0462372
0.0462304
0.0462284
0.0462194
0.0462136
0.0462043
0.046193
0.0461841
0.0461676
0.0461593
0.046137
0.0461308
0.0461012
0.0460983
0.0460599
0.0460637
0.0460142
0.046024
0.0459665
0.0459794
0.0459168
0.0468714
0.0468726
0.0468695
0.0468696
0.0468624
0.0468601
0.0468505
0.046844
0.046834
0.0468218
0.0468121
0.0467942
0.0467853
0.046761
0.0467545
0.046722
0.0467196
0.0466775
0.0466809
0.0466287
0.046637
0.0465768
0.0465889
0.0465222
0.0475175
0.0475187
0.0475154
0.0475154
0.0475077
0.0475051
0.0474948
0.0474878
0.0474771
0.0474639
0.0474537
0.0474342
0.0474251
0.0473984
0.0473922
0.0473564
0.0473546
0.0473088
0.0473121
0.0472571
0.0472646
0.0472011
0.0472125
0.0471419
0.0481766
0.0481778
0.0481743
0.0481742
0.0481661
0.0481632
0.0481524
0.0481448
0.0481335
0.0481192
0.0481089
0.0480874
0.0480788
0.048049
0.0480437
0.0480047
0.0480025
0.0479552
0.0479565
0.0478997
0.0479059
0.0478398
0.0478504
0.0477759
0.0488484
0.0488498
0.0488461
0.0488459
0.0488374
0.0488343
0.0488229
0.0488147
0.0488033
0.0487874
0.0487776
0.0487536
0.0487457
0.0487137
0.0487075
0.0486676
0.0486638
0.0486148
0.0486152
0.0485562
0.0485613
0.0484924
0.0485022
0.0484242
0.049533
0.0495344
0.0495303
0.0495304
0.0495212
0.0495182
0.0495062
0.0494973
0.0494861
0.0494686
0.0494589
0.0494338
0.0494248
0.049392
0.0493847
0.0493436
0.0493388
0.0492883
0.0492874
0.0492265
0.0492304
0.0491592
0.0491682
0.0490867
0.0502299
0.0502314
0.050227
0.0502273
0.0502174
0.0502147
0.0502019
0.0501929
0.0501809
0.0501632
0.0501526
0.0501269
0.0501171
0.0500835
0.050075
0.0500331
0.0500269
0.0499754
0.0499731
0.0499105
0.0499135
0.0498397
0.0498481
0.0497632
0.050939
0.0509405
0.0509361
0.0509361
0.0509263
0.0509232
0.0509098
0.0509014
0.0508881
0.0508703
0.050859
0.0508327
0.0508222
0.0507878
0.0507784
0.0507356
0.0507282
0.0506755
0.0506723
0.050608
0.0506098
0.0505341
0.0505416
0.0504537
0.0516601
0.0516617
0.0516573
0.0516571
0.0516472
0.0516439
0.0516301
0.051622
0.051607
0.0515904
0.0515774
0.0515511
0.0515398
0.0515048
0.0514945
0.0514509
0.0514426
0.0513889
0.0513845
0.0513188
0.0513197
0.0512418
0.0512487
0.0511579
0.0523931
0.0523946
0.0523903
0.05239
0.05238
0.0523767
0.0523625
0.0523544
0.0523385
0.0523225
0.0523077
0.0522823
0.0522696
0.0522343
0.0522231
0.0521789
0.0521696
0.052115
0.0521095
0.0520427
0.0520424
0.051963
0.051969
0.0518755
0.0531378
0.0531394
0.053135
0.0531348
0.0531246
0.0531212
0.0531068
0.0530986
0.0530821
0.0530663
0.0530505
0.0530255
0.0530113
0.0529761
0.0529641
0.0529193
0.0529091
0.0528535
0.0528471
0.0527792
0.052778
0.0526968
0.0527023
0.0526063
0.0538942
0.0538958
0.0538914
0.0538912
0.0538809
0.0538775
0.0538628
0.0538546
0.0538376
0.053822
0.0538051
0.0537806
0.053765
0.0537302
0.0537169
0.0536718
0.0536607
0.0536043
0.0535969
0.0535281
0.053526
0.0534434
0.053448
0.0533499
0.0546622
0.0546639
0.0546595
0.0546593
0.0546488
0.0546454
0.0546305
0.0546223
0.0546048
0.0545894
0.0545716
0.0545472
0.0545308
0.0544957
0.0544814
0.054436
0.0544241
0.054367
0.0543586
0.054289
0.0542859
0.0542019
0.054206
0.0541059
0.0554419
0.0554437
0.0554392
0.0554391
0.0554284
0.055425
0.0554097
0.0554015
0.0553835
0.0553682
0.0553496
0.0553252
0.0553077
0.0552728
0.0552574
0.0552118
0.0551989
0.055141
0.055132
0.0550613
0.0550574
0.0549724
0.0549757
0.0548739
0.0562334
0.0562353
0.0562306
0.0562305
0.0562196
0.0562162
0.0562005
0.0561921
0.0561736
0.0561584
0.0561387
0.0561145
0.056096
0.0560607
0.0560446
0.0559983
0.0559848
0.0559265
0.0559163
0.055845
0.0558402
0.055754
0.0557567
0.0556534
0.0570365
0.0570384
0.0570336
0.0570335
0.0570223
0.0570187
0.0570026
0.056994
0.0569749
0.0569594
0.0569388
0.0569146
0.056895
0.0568596
0.0568426
0.0567956
0.0567812
0.0567223
0.0567116
0.0566393
0.0566337
0.0565468
0.0565487
0.0564441
0.057851
0.057853
0.057848
0.0578478
0.0578362
0.0578323
0.0578157
0.0578068
0.057787
0.0577712
0.0577494
0.0577254
0.0577042
0.0576689
0.0576509
0.0576031
0.0575883
0.0575288
0.0575169
0.0574442
0.0574377
0.05735
0.0573514
0.0572457
0.0586763
0.0586784
0.0586731
0.0586727
0.0586607
0.0586565
0.0586393
0.0586299
0.0586094
0.058593
0.0585701
0.0585462
0.0585233
0.0584885
0.0584688
0.058421
0.0584052
0.0583448
0.0583324
0.0582593
0.0582519
0.0581638
0.0581644
0.0580579
0.0595115
0.0595135
0.0595081
0.0595074
0.0594951
0.0594904
0.0594727
0.0594626
0.0594414
0.0594245
0.0594006
0.0593767
0.059352
0.0593178
0.0592961
0.0592487
0.0592317
0.0591709
0.0591577
0.0590847
0.0590763
0.0589877
0.0589878
0.0588807
0.0603548
0.0603569
0.0603514
0.0603504
0.0603379
0.0603327
0.0603147
0.0603041
0.0602823
0.0602648
0.0602402
0.0602161
0.0601898
0.0601564
0.0601323
0.0600864
0.0600671
0.0600068
0.059993
0.0599199
0.0599106
0.0598221
0.0598215
0.059714
0.0612043
0.0612064
0.061201
0.0611999
0.0611873
0.061182
0.0611638
0.061153
0.061131
0.0611133
0.0610881
0.0610641
0.0610366
0.061004
0.0609781
0.0609333
0.0609121
0.0608529
0.0608378
0.0607648
0.060755
0.0606666
0.0606657
0.0605581
0.0620577
0.0620598
0.0620546
0.0620537
0.0620414
0.0620364
0.0620184
0.0620079
0.0619861
0.0619687
0.0619437
0.0619199
0.061892
0.0618603
0.0618328
0.0617898
0.061766
0.0617092
0.0616924
0.0616201
0.0616098
0.061522
0.0615207
0.0614132
0.062913
0.0629153
0.0629105
0.0629101
0.0628984
0.0628942
0.062877
0.0628674
0.0628465
0.06283
0.0628058
0.062783
0.0627554
0.062725
0.0626969
0.0626558
0.0626308
0.0625754
0.0625572
0.062486
0.0624755
0.0623878
0.0623867
0.0622795
0.0637696
0.0637721
0.0637678
0.0637682
0.0637574
0.0637544
0.0637385
0.0637305
0.0637111
0.0636962
0.0636736
0.0636525
0.0636264
0.0635977
0.0635702
0.0635313
0.0635055
0.0634526
0.0634334
0.0633628
0.0633525
0.063265
0.0632639
0.0631572
0.0646281
0.064631
0.0646273
0.0646287
0.064619
0.0646175
0.0646032
0.064597
0.0645796
0.064567
0.0645465
0.0645279
0.0645037
0.0644777
0.0644519
0.0644156
0.0643904
0.0643406
0.0643203
0.0642527
0.0642415
0.0641539
0.0641531
0.0640463
0.065492
0.0654951
0.0654919
0.0654943
0.0654856
0.0654857
0.0654729
0.0654688
0.0654533
0.065443
0.0654249
0.0654091
0.0653874
0.0653642
0.065341
0.0653077
0.0652846
0.0652376
0.0652196
0.0651531
0.0651433
0.0650559
0.0650552
0.0649473
0.0663666
0.0663704
0.0663672
0.0663706
0.0663623
0.0663638
0.0663517
0.0663494
0.0663351
0.066327
0.0663106
0.0662973
0.0662777
0.0662573
0.0662374
0.0662058
0.0661875
0.0661413
0.0661282
0.0660628
0.0660572
0.0659706
0.0659712
0.0658628
0.0672601
0.0672645
0.0672605
0.0672653
0.0672557
0.067259
0.0672454
0.0672454
0.0672297
0.067224
0.0672073
0.067196
0.0671773
0.0671583
0.0671425
0.0671084
0.0670995
0.0670478
0.0670456
0.0669774
0.0669788
0.0668947
0.0668988
0.066796
0.0681815
0.0681854
0.0681823
0.0681852
0.0681766
0.0681771
0.0681648
0.0681615
0.0681472
0.0681387
0.0681224
0.0681099
0.0680905
0.0680734
0.0680548
0.0680236
0.0680146
0.0679649
0.0679639
0.0678979
0.0679029
0.0678204
0.0678294
0.0677344
0.0691392
0.0691428
0.069139
0.069141
0.0691309
0.0691298
0.0691152
0.0691098
0.0690927
0.0690816
0.0690625
0.0690472
0.0690251
0.0690061
0.0689828
0.0689549
0.0689382
0.0688922
0.0688893
0.0688225
0.0688297
0.0687457
0.0687579
0.0686631
0.0701397
0.0701431
0.0701383
0.070139
0.0701268
0.0701234
0.0701057
0.0700969
0.0700759
0.0700605
0.0700368
0.0700166
0.0699894
0.0699656
0.0699364
0.0699054
0.0698816
0.0698359
0.0698256
0.0697567
0.0697638
0.0696746
0.0696893
0.0695905
0.0711862
0.0711899
0.0711837
0.0711834
0.0711686
0.071163
0.0711416
0.0711293
0.0711032
0.0710832
0.0710532
0.0710273
0.0709928
0.0709622
0.0709247
0.0708865
0.0708548
0.0708007
0.0707854
0.070707
0.0707117
0.070614
0.0706293
0.070522
0.072279
0.0722832
0.0722752
0.0722745
0.0722571
0.0722498
0.0722244
0.0722097
0.0721776
0.0721549
0.0721164
0.0720868
0.0720423
0.0720052
0.0719581
0.0719103
0.07187
0.0718014
0.0717785
0.0716866
0.0716838
0.0715726
0.0715855
0.0714645
0.0734146
0.0734181
0.0734109
0.0734078
0.0733904
0.0733799
0.0733537
0.0733343
0.0733012
0.0732714
0.0732318
0.0731931
0.0731454
0.0730993
0.0730436
0.0729897
0.0729318
0.0728582
0.0728177
0.0727133
0.0726957
0.072566
0.0725706
0.0724276
0.0745865
0.0745898
0.0745824
0.0745788
0.0745606
0.0745491
0.0745215
0.0745006
0.0744654
0.0744332
0.0743905
0.0743485
0.0742966
0.0742456
0.0741842
0.0741235
0.0740543
0.0739802
0.073912
0.0738094
0.0737654
0.0736182
0.0736063
0.0734301
0.0757866
0.0757898
0.0757825
0.0757788
0.0757603
0.0757487
0.0757206
0.0756992
0.0756633
0.0756303
0.0755866
0.0755432
0.0754898
0.0754366
0.0753728
0.0753089
0.0752357
0.0751574
0.0750787
0.0749783
0.0749045
0.0747604
0.0747213
0.0745075
0.0770062
0.0770094
0.0770024
0.076999
0.0769808
0.0769696
0.0769418
0.0769208
0.0768853
0.0768527
0.0768095
0.0767665
0.0767136
0.0766609
0.0765974
0.0765339
0.076461
0.0763831
0.0763036
0.0762046
0.076125
0.075989
0.0759325
0.0757069
0.0782367
0.0782402
0.0782335
0.0782307
0.078213
0.0782026
0.0781756
0.0781559
0.0781215
0.0780903
0.0780485
0.0780073
0.0779561
0.0779055
0.0778442
0.0777834
0.077713
0.077638
0.0775637
0.0774657
0.0773983
0.0772607
0.0772206
0.0770223
0.0794702
0.079474
0.0794676
0.0794656
0.0794486
0.0794394
0.0794136
0.0793954
0.0793625
0.0793334
0.0792937
0.079255
0.0792063
0.0791588
0.0791006
0.0790434
0.0789768
0.0789066
0.0788367
0.0787447
0.0786828
0.0785529
0.0785158
0.078332
0.0806995
0.0807036
0.0806976
0.0806965
0.0806803
0.0806725
0.080648
0.0806317
0.0806006
0.0805739
0.0805365
0.0805007
0.080455
0.0804111
0.0803565
0.0803035
0.0802411
0.0801762
0.0801107
0.0800256
0.0799681
0.0798481
0.0798133
0.0796432
0.0819185
0.0819232
0.0819174
0.0819173
0.0819018
0.0818957
0.0818724
0.0818583
0.0818289
0.0818051
0.0817698
0.0817377
0.0816946
0.0816549
0.0816036
0.0815553
0.0814973
0.0814381
0.0813772
0.0812984
0.0812462
0.0811356
0.0811031
0.0809469
0.0831225
0.0831276
0.0831215
0.0831232
0.0831078
0.083104
0.0830812
0.0830702
0.0830417
0.0830218
0.0829876
0.0829604
0.0829187
0.0828847
0.0828356
0.0827932
0.0827388
0.0826854
0.0826292
0.0825572
0.0825091
0.0824084
0.0823783
0.0822356
0.0843069
0.0843122
0.0843065
0.0843093
0.0842943
0.0842926
0.0842704
0.0842625
0.0842347
0.084219
0.0841856
0.0841637
0.0841228
0.0840954
0.0840471
0.0840124
0.0839597
0.0839131
0.083862
0.0837956
0.0837518
0.083661
0.0836332
0.083504
0.0854683
0.0854737
0.0854688
0.0854715
0.0854587
0.0854569
0.0854379
0.0854299
0.0854064
0.0853908
0.0853625
0.0853413
0.0853058
0.0852802
0.0852372
0.0852059
0.0851579
0.0851173
0.0850687
0.0850105
0.0849706
0.0848893
0.0848636
0.0847473
0.0866039
0.0866092
0.086605
0.0866082
0.0865966
0.0865957
0.0865787
0.0865719
0.0865512
0.0865369
0.0865125
0.0864926
0.0864621
0.086438
0.0864007
0.0863718
0.0863294
0.0862934
0.0862483
0.086199
0.0861616
0.0860897
0.086066
0.0859622
0.0877111
0.0877167
0.0877129
0.0877166
0.0877061
0.0877062
0.0876908
0.0876855
0.0876671
0.0876546
0.0876332
0.0876155
0.0875889
0.0875674
0.0875345
0.0875089
0.0874711
0.0874396
0.0873986
0.0873579
0.0873215
0.087259
0.0872375
0.0871458
0.0887885
0.0887939
0.0887907
0.0887949
0.0887853
0.0887865
0.0887725
0.0887687
0.0887523
0.0887418
0.0887231
0.0887078
0.0886844
0.0886658
0.0886369
0.0886146
0.0885813
0.0885543
0.0885177
0.0884828
0.0884487
0.0883958
0.0883764
0.0882962
0.0898343
0.0898398
0.0898368
0.0898416
0.0898328
0.089835
0.0898224
0.0898201
0.0898055
0.089797
0.0897807
0.0897677
0.0897475
0.0897315
0.0897063
0.0896874
0.0896581
0.0896352
0.0896028
0.0895738
0.0895421
0.089498
0.0894808
0.0894114
0.0908475
0.0908529
0.0908503
0.0908555
0.0908475
0.0908507
0.0908393
0.0908384
0.0908256
0.0908189
0.0908049
0.0907941
0.0907767
0.0907635
0.0907416
0.0907258
0.0907005
0.0906815
0.0906531
0.0906292
0.0906007
0.0905654
0.0905486
0.09049
0.0918272
0.0918326
0.0918304
0.0918359
0.0918288
0.0918326
0.0918226
0.0918228
0.0918118
0.0918067
0.0917949
0.0917862
0.0917715
0.0917607
0.0917421
0.0917294
0.0917075
0.0916921
0.0916677
0.0916481
0.0916236
0.0915954
0.0915803
0.0915312
0.092773
0.0927783
0.0927762
0.0927826
0.0927754
0.0927809
0.0927711
0.0927732
0.0927633
0.09276
0.0927501
0.0927435
0.0927311
0.0927229
0.0927071
0.0926972
0.0926789
0.0926669
0.092646
0.0926309
0.0926095
0.092588
0.0925744
0.0925339
0.0936846
0.0936897
0.0936882
0.0936941
0.0936888
0.0936936
0.0936862
0.0936882
0.0936806
0.0936783
0.0936705
0.0936656
0.0936556
0.0936495
0.0936365
0.0936294
0.093614
0.0936052
0.0935878
0.0935765
0.0935592
0.0935422
0.0935304
0.0934986
0.0945618
0.094567
0.0945655
0.0945721
0.0945666
0.0945731
0.0945655
0.0945696
0.0945624
0.0945621
0.0945556
0.0945526
0.0945446
0.0945407
0.0945302
0.0945255
0.0945131
0.0945073
0.094493
0.0944856
0.0944708
0.0944592
0.0944489
0.094425
0.095405
0.09541
0.0954087
0.0954155
0.0954107
0.0954174
0.0954112
0.0954156
0.0954101
0.0954107
0.0954061
0.0954046
0.0953986
0.0953966
0.0953884
0.095386
0.0953761
0.0953731
0.0953617
0.0953574
0.095346
0.0953382
0.0953302
0.0953134
0.0962141
0.0962188
0.0962188
0.0962237
0.0962222
0.0962263
0.0962237
0.0962268
0.0962239
0.0962249
0.096222
0.0962218
0.0962176
0.0962174
0.0962113
0.0962111
0.0962037
0.0962033
0.0961943
0.0961935
0.0961842
0.0961805
0.096175
0.0961643
0.09699
0.0969949
0.0969933
0.0970017
0.0969958
0.097006
0.0969987
0.097007
0.0970019
0.0970059
0.0970033
0.097005
0.0970023
0.0970037
0.0969996
0.0970014
0.0969961
0.0969979
0.0969916
0.0969934
0.0969871
0.096987
0.0969834
0.0969782
0.0977328
0.0977366
0.0977386
0.0977407
0.0977443
0.0977442
0.0977482
0.097748
0.0977506
0.0977513
0.0977522
0.097754
0.0977532
0.097756
0.0977536
0.0977572
0.097754
0.0977581
0.0977538
0.0977586
0.097754
0.0977576
0.0977561
0.0977556
0.0984433
0.0984482
0.0984461
0.0984562
0.0984488
0.0984625
0.0984535
0.0984658
0.0984602
0.0984678
0.0984662
0.098471
0.0984707
0.0984751
0.0984742
0.0984795
0.098478
0.098484
0.0984818
0.0984888
0.0984866
0.0984931
0.0984929
0.0984972
0.0991225
0.0991254
0.0991291
0.0991289
0.0991364
0.0991331
0.0991424
0.0991392
0.099147
0.0991466
0.0991513
0.0991541
0.0991564
0.0991615
0.0991622
0.0991689
0.0991691
0.0991768
0.0991763
0.0991857
0.0991848
0.0991943
0.0991955
0.0992037
0.0997706
0.0997753
0.0997735
0.0997834
0.099777
0.0997909
0.0997828
0.0997967
0.0997915
0.0998017
0.0998008
0.0998082
0.0998097
0.0998166
0.0998183
0.0998264
0.0998279
0.0998373
0.0998382
0.0998494
0.0998503
0.0998622
0.0998643
0.0998763
0.10039
0.100392
0.100396
0.100396
0.100404
0.100401
0.100411
0.100408
0.100418
0.100418
0.100425
0.100429
0.100434
0.100441
0.100444
0.100453
0.100456
0.100466
0.100469
0.100482
0.100484
0.100498
0.100501
0.100516
0.100979
0.100983
0.100982
0.10099
0.100987
0.100998
0.100994
0.101006
0.101004
0.101014
0.101015
0.101023
0.101027
0.101035
0.101039
0.10105
0.101053
0.101065
0.101069
0.101083
0.101086
0.101103
0.101106
0.101124
0.101541
0.101543
0.101547
0.101548
0.101554
0.101554
0.101562
0.101563
0.101571
0.101574
0.101581
0.101587
0.101593
0.101601
0.101606
0.101617
0.101622
0.101635
0.10164
0.101656
0.101659
0.101677
0.101682
0.101702
0.102076
0.102079
0.102079
0.102085
0.102085
0.102093
0.102094
0.102102
0.102104
0.102112
0.102116
0.102125
0.10213
0.10214
0.102145
0.102157
0.102163
0.102177
0.102182
0.102199
0.102204
0.102224
0.102228
0.102251
0.102585
0.102587
0.10259
0.102591
0.102597
0.102599
0.102606
0.102609
0.102615
0.102622
0.102627
0.102636
0.102642
0.102652
0.102658
0.102671
0.102677
0.102692
0.102698
0.102716
0.102721
0.102742
0.102746
0.102774
0.103069
0.103072
0.103072
0.103078
0.103078
0.103086
0.103088
0.103095
0.103099
0.103107
0.103113
0.103121
0.103128
0.103139
0.103145
0.103158
0.103165
0.103181
0.103188
0.103207
0.103212
0.103235
0.10324
0.103267
0.103529
0.103531
0.103534
0.103535
0.103541
0.103543
0.10355
0.103554
0.10356
0.103568
0.103574
0.103583
0.10359
0.103601
0.103608
0.103622
0.103629
0.103645
0.103653
0.103672
0.103679
0.103702
0.103707
0.103736
0.103966
0.103969
0.10397
0.103975
0.103976
0.103983
0.103985
0.103993
0.103997
0.104006
0.104012
0.104021
0.104028
0.10404
0.104048
0.104062
0.104069
0.104086
0.104094
0.104114
0.104121
0.104146
0.104151
0.104181
0.104382
0.104383
0.104386
0.104388
0.104393
0.104396
0.104402
0.104407
0.104414
0.104421
0.104428
0.104437
0.104445
0.104457
0.104465
0.104479
0.104487
0.104504
0.104513
0.104534
0.104541
0.104566
0.104572
0.104602
0.104776
0.104778
0.10478
0.104783
0.104787
0.104791
0.104796
0.104802
0.104808
0.104816
0.104822
0.104833
0.10484
0.104852
0.104861
0.104875
0.104884
0.104901
0.10491
0.104931
0.104939
0.104965
0.10497
0.105002
0.10515
0.105152
0.105154
0.105158
0.10516
0.105166
0.10517
0.105177
0.105182
0.10519
0.105197
0.105207
0.105215
0.105227
0.105236
0.105251
0.105259
0.105277
0.105286
0.105308
0.105316
0.105342
0.105348
0.105381
0.105506
0.105507
0.10551
0.105512
0.105516
0.10552
0.105526
0.105531
0.105538
0.105546
0.105553
0.105563
0.105571
0.105583
0.105592
0.105607
0.105616
0.105634
0.105643
0.105664
0.105673
0.105699
0.105705
0.105739
0.105843
0.105844
0.105846
0.105849
0.105853
0.105858
0.105862
0.105869
0.105874
0.105883
0.105889
0.1059
0.105908
0.10592
0.105929
0.105944
0.105953
0.105972