/*--------------------------------*- C++ -*----------------------------------*\
  =========                 |
  \\      /  F ield         | OpenFOAM: The Open Source CFD Toolbox
   \\    /   O peration     | Website:  https://openfoam.org
    \\  /    A nd           | Version:  10
     \\/     M anipulation  |
\*---------------------------------------------------------------------------*/
FoamFile
{
    format      ascii;
    class       volScalarField;
    location    "0.25";
    object      T;
}
// * * * * * * * * * * * * * * * * * * * * * * * * * * * * * * * * * * * * * //

dimensions      [0 0 0 1 0 0 0];

internalField   nonuniform List<scalar> 
4176
(
180.347
180.351
180.372
180.382
180.426
180.444
180.506
180.538
180.613
180.66
180.749
180.809
180.913
180.985
181.101
181.192
181.306
181.429
181.534
181.703
181.776
182.012
182.025
182.325
180.356
180.36
180.382
180.392
180.436
180.456
180.518
180.552
180.628
180.677
180.767
180.83
180.935
181.009
181.128
181.221
181.339
181.464
181.571
181.744
181.818
182.063
182.079
182.41
180.384
180.388
180.409
180.42
180.462
180.482
180.542
180.576
180.649
180.698
180.785
180.847
180.949
181.022
181.139
181.229
181.346
181.467
181.572
181.74
181.81
182.05
182.067
182.407
180.436
180.44
180.461
180.471
180.514
180.534
180.593
180.627
180.7
180.749
180.836
180.897
181.001
181.072
181.191
181.28
181.398
181.522
181.622
181.794
181.862
182.099
182.113
182.438
180.511
180.515
180.535
180.546
180.588
180.607
180.667
180.699
180.772
180.82
180.906
180.966
181.07
181.139
181.258
181.345
181.464
181.585
181.683
181.857
181.923
182.158
182.172
182.486
180.61
180.614
180.634
180.645
180.686
180.706
180.764
180.797
180.869
180.917
181.002
181.062
181.164
181.233
181.351
181.436
181.557
181.673
181.776
181.945
182.013
182.246
182.262
182.577
180.733
180.737
180.757
180.767
180.808
180.828
180.885
180.918
180.989
181.036
181.12
181.18
181.28
181.349
181.465
181.549
181.671
181.781
181.889
182.051
182.122
182.351
182.37
182.683
180.88
180.884
180.904
180.914
180.955
180.974
181.031
181.063
181.132
181.18
181.262
181.321
181.421
181.488
181.604
181.686
181.807
181.914
182.024
182.181
182.254
182.479
182.499
182.808
181.05
181.055
181.074
181.084
181.124
181.143
181.2
181.231
181.3
181.346
181.428
181.486
181.584
181.651
181.765
181.845
181.966
182.069
182.181
182.332
182.408
182.627
182.65
182.954
181.245
181.249
181.269
181.278
181.318
181.336
181.392
181.423
181.491
181.537
181.617
181.674
181.771
181.837
181.949
182.028
182.148
182.247
182.36
182.506
182.584
182.798
182.822
183.121
181.463
181.467
181.486
181.496
181.535
181.553
181.608
181.638
181.706
181.75
181.83
181.886
181.981
182.045
182.156
182.233
182.352
182.449
182.562
182.703
182.783
182.99
183.016
183.31
181.705
181.709
181.728
181.737
181.776
181.793
181.848
181.877
181.944
181.988
182.066
182.121
182.214
182.277
182.387
182.462
182.579
182.673
182.786
182.922
183.002
183.205
183.231
183.519
181.971
181.975
181.994
182.002
182.041
182.057
182.111
182.14
182.205
182.248
182.325
182.379
182.471
182.532
182.64
182.713
182.829
182.919
183.033
183.163
183.246
183.441
183.468
183.751
182.26
182.264
182.283
182.291
182.329
182.345
182.398
182.426
182.49
182.532
182.607
182.66
182.75
182.81
182.916
182.987
183.101
183.189
183.301
183.427
183.509
183.7
183.727
184.003
182.573
182.577
182.595
182.603
182.641
182.656
182.708
182.735
182.798
182.839
182.913
182.964
183.053
183.111
183.215
183.284
183.396
183.481
183.593
183.713
183.796
183.98
184.007
184.278
182.91
182.914
182.932
182.939
182.976
182.991
183.042
183.068
183.13
183.169
183.242
183.292
183.379
183.435
183.537
183.603
183.714
183.795
183.906
184.021
184.105
184.282
184.309
184.573
183.271
183.274
183.292
183.299
183.335
183.349
183.4
183.425
183.485
183.523
183.594
183.642
183.727
183.782
183.881
183.946
184.054
184.132
184.241
184.352
184.435
184.606
184.634
184.891
183.655
183.659
183.676
183.683
183.718
183.731
183.781
183.805
183.864
183.9
183.97
184.016
184.099
184.151
184.249
184.311
184.417
184.492
184.599
184.705
184.788
184.952
184.98
185.23
184.063
184.066
184.084
184.09
184.125
184.137
184.185
184.208
184.266
184.301
184.368
184.413
184.494
184.544
184.639
184.698
184.802
184.874
184.979
185.079
185.162
185.32
185.348
185.591
184.495
184.498
184.515
184.52
184.555
184.566
184.613
184.635
184.691
184.725
184.79
184.832
184.912
184.959
185.052
185.108
185.21
185.278
185.381
185.477
185.559
185.71
185.739
185.973
184.95
184.953
184.97
184.975
185.008
185.019
185.065
185.085
185.14
185.172
185.235
185.275
185.352
185.397
185.487
185.541
185.64
185.705
185.805
185.896
185.977
186.122
186.151
186.377
185.429
185.432
185.449
185.453
185.486
185.495
185.54
185.558
185.611
185.642
185.703
185.742
185.816
185.859
185.946
185.997
186.092
186.154
186.252
186.338
186.418
186.555
186.584
186.802
185.932
185.935
185.951
185.954
185.986
185.995
186.038
186.055
186.107
186.135
186.195
186.231
186.302
186.343
186.427
186.475
186.567
186.626
186.72
186.801
186.88
187.011
187.039
187.25
186.458
186.461
186.476
186.479
186.51
186.518
186.56
186.576
186.625
186.652
186.709
186.743
186.812
186.849
186.931
186.976
187.065
187.12
187.211
187.288
187.365
187.488
187.516
187.719
187.008
187.011
187.025
187.028
187.058
187.064
187.105
187.119
187.167
187.191
187.246
187.278
187.344
187.379
187.457
187.499
187.585
187.636
187.724
187.796
187.871
187.987
188.014
188.21
187.581
187.583
187.598
187.599
187.629
187.634
187.673
187.685
187.731
187.754
187.807
187.835
187.899
187.931
188.006
188.045
188.128
188.175
188.26
188.327
188.399
188.508
188.534
188.722
188.177
188.179
188.193
188.194
188.223
188.226
188.265
188.275
188.319
188.339
188.39
188.416
188.477
188.506
188.578
188.614
188.693
188.736
188.817
188.88
188.949
189.052
189.076
189.256
188.796
188.798
188.812
188.812
188.839
188.842
188.879
188.888
188.93
188.948
188.996
189.02
189.078
189.104
189.172
189.205
189.28
189.32
189.397
189.455
189.522
189.617
189.641
189.81
189.438
189.44
189.453
189.452
189.479
189.48
189.516
189.523
189.563
189.579
189.625
189.646
189.701
189.724
189.789
189.818
189.89
189.926
190
190.052
190.116
190.205
190.228
190.388
190.102
190.104
190.117
190.116
190.141
190.141
190.175
190.181
190.219
190.233
190.276
190.294
190.347
190.367
190.429
190.454
190.522
190.554
190.624
190.672
190.733
190.814
190.835
190.987
190.789
190.791
190.803
190.801
190.826
190.825
190.858
190.861
190.898
190.909
190.95
190.966
191.015
191.032
191.091
191.112
191.177
191.204
191.271
191.314
191.371
191.446
191.465
191.608
191.498
191.5
191.512
191.509
191.533
191.531
191.562
191.564
191.598
191.608
191.646
191.659
191.706
191.719
191.775
191.792
191.854
191.877
191.939
191.978
192.031
192.099
192.118
192.251
192.229
192.231
192.242
192.239
192.262
192.259
192.288
192.289
192.321
192.328
192.364
192.375
192.419
192.429
192.481
192.495
192.553
192.571
192.63
192.663
192.713
192.775
192.792
192.915
192.983
192.984
192.995
192.991
193.013
193.008
193.037
193.035
193.066
193.071
193.105
193.112
193.154
193.161
193.21
193.22
193.274
193.288
193.344
193.372
193.417
193.473
193.488
193.603
193.757
193.759
193.769
193.765
193.786
193.78
193.807
193.804
193.833
193.835
193.867
193.872
193.91
193.914
193.96
193.967
194.017
194.027
194.079
194.102
194.144
194.193
194.206
194.311
194.554
194.555
194.565
194.56
194.58
194.573
194.599
194.594
194.621
194.622
194.651
194.653
194.689
194.69
194.732
194.735
194.783
194.788
194.836
194.854
194.892
194.935
194.945
195.042
195.371
195.372
195.382
195.376
195.395
195.387
195.412
195.405
195.43
195.429
195.456
195.456
195.489
195.487
195.526
195.526
195.57
195.571
195.615
195.628
195.662
195.7
195.707
195.794
196.21
196.211
196.22
196.213
196.232
196.223
196.246
196.238
196.261
196.258
196.283
196.28
196.31
196.305
196.342
196.337
196.378
196.375
196.416
196.424
196.454
196.486
196.49
196.568
197.069
197.07
197.079
197.072
197.089
197.079
197.101
197.092
197.113
197.108
197.13
197.125
197.153
197.145
197.178
197.17
197.207
197.201
197.238
197.241
197.268
197.294
197.295
197.363
197.949
197.95
197.958
197.95
197.968
197.956
197.977
197.966
197.986
197.979
197.999
197.991
198.016
198.005
198.036
198.024
198.058
198.047
198.081
198.079
198.102
198.122
198.12
198.181
198.849
198.85
198.858
198.85
198.866
198.854
198.873
198.861
198.879
198.87
198.888
198.878
198.901
198.887
198.914
198.899
198.93
198.915
198.945
198.938
198.958
198.972
198.967
199.02
199.77
199.77
199.779
199.77
199.785
199.772
199.79
199.776
199.793
199.782
199.798
199.785
199.806
199.789
199.814
199.795
199.823
199.803
199.83
199.818
199.835
199.842
199.834
199.88
200.711
200.711
200.719
200.709
200.724
200.71
200.727
200.711
200.726
200.714
200.728
200.713
200.731
200.711
200.733
200.711
200.736
200.712
200.736
200.719
200.733
200.734
200.723
200.76
201.671
201.672
201.679
201.669
201.683
201.667
201.683
201.667
201.68
201.665
201.677
201.66
201.676
201.654
201.673
201.647
201.67
201.641
201.663
201.64
201.652
201.646
201.632
201.662
202.652
202.652
202.659
202.648
202.661
202.645
202.66
202.642
202.653
202.637
202.647
202.628
202.641
202.616
202.633
202.603
202.623
202.59
202.61
202.581
202.591
202.579
202.563
202.584
203.651
203.651
203.658
203.647
203.659
203.642
203.655
203.636
203.646
203.628
203.636
203.614
203.625
203.597
203.612
203.578
203.596
203.559
203.576
203.543
203.55
203.53
203.514
203.527
204.67
204.67
204.676
204.664
204.676
204.657
204.67
204.649
204.658
204.638
204.644
204.62
204.629
204.598
204.61
204.573
204.589
204.547
204.561
204.523
204.528
204.501
204.486
204.489
205.707
205.707
205.713
205.7
205.711
205.692
205.703
205.681
205.688
205.666
205.67
205.645
205.651
205.617
205.627
205.587
205.6
205.554
205.566
205.523
205.526
205.492
205.476
205.47
206.762
206.762
206.768
206.755
206.765
206.745
206.755
206.731
206.737
206.713
206.716
206.688
206.692
206.655
206.662
206.619
206.63
206.58
206.589
206.54
206.542
206.501
206.486
206.471
207.836
207.835
207.841
207.827
207.836
207.815
207.824
207.8
207.803
207.778
207.779
207.749
207.751
207.712
207.716
207.67
207.679
207.624
207.632
207.576
207.579
207.529
207.514
207.49
208.926
208.926
208.931
208.917
208.925
208.903
208.911
208.885
208.888
208.861
208.86
208.827
208.827
208.786
208.788
208.738
208.745
208.686
208.693
208.631
208.634
208.575
208.561
208.529
210.033
210.033
210.037
210.023
210.031
210.008
210.015
209.988
209.989
209.96
209.957
209.923
209.921
209.877
209.877
209.824
209.83
209.765
209.772
209.702
209.707
209.64
209.625
209.585
211.156
211.156
211.16
211.145
211.153
211.129
211.135
211.106
211.106
211.076
211.072
211.035
211.032
210.985
210.983
210.926
210.931
210.861
210.869
210.792
210.795
210.723
210.708
210.66
212.295
212.294
212.298
212.283
212.29
212.265
212.27
212.241
212.239
212.208
212.202
212.163
212.159
212.108
212.107
212.045
212.049
211.973
211.983
211.898
211.903
211.823
211.807
211.753
213.448
213.448
213.452
213.436
213.442
213.417
213.421
213.39
213.388
213.355
213.348
213.307
213.301
213.247
213.246
213.179
213.184
213.103
213.11
213.023
213.025
212.941
212.924
212.862
214.616
214.615
214.619
214.603
214.608
214.583
214.586
214.554
214.551
214.516
214.509
214.465
214.46
214.401
214.401
214.328
214.334
214.247
214.256
214.163
214.164
214.075
214.056
213.989
215.797
215.796
215.799
215.783
215.788
215.762
215.764
215.732
215.728
215.691
215.684
215.636
215.632
215.57
215.571
215.493
215.499
215.41
215.414
215.319
215.318
215.225
215.205
215.131
216.99
216.989
216.992
216.976
216.98
216.954
216.956
216.922
216.918
216.88
216.872
216.822
216.818
216.754
216.753
216.674
216.677
216.586
216.588
216.491
216.488
216.39
216.37
216.29
218.195
218.194
218.197
218.181
218.185
218.158
218.159
218.125
218.121
218.081
218.073
218.021
218.016
217.95
217.948
217.867
217.869
217.775
217.777
217.677
217.671
217.57
217.549
217.464
219.411
219.411
219.413
219.397
219.4
219.374
219.374
219.34
219.334
219.294
219.285
219.233
219.226
219.16
219.156
219.074
219.074
218.979
218.978
218.876
218.87
218.764
218.743
218.652
220.638
220.638
220.64
220.624
220.627
220.6
220.599
220.566
220.559
220.519
220.509
220.456
220.448
220.381
220.375
220.293
220.291
220.195
220.193
220.088
220.08
219.973
219.95
219.855
221.875
221.875
221.877
221.861
221.864
221.837
221.835
221.803
221.793
221.755
221.742
221.69
221.681
221.613
221.607
221.523
221.52
221.423
221.419
221.313
221.304
221.193
221.17
221.07
223.121
223.121
223.124
223.107
223.11
223.083
223.081
223.049
223.038
223.001
222.986
222.935
222.923
222.857
222.848
222.764
222.76
222.662
222.657
222.548
222.539
222.426
222.402
222.298
224.376
224.376
224.379
224.362
224.365
224.338
224.336
224.303
224.292
224.256
224.239
224.19
224.176
224.11
224.1
224.015
224.01
223.911
223.905
223.795
223.785
223.669
223.645
223.538
225.64
225.64
225.643
225.626
225.629
225.602
225.6
225.567
225.555
225.519
225.501
225.453
225.437
225.372
225.361
225.275
225.269
225.169
225.163
225.051
225.04
224.923
224.898
224.788
226.912
226.912
226.915
226.898
226.902
226.874
226.872
226.839
226.827
226.791
226.772
226.724
226.707
226.642
226.631
226.544
226.537
226.437
226.429
226.317
226.305
226.185
226.161
226.047
228.193
228.193
228.196
228.179
228.182
228.154
228.152
228.119
228.106
228.071
228.05
228.003
227.984
227.92
227.907
227.82
227.813
227.71
227.704
227.59
227.577
227.457
227.432
227.316
229.481
229.481
229.484
229.467
229.47
229.442
229.439
229.406
229.393
229.358
229.335
229.289
229.269
229.204
229.19
229.103
229.096
228.992
228.984
228.87
228.856
228.735
228.71
228.592
230.777
230.777
230.779
230.762
230.765
230.737
230.734
230.7
230.686
230.651
230.627
230.581
230.559
230.495
230.479
230.393
230.384
230.279
230.271
230.156
230.142
230.02
229.994
229.875
232.079
232.079
232.081
232.064
232.066
232.038
232.034
232
231.985
231.949
231.924
231.879
231.855
231.791
231.773
231.687
231.678
231.573
231.564
231.447
231.433
231.31
231.285
231.164
233.386
233.386
233.389
233.371
233.373
233.344
233.339
233.304
233.288
233.253
233.226
233.181
233.154
233.092
233.072
232.987
232.975
232.871
232.862
232.743
232.729
232.607
232.581
232.459
234.697
234.697
234.699
234.681
234.683
234.653
234.648
234.612
234.596
234.559
234.531
234.487
234.458
234.397
234.374
234.29
234.276
234.174
234.163
234.045
234.031
233.907
233.882
233.76
236.008
236.008
236.01
235.992
235.993
235.963
235.958
235.922
235.905
235.868
235.839
235.796
235.764
235.705
235.678
235.599
235.581
235.48
235.468
235.351
235.336
235.213
235.188
235.066
237.316
237.316
237.319
237.3
237.302
237.272
237.267
237.231
237.214
237.178
237.149
237.106
237.073
237.016
236.986
236.909
236.891
236.79
236.777
236.662
236.647
236.524
236.499
236.377
238.619
238.619
238.622
238.604
238.607
238.577
238.573
238.538
238.522
238.486
238.458
238.416
238.384
238.328
238.298
238.224
238.201
238.106
238.09
237.977
237.962
237.84
237.816
237.694
239.913
239.914
239.918
239.9
239.904
239.876
239.874
239.84
239.826
239.793
239.766
239.727
239.695
239.642
239.612
239.541
239.517
239.426
239.407
239.298
239.283
239.161
239.139
239.017
241.2
241.2
241.205
241.189
241.195
241.168
241.169
241.137
241.126
241.095
241.071
241.035
241.006
240.957
240.928
240.862
240.837
240.75
240.733
240.623
240.609
240.489
240.467
240.346
242.481
242.482
242.488
242.472
242.48
242.456
242.458
242.43
242.422
242.395
242.374
242.342
242.316
242.271
242.245
242.183
242.162
242.079
242.06
241.957
241.943
241.822
241.802
241.68
243.762
243.764
243.77
243.756
243.765
243.743
243.748
243.722
243.716
243.692
243.675
243.647
243.624
243.584
243.562
243.504
243.487
243.409
243.394
243.293
243.284
243.164
243.146
243.023
245.053
245.055
245.061
245.049
245.058
245.037
245.042
245.02
245.014
244.994
244.978
244.953
244.933
244.896
244.88
244.823
244.815
244.735
244.73
244.63
244.628
244.511
244.496
244.376
246.364
246.367
246.373
246.36
246.369
246.348
246.353
246.331
246.325
246.306
246.29
246.267
246.247
246.213
246.199
246.142
246.141
246.059
246.064
245.963
245.969
245.856
245.847
245.736
247.708
247.71
247.716
247.702
247.711
247.687
247.692
247.666
247.66
247.637
247.62
247.595
247.573
247.541
247.522
247.47
247.465
247.387
247.392
247.294
247.304
247.191
247.189
247.084
249.094
249.095
249.101
249.085
249.092
249.066
249.067
249.037
249.028
249
248.979
248.949
248.923
248.887
248.861
248.81
248.796
248.719
248.724
248.622
248.635
248.519
248.521
248.415
250.528
250.53
250.534
250.516
250.52
250.491
250.488
250.454
250.438
250.406
250.377
250.341
250.307
250.263
250.228
250.172
250.148
250.07
250.062
249.956
249.968
249.843
249.85
249.736
252.013
252.015
252.017
251.998
251.999
251.967
251.96
251.921
251.899
251.861
251.823
251.781
251.736
251.684
251.637
251.571
251.536
251.442
251.429
251.308
251.314
251.176
251.182
251.054
253.546
253.548
253.549
253.528
253.527
253.492
253.481
253.438
253.411
253.367
253.322
253.272
253.218
253.156
253.098
253.022
252.969
252.865
252.835
252.697
252.691
252.532
252.533
252.382
255.118
255.119
255.121
255.098
255.097
255.059
255.047
255
254.97
254.92
254.872
254.815
254.755
254.685
254.616
254.532
254.461
254.352
254.295
254.149
254.118
253.936
253.923
253.736
256.721
256.722
256.724
256.7
256.698
256.659
256.646
256.597
256.566
256.514
256.463
256.403
256.338
256.264
256.19
256.1
256.017
255.907
255.823
255.679
255.613
255.42
255.382
255.149
258.341
258.342
258.344
258.321
258.319
258.28
258.267
258.218
258.187
258.135
258.083
258.022
257.957
257.882
257.806
257.715
257.628
257.516
257.423
257.283
257.192
257.004
256.938
256.67
259.968
259.969
259.971
259.948
259.948
259.909
259.897
259.849
259.819
259.768
259.718
259.659
259.595
259.522
259.447
259.359
259.273
259.165
259.072
258.936
258.844
258.661
258.593
258.327
261.589
261.59
261.593
261.571
261.571
261.534
261.523
261.478
261.449
261.401
261.353
261.298
261.236
261.168
261.096
261.012
260.93
260.828
260.74
260.61
260.528
260.351
260.294
260.052
263.195
263.197
263.201
263.179
263.181
263.145
263.136
263.093
263.067
263.022
262.977
262.926
262.867
262.804
262.736
262.659
262.581
262.487
262.406
262.284
262.21
262.045
261.993
261.771
264.779
264.781
264.785
264.765
264.767
264.733
264.727
264.686
264.662
264.621
264.579
264.532
264.478
264.421
264.357
264.287
264.214
264.128
264.053
263.941
263.874
263.722
263.673
263.471
266.332
266.335
266.339
266.321
266.324
266.293
266.287
266.25
266.228
266.192
266.152
266.111
266.059
266.009
265.949
265.887
265.818
265.742
265.672
265.57
265.508
265.37
265.325
265.141
267.851
267.854
267.858
267.841
267.846
267.817
267.812
267.779
267.758
267.727
267.689
267.655
267.605
267.563
267.505
267.452
267.387
267.319
267.254
267.164
267.106
266.983
266.94
266.775
269.331
269.334
269.339
269.323
269.329
269.301
269.299
269.268
269.25
269.223
269.187
269.158
269.111
269.076
269.021
268.976
268.915
268.857
268.796
268.716
268.662
268.554
268.513
268.366
270.768
270.771
270.777
270.761
270.769
270.742
270.744
270.713
270.7
270.674
270.644
270.617
270.576
270.544
270.495
270.456
270.4
270.35
270.292
270.224
270.174
270.079
270.04
269.91
272.161
272.164
272.171
272.156
272.165
272.139
272.143
272.115
272.105
272.081
272.055
272.03
271.995
271.966
271.923
271.888
271.838
271.795
271.742
271.684
271.638
271.555
271.518
271.405
273.508
273.511
273.519
273.504
273.515
273.49
273.496
273.469
273.462
273.44
273.418
273.397
273.366
273.34
273.303
273.273
273.228
273.191
273.142
273.096
273.05
272.981
272.945
272.848
274.808
274.811
274.819
274.805
274.817
274.793
274.801
274.776
274.771
274.752
274.733
274.715
274.688
274.666
274.633
274.608
274.568
274.538
274.493
274.455
274.411
274.356
274.321
274.239
276.06
276.063
276.072
276.057
276.072
276.048
276.058
276.034
276.033
276.015
276
275.984
275.961
275.943
275.914
275.893
275.857
275.833
275.793
275.762
275.721
275.676
275.645
275.576
277.264
277.267
277.275
277.264
277.275
277.257
277.265
277.246
277.244
277.231
277.217
277.204
277.184
277.169
277.144
277.128
277.096
277.077
277.041
277.018
276.98
276.946
276.915
276.859
278.42
278.423
278.434
278.417
278.438
278.41
278.43
278.404
278.41
278.395
278.385
278.375
278.358
278.346
278.325
278.312
278.284
278.27
278.239
278.221
278.187
278.162
278.132
278.088
279.529
279.532
279.539
279.534
279.538
279.532
279.533
279.525
279.521
279.515
279.504
279.498
279.483
279.474
279.456
279.447
279.423
279.413
279.385
279.374
279.342
279.326
279.297
279.264
280.591
280.593
280.605
280.588
280.613
280.583
280.61
280.582
280.595
280.581
280.578
280.571
280.56
280.554
280.539
280.533
280.512
280.506
280.482
280.475
280.448
280.438
280.41
280.388
281.607
281.61
281.616
281.613
281.617
281.615
281.614
281.614
281.608
281.609
281.6
281.599
281.588
281.586
281.573
281.57
281.553
281.551
281.529
281.528
281.503
281.499
281.474
281.461
282.577
282.58
282.59
282.578
282.597
282.578
282.598
282.578
282.591
282.581
282.581
282.578
282.572
282.571
282.561
282.561
282.546
282.548
282.529
282.531
282.51
282.511
282.487
282.483
283.504
283.507
283.514
283.51
283.519
283.513
283.519
283.517
283.516
283.518
283.513
283.515
283.509
283.511
283.503
283.505
283.493
283.498
283.482
283.488
283.469
283.476
283.454
283.457
284.388
284.391
284.397
284.394
284.402
284.398
284.406
284.401
284.406
284.405
284.405
284.406
284.403
284.406
284.4
284.405
284.395
284.403
284.39
284.398
284.383
284.394
284.374
284.383
285.23
285.232
285.241
285.233
285.249
285.237
285.253
285.245
285.252
285.252
285.253
285.256
285.254
285.259
285.255
285.262
285.254
285.264
285.253
285.266
285.251
285.267
285.249
285.264
286.032
286.036
286.038
286.043
286.041
286.051
286.046
286.056
286.052
286.061
286.058
286.065
286.063
286.07
286.068
286.077
286.071
286.083
286.074
286.089
286.077
286.096
286.08
286.099
286.796
286.797
286.806
286.799
286.815
286.803
286.822
286.811
286.825
286.822
286.829
286.832
286.834
286.841
286.841
286.851
286.847
286.861
286.854
286.872
286.86
286.883
286.868
286.892
287.52
287.525
287.526
287.533
287.53
287.542
287.535
287.551
287.543
287.558
287.554
287.565
287.564
287.574
287.575
287.586
287.584
287.6
287.594
287.614
287.604
287.63
287.616
287.644
288.212
288.213
288.219
288.217
288.227
288.224
288.236
288.232
288.244
288.243
288.251
288.256
288.26
288.27
288.272
288.284
288.283
288.301
288.297
288.318
288.31
288.338
288.325
288.356
288.865
288.87
288.871
288.876
288.878
288.885
288.884
288.896
288.893
288.906
288.905
288.917
288.919
288.931
288.933
288.947
288.947
288.966
288.962
288.985
288.979
289.009
288.997
289.03
289.489
289.49
289.495
289.497
289.502
289.505
289.511
289.514
289.521
289.526
289.532
289.541
289.545
289.557
289.56
289.575
289.576
289.596
289.594
289.618
289.612
289.644
289.635
289.668
290.078
290.083
290.083
290.09
290.089
290.098
290.099
290.108
290.111
290.12
290.124
290.134
290.138
290.151
290.156
290.171
290.173
290.194
290.192
290.218
290.214
290.246
290.24
290.27
290.64
290.641
290.646
290.646
290.654
290.654
290.662
290.667
290.672
290.681
290.685
290.697
290.701
290.715
290.719
290.736
290.738
290.76
290.76
290.786
290.783
290.816
290.808
290.846
291.17
291.174
291.173
291.182
291.179
291.191
291.19
291.2
291.204
291.213
291.219
291.229
291.235
291.248
291.254
291.271
291.274
291.297
291.296
291.324
291.321
291.355
291.349
291.387
291.675
291.676
291.681
291.681
291.689
291.689
291.698
291.702
291.709
291.717
291.723
291.735
291.74
291.754
291.76
291.778
291.782
291.804
291.806
291.834
291.831
291.866
291.86
291.9
292.152
292.155
292.156
292.161
292.163
292.171
292.172
292.182
292.185
292.196
292.201
292.213
292.219
292.234
292.24
292.258
292.262
292.286
292.287
292.315
292.314
292.349
292.343
292.386
292.605
292.607
292.609
292.613
292.616
292.622
292.626
292.633
292.64
292.647
292.655
292.666
292.673
292.687
292.694
292.712
292.717
292.74
292.743
292.772
292.771
292.807
292.802
292.843
293.034
293.035
293.039
293.04
293.047
293.049
293.056
293.062
293.068
293.078
293.084
293.096
293.102
293.117
293.124
293.142
293.148
293.172
293.174
293.203
293.203
293.239
293.234
293.278
293.44
293.442
293.444
293.449
293.45
293.458
293.46
293.469
293.474
293.484
293.49
293.502
293.51
293.524
293.531
293.55
293.556
293.579
293.582
293.612
293.612
293.648
293.644
293.687
293.825
293.827
293.829
293.832
293.836
293.841
293.847
293.852
293.86
293.868
293.876
293.887
293.894
293.909
293.916
293.935
293.941
293.965
293.969
293.997
293.998
294.034
294.03
294.074
294.19
294.191
294.194
294.196
294.201
294.204
294.211
294.217
294.223
294.233
294.239
294.252
294.259
294.274
294.281
294.3
294.306
294.329
294.333
294.363
294.363
294.399
294.396
294.438
294.535
294.537
294.538
294.543
294.544
294.551
294.554
294.563
294.568
294.578
294.585
294.596
294.604
294.619
294.626
294.645
294.651
294.675
294.679
294.707
294.708
294.745
294.74
294.784
294.862
294.863
294.866
294.868
294.873
294.876
294.883
294.888
294.896
294.904
294.912
294.923
294.931
294.945
294.952
294.971
294.978
295.001
295.005
295.035
295.035
295.071
295.068
295.11
295.172
295.172
295.175
295.177
295.182
295.185
295.191
295.198
295.204
295.214
295.22
295.232
295.239
295.254
295.261
295.28
295.287
295.31
295.315
295.343
295.344
295.38
295.376
295.419
295.465
295.466
295.467
295.472
295.473
295.48
295.483
295.491
295.496
295.506
295.513
295.524
295.532
295.547
295.554
295.572
295.579
295.602
295.606
295.635
295.636
295.672
295.669
295.71
295.742
295.743
295.746
295.747
295.753
295.755
295.763
295.766
295.775
295.782
295.79
295.801
295.809
295.823
295.831
295.849
295.856
295.878
295.883
295.911
295.912
295.948
295.944
295.986
296.005
296.006
296.008
296.01
296.014
296.018
296.023
296.03
296.036
296.045
296.052
296.063
296.071
296.085
296.092
296.111
296.118
296.14
296.144
296.172
296.174
296.209
296.206
296.246
296.254
296.255
296.256
296.26
296.261
296.269
296.27
296.279
296.284
296.293
296.3
296.311
296.319
296.333
296.34
296.358
296.365
296.387
296.392
296.42
296.42
296.456
296.452
296.494
296.489
296.489
296.493
296.492
296.501
296.499
296.511
296.51
296.521
296.527
296.536
296.546
296.554
296.568
296.574
296.592
296.599
296.621
296.626
296.653
296.657
296.686
296.686
296.726
296.712
296.713
296.713
296.719
296.717
296.729
296.725
296.739
296.739
296.752
296.756
296.769
296.775
296.79
296.796
296.814
296.821
296.842
296.847
296.875
296.876
296.908
296.906
296.947
296.923
296.923
296.928
296.925
296.935
296.931
296.945
296.942
296.955
296.958
296.969
296.977
296.986
296.999
297.006
297.023
297.031
297.052
297.056
297.083
297.085
297.118
297.115
297.153
297.122
297.124
297.122
297.131
297.126
297.14
297.135
297.149
297.148
297.162
297.165
297.178
297.184
297.198
297.204
297.222
297.228
297.249
297.254
297.281
297.282
297.314
297.311
297.351
297.312
297.311
297.317
297.312
297.324
297.318
297.333
297.33
297.343
297.346
297.355
297.365
297.372
297.386
297.392
297.409
297.416
297.437
297.441
297.467
297.468
297.502
297.498
297.535
297.49
297.492
297.49
297.499
297.493
297.507
297.502
297.516
297.515
297.528
297.531
297.544
297.55
297.563
297.57
297.587
297.593
297.613
297.618
297.645
297.646
297.676
297.674
297.711
297.659
297.659
297.664
297.661
297.67
297.667
297.679
297.678
297.689
297.694
297.702
297.711
297.718
297.731
297.738
297.755
297.76
297.781
297.786
297.81
297.811
297.844
297.84
297.876
297.819
297.821
297.82
297.826
297.824
297.833
297.832
297.843
297.844
297.856
297.859
297.871
297.877
297.89
297.896
297.914
297.918
297.939
297.943
297.968
297.97
298
297.997
298.033
297.971
297.971
297.973
297.974
297.979
297.981
297.987
297.991
297.997
298.005
298.011
298.021
298.027
298.04
298.046
298.064
298.067
298.09
298.091
298.118
298.117
298.15
298.146
298.181
298.113
298.114
298.115
298.118
298.12
298.125
298.129
298.134
298.139
298.148
298.153
298.164
298.169
298.183
298.189
298.205
298.21
298.229
298.234
298.258
298.26
298.288
298.287
298.32
298.249
298.25
298.25
298.255
298.254
298.262
298.261
298.271
298.272
298.284
298.287
298.299
298.303
298.317
298.323
298.339
298.343
298.364
298.366
298.392
298.391
298.423
298.418
298.453
298.377
298.376
298.38
298.378
298.387
298.383
298.395
298.393
298.404
298.408
298.415
298.425
298.43
298.444
298.448
298.466
298.468
298.491
298.492
298.517
298.518
298.546
298.545
298.576
298.497
298.499
298.496
298.506
298.498
298.515
298.505
298.523
298.517
298.533
298.532
298.547
298.549
298.563
298.568
298.586
298.589
298.609
298.61
298.636
298.635
298.666
298.661
298.695
298.612
298.61
298.617
298.609
298.625
298.613
298.633
298.624
298.64
298.64
298.649
298.658
298.663
298.677
298.681
298.698
298.7
298.722
298.724
298.746
298.749
298.775
298.774
298.804
298.718
298.722
298.715
298.731
298.715
298.74
298.722
298.747
298.735
298.755
298.752
298.767
298.768
298.784
298.787
298.804
298.807
298.827
298.828
298.854
298.852
298.882
298.878
298.909
298.821
298.818
298.827
298.816
298.836
298.819
298.844
298.831
298.849
298.848
298.857
298.866
298.87
298.883
298.888
298.904
298.906
298.928
298.929
298.952
298.954
298.979
298.978
299.007
298.915
298.919
298.911
298.928
298.911
298.937
298.917
298.944
298.931
298.952
298.947
298.963
298.964
298.979
298.982
298.999
299.001
299.02
299.022
299.046
299.046
299.073
299.072
299.101
299.006
299.003
299.012
299.002
299.021
299.005
299.028
299.016
299.034
299.032
299.041
299.05
299.054
299.067
299.071
299.087
299.089
299.111
299.111
299.133
299.135
299.159
299.16
299.187
299.089
299.093
299.087
299.101
299.087
299.109
299.094
299.116
299.107
299.124
299.122
299.136
299.137
299.152
299.154
299.171
299.173
299.192
299.193
299.218
299.217
299.242
299.242
299.27
299.17
299.168
299.175
299.168
299.182
299.173
299.188
299.183
299.195
299.197
299.204
299.213
299.217
299.23
299.233
299.249
299.25
299.272
299.273
299.293
299.295
299.32
299.319
299.346
299.244
299.246
299.243
299.252
299.245
299.259
299.252
299.267
299.262
299.276
299.276
299.288
299.29
299.304
299.307
299.323
299.325
299.343
299.344
299.368
299.368
299.391
299.392
299.418
299.315
299.314
299.318
299.315
299.324
299.32
299.33
299.329
299.337
299.342
299.347
299.357
299.36
299.373
299.376
299.392
299.393
299.414
299.415
299.434
299.435
299.461
299.459
299.486
299.379