/*--------------------------------*- C++ -*----------------------------------*\
  =========                 |
  \\      /  F ield         | OpenFOAM: The Open Source CFD Toolbox
   \\    /   O peration     | Website:  https://openfoam.org
    \\  /    A nd           | Version:  10
     \\/     M anipulation  |
\*---------------------------------------------------------------------------*/
FoamFile
{
    format      ascii;
    class       volVectorField;
    location    "0.25";
    object      U;
}
// * * * * * * * * * * * * * * * * * * * * * * * * * * * * * * * * * * * * * //

dimensions      [0 1 -1 0 0 0 0];

internalField   nonuniform List<vector> 
4176
(
(497.487 -0.0143063 -4.23115e-09)
(497.473 0.0640381 1.34631e-09)
(497.448 0.00108609 -4.05308e-10)
(497.399 0.0908403 7.18802e-11)
(497.345 0.0505766 8.66288e-11)
(497.27 0.090094 -3.94839e-10)
(497.179 0.125308 -4.83567e-10)
(497.087 0.0610957 -4.46783e-11)
(496.953 0.224579 2.88993e-10)
(496.847 0.00547712 3.79096e-10)
(496.671 0.343655 3.02196e-10)
(496.548 -0.0683145 3.84848e-10)
(496.337 0.469074 2.90728e-10)
(496.19 -0.138647 -5.86448e-11)
(495.955 0.566966 -2.72676e-10)
(495.772 -0.134679 -2.38056e-10)
(495.535 0.527674 -2.61582e-10)
(495.285 0.0246286 -8.6166e-11)
(495.072 0.333946 2.82429e-10)
(494.729 0.323871 2.12407e-10)
(494.574 -0.0178611 -9.13479e-11)
(494.097 0.772862 -1.68878e-10)
(494.066 -0.517133 3.90139e-11)
(493.442 1.44315 1.27983e-10)
(497.469 0.00476799 -4.23011e-09)
(497.454 0.11486 1.34657e-09)
(497.429 0.0761421 -4.05492e-10)
(497.378 0.203747 7.12018e-11)
(497.324 0.185833 8.67248e-11)
(497.246 0.264815 -3.94763e-10)
(497.155 0.321216 -4.84469e-10)
(497.058 0.29619 -4.46994e-11)
(496.923 0.481545 2.89651e-10)
(496.813 0.298606 3.79396e-10)
(496.635 0.662173 3.01889e-10)
(496.507 0.279511 3.84944e-10)
(496.292 0.849655 2.89237e-10)
(496.141 0.259227 -5.85828e-11)
(495.9 1.01166 -2.72576e-10)
(495.713 0.302995 -2.37661e-10)
(495.468 1.04141 -2.62796e-10)
(495.214 0.51165 -8.62183e-11)
(494.995 0.91351 2.81473e-10)
(494.645 0.856039 2.12021e-10)
(494.49 0.627682 -9.13294e-11)
(493.992 1.33191 -1.71248e-10)
(493.955 0.124297 3.97733e-11)
(493.268 1.99346 1.27562e-10)
(497.412 0.0231166 -4.23348e-09)
(497.398 0.161516 1.34578e-09)
(497.374 0.147318 -4.07533e-10)
(497.323 0.308087 7.22578e-11)
(497.272 0.313435 8.6447e-11)
(497.193 0.427001 -3.95688e-10)
(497.107 0.50534 -4.82123e-10)
(497.01 0.51542 -4.30553e-11)
(496.881 0.722271 2.9162e-10)
(496.771 0.573269 3.79776e-10)
(496.598 0.959957 3.01154e-10)
(496.473 0.606916 3.84317e-10)
(496.262 1.20545 2.91003e-10)
(496.115 0.634815 -5.85125e-11)
(495.876 1.42787 -2.72932e-10)
(495.696 0.71474 -2.36601e-10)
(495.453 1.5219 -2.65619e-10)
(495.208 0.966881 -8.78076e-11)
(494.992 1.45633 2.8223e-10)
(494.652 1.34467 2.11627e-10)
(494.505 1.24692 -9.2345e-11)
(494.016 1.88314 -1.68683e-10)
(493.98 0.837933 4.00389e-11)
(493.27 2.60962 1.2849e-10)
(497.308 0.04185 -4.23304e-09)
(497.293 0.209021 1.34952e-09)
(497.27 0.219812 -4.0857e-10)
(497.219 0.414402 7.53692e-11)
(497.167 0.443402 8.57566e-11)
(497.09 0.592354 -4.00263e-10)
(497.003 0.6929 -4.82422e-10)
(496.906 0.73905 -4.57491e-11)
(496.776 0.96749 2.84873e-10)
(496.667 0.853581 3.83334e-10)
(496.493 1.2633 3.02313e-10)
(496.369 0.941275 3.82878e-10)
(496.157 1.56814 2.9271e-10)
(496.012 1.01902 -6.00765e-11)
(495.77 1.85276 -2.80177e-10)
(495.592 1.13622 -2.38002e-10)
(495.345 2.01632 -2.6331e-10)
(495.096 1.42739 -8.81241e-11)
(494.89 2.00848 2.84604e-10)
(494.539 1.8415 2.11049e-10)
(494.397 1.85756 -9.52112e-11)
(493.915 2.42103 -1.69607e-10)
(493.885 1.52489 3.82395e-11)
(493.204 3.20641 1.1896e-10)
(497.156 0.0601799 -4.23516e-09)
(497.142 0.255541 1.35585e-09)
(497.119 0.290728 -4.04569e-10)
(497.068 0.518583 7.5437e-11)
(497.017 0.570535 8.91076e-11)
(496.94 0.754517 -3.95065e-10)
(496.855 0.876374 -4.84629e-10)
(496.759 0.958597 -4.37708e-11)
(496.631 1.20737 2.90357e-10)
(496.523 1.12906 3.81348e-10)
(496.35 1.56009 3.02742e-10)
(496.228 1.27007 3.86025e-10)
(496.017 1.92341 2.89463e-10)
(495.875 1.39678 -6.10885e-11)
(495.633 2.27048 -2.78364e-10)
(495.46 1.55091 -2.40677e-10)
(495.209 2.51165 -2.64509e-10)
(494.965 1.87055 -8.72968e-11)
(494.763 2.55355 2.79223e-10)
(494.41 2.33937 2.16855e-10)
(494.27 2.45204 -8.75508e-11)
(493.793 2.94687 -1.66753e-10)
(493.762 2.1675 4.18089e-11)
(493.101 3.76434 1.29736e-10)
(496.956 0.0785019 -4.24759e-09)
(496.941 0.301765 1.35365e-09)
(496.918 0.361489 -4.03125e-10)
(496.868 0.622177 7.08555e-11)
(496.818 0.697362 7.80342e-11)
(496.741 0.915824 -4.00271e-10)
(496.657 1.05942 -4.82533e-10)
(496.561 1.17709 -4.78248e-11)
(496.434 1.44667 2.90943e-10)
(496.326 1.40347 3.86913e-10)
(496.156 1.856 3.03205e-10)
(496.034 1.59804 3.80623e-10)
(495.824 2.27706 2.86928e-10)
(495.683 1.77443 -5.87159e-11)
(495.442 2.68491 -2.81521e-10)
(495.273 1.96986 -2.38265e-10)
(495.017 3.00229 -2.54104e-10)
(494.786 2.31343 -8.43887e-11)
(494.57 3.1031 2.89131e-10)
(494.228 2.83617 2.19029e-10)
(494.083 3.04826 -9.187e-11)
(493.611 3.47486 -1.77587e-10)
(493.574 2.81441 3.85328e-11)
(492.912 4.3213 1.29956e-10)
(496.707 0.0966461 -4.2454e-09)
(496.693 0.347325 1.3509e-09)
(496.67 0.431459 -4.19249e-10)
(496.62 0.724331 7.10069e-11)
(496.571 0.822732 9.28132e-11)
(496.494 1.07491 -3.99638e-10)
(496.411 1.24035 -4.943e-10)
(496.315 1.39266 -4.34289e-11)
(496.191 1.68323 2.97501e-10)
(496.083 1.67437 3.82274e-10)
(495.915 2.14847 3.00675e-10)
(495.794 1.92221 3.919e-10)
(495.586 2.62632 3.02863e-10)
(495.447 2.14844 -5.68699e-11)
(495.207 3.09325 -2.77242e-10)
(495.042 2.38716 -2.35153e-10)
(494.783 3.48191 -2.63744e-10)
(494.563 2.7581 -8.99914e-11)
(494.337 3.65053 2.8372e-10)
(494.009 3.32111 2.16601e-10)
(493.858 3.64334 -9.33831e-11)
(493.392 4.0024 -1.77766e-10)
(493.352 3.47103 4.08303e-11)
(492.691 4.88357 1.34979e-10)
(496.41 0.114653 -4.26014e-09)
(496.395 0.392417 1.36116e-09)
(496.373 0.500805 -3.99084e-10)
(496.323 0.825464 7.45605e-11)
(496.275 0.946931 8.00699e-11)
(496.198 1.2324 -3.96976e-10)
(496.116 1.41954 -4.78202e-10)
(496.022 1.60607 -4.4846e-11)
(495.898 1.91746 2.79335e-10)
(495.792 1.94267 3.80003e-10)
(495.625 2.43801 3.11773e-10)
(495.506 2.2435 3.86461e-10)
(495.3 2.97198 2.77435e-10)
(495.162 2.51947 -6.55855e-11)
(494.923 3.49707 -2.70358e-10)
(494.762 2.80195 -2.43428e-10)
(494.502 3.95414 -2.60253e-10)
(494.291 3.2004 -7.33901e-11)
(494.058 4.19328 2.87667e-10)
(493.742 3.80157 2.01945e-10)
(493.584 4.23663 -9.36392e-11)
(493.127 4.52515 -1.6175e-10)
(493.082 4.12231 3.82815e-11)
(492.43 5.43854 1.11746e-10)
(496.064 0.132478 -4.27084e-09)
(496.05 0.436953 1.34769e-09)
(496.028 0.569366 -4.20961e-10)
(495.978 0.925368 6.24432e-11)
(495.93 1.06967 8.00492e-11)
(495.855 1.38796 -4.05588e-10)
(495.774 1.59655 -4.93956e-10)
(495.68 1.81683 -4.81699e-11)
(495.558 2.14876 2.85981e-10)
(495.453 2.20768 3.77125e-10)
(495.288 2.72387 3.00172e-10)
(495.17 2.56101 3.85228e-10)
(494.966 3.31317 2.85973e-10)
(494.831 2.8865 -6.43797e-11)
(494.593 3.89546 -2.77241e-10)
(494.436 3.21291 -2.40549e-10)
(494.175 4.41789 -2.6468e-10)
(493.972 3.63975 -8.44219e-11)
(493.734 4.72917 2.84329e-10)
(493.43 4.27533 2.08857e-10)
(493.266 4.82741 -9.57049e-11)
(492.817 5.04321 -1.72933e-10)
(492.77 4.76914 4.00125e-11)
(492.126 5.98685 1.28087e-10)
(495.67 0.150119 -4.254e-09)
(495.656 0.480943 1.37633e-09)
(495.634 0.63714 -4.0203e-10)
(495.585 1.02406 8.56997e-11)
(495.538 1.19095 9.86614e-11)
(495.462 1.54161 -3.88856e-10)
(495.383 1.77138 -4.77472e-10)
(495.29 2.02497 -3.09276e-11)
(495.169 2.37711 3.04492e-10)
(495.065 2.46936 3.9406e-10)
(494.902 3.00597 3.18768e-10)
(494.786 2.87463 4.01359e-10)
(494.584 3.64977 3.04667e-10)
(494.451 3.24929 -5.17874e-11)
(494.215 4.28832 -2.63766e-10)
(494.062 3.61973 -2.30048e-10)
(493.801 4.87352 -2.51e-10)
(493.606 4.07535 -7.34056e-11)
(493.363 5.25757 2.9832e-10)
(493.071 4.74286 2.20475e-10)
(492.901 5.4135 -8.36793e-11)
(492.464 5.55459 -1.60876e-10)
(492.411 5.40975 4.94458e-11)
(491.777 6.52682 1.3723e-10)
(495.227 0.167549 -4.2741e-09)
(495.213 0.524331 1.36514e-09)
(495.192 0.704029 -4.11753e-10)
(495.143 1.12144 7.83156e-11)
(495.097 1.31062 9.18969e-11)
(495.022 1.6932 -3.97229e-10)
(494.943 1.94383 -4.82919e-10)
(494.851 2.23027 -3.27812e-11)
(494.733 2.60224 3.02936e-10)
(494.63 2.72743 3.926e-10)
(494.469 3.28395 3.19334e-10)
(494.354 3.18392 4.04167e-10)
(494.154 3.98132 3.07447e-10)
(494.024 3.60726 -5.01587e-11)
(493.79 4.67516 -2.59309e-10)
(493.64 4.0217 -2.24241e-10)
(493.381 5.32089 -2.4366e-10)
(493.193 4.50665 -6.71588e-11)
(492.946 5.77768 3.08888e-10)
(492.665 5.20444 2.31264e-10)
(492.49 5.99246 -9.54765e-11)
(492.065 6.05744 -1.94883e-10)
(492.009 6.04444 2.02286e-11)
(491.385 7.05808 1.06087e-10)
(494.736 0.184747 -4.28198e-09)
(494.722 0.567075 1.3681e-09)
(494.701 0.769957 -4.15095e-10)
(494.652 1.2174 7.2989e-11)
(494.607 1.42855 8.68553e-11)
(494.533 1.8426 -4.03578e-10)
(494.456 2.11376 -4.91456e-10)
(494.365 2.43261 -4.27736e-11)
(494.248 2.82401 2.93286e-10)
(494.146 2.98173 3.83424e-10)
(493.987 3.55761 3.09108e-10)
(493.875 3.48864 3.95253e-10)
(493.677 4.30753 2.96609e-10)
(493.55 3.96 -5.99853e-11)
(493.317 5.05559 -2.74138e-10)
(493.172 4.41821 -2.38144e-10)
(492.913 5.76004 -2.6092e-10)
(492.732 4.93325 -8.0487e-11)
(492.482 6.28876 2.9056e-10)
(492.213 5.65873 2.12833e-10)
(492.034 6.56383 -9.06723e-11)
(491.62 6.55153 -1.65675e-10)
(491.56 6.67144 4.61976e-11)
(490.948 7.57994 1.32587e-10)
(494.196 0.201683 -4.29077e-09)
(494.182 0.609116 1.36794e-09)
(494.161 0.834825 -4.21431e-10)
(494.113 1.31181 6.71802e-11)
(494.069 1.54458 7.85859e-11)
(493.996 1.98964 -4.16334e-10)
(493.92 2.28095 -5.06449e-10)
(493.83 2.63177 -5.94123e-11)
(493.714 3.04217 2.76751e-10)
(493.615 3.23201 3.65028e-10)
(493.458 3.82671 2.83176e-10)
(493.347 3.78849 3.69472e-10)
(493.151 4.62808 2.63835e-10)
(493.028 4.30708 -6.57055e-11)
(492.797 5.42917 -2.50504e-10)
(492.656 4.80856 -2.20986e-10)
(492.399 6.19086 -2.42932e-10)
(492.224 5.35482 -6.80119e-11)
(491.972 6.79023 3.03247e-10)
(491.715 6.10536 2.23195e-10)
(491.531 7.12632 -8.26254e-11)
(491.13 7.03557 -1.60601e-10)
(491.067 7.28984 5.15491e-11)
(490.467 8.0919 1.35766e-10)
(493.607 0.218336 -4.29164e-09)
(493.593 0.650404 1.39257e-09)
(493.573 0.898542 -4.22804e-10)
(493.526 1.40457 4.79924e-11)
(493.482 1.65856 7.56409e-11)
(493.41 2.13413 -4.07961e-10)
(493.335 2.4452 -4.85822e-10)
(493.246 2.82751 -2.1997e-11)
(493.133 3.25647 2.96576e-10)
(493.035 3.47802 3.65956e-10)
(492.88 4.09099 2.9657e-10)
(492.772 4.08319 3.93296e-10)
(492.578 4.9427 3.06239e-10)
(492.458 4.64815 -4.67073e-11)
(492.229 5.79554 -2.83913e-10)
(492.093 5.19226 -2.62106e-10)
(491.837 6.61292 -2.7944e-10)
(491.669 5.77075 -8.65745e-11)
(491.416 7.28158 2.97672e-10)
(491.17 6.54371 2.28924e-10)
(490.981 7.67945 -9.51166e-11)
(490.594 7.50871 -1.89552e-10)
(490.528 7.89815 3.4749e-11)
(489.94 8.59343 1.33046e-10)
(492.969 0.23468 -4.31489e-09)
(492.955 0.690887 1.35427e-09)
(492.936 0.96102 -4.14557e-10)
(492.889 1.49554 1.04741e-10)
(492.846 1.77031 1.01399e-10)
(492.775 2.27586 -4.05724e-10)
(492.701 2.60624 -5.06463e-10)
(492.614 3.01957 -6.77856e-11)
(492.503 3.46662 2.94362e-10)
(492.407 3.71944 4.08564e-10)
(492.254 4.35012 3.17766e-10)
(492.148 4.37242 3.8793e-10)
(491.957 5.25107 2.71975e-10)
(491.84 4.98286 -6.85345e-11)
(491.614 6.15438 -2.60141e-10)
(491.482 5.56884 -2.33181e-10)
(491.228 7.02578 -2.69336e-10)
(491.067 6.18033 -9.78671e-11)
(490.812 7.76224 2.57203e-10)
(490.578 6.97351 1.9985e-10)
(490.386 8.22282 -8.22959e-11)
(490.011 7.97009 -1.65391e-10)
(489.943 8.49515 3.49613e-11)
(489.369 9.08399 1.07782e-10)
(492.282 0.250696 -4.30846e-09)
(492.268 0.730521 1.40582e-09)
(492.249 1.02218 -4.22313e-10)
(492.203 1.58462 4.51051e-11)
(492.161 1.87968 7.39189e-11)
(492.091 2.41464 -4.06959e-10)
(492.019 2.76384 -4.79164e-10)
(491.933 3.20765 -1.4266e-11)
(491.824 3.67229 2.99095e-10)
(491.73 3.95592 3.68352e-10)
(491.579 4.60374 3.03974e-10)
(491.476 4.65581 4.02151e-10)
(491.288 5.55286 3.16558e-10)
(491.174 5.31085 -7.22938e-11)
(490.951 6.50536 -3.16918e-10)
(490.824 5.93785 -2.58777e-10)
(490.572 7.42909 -2.69815e-10)
(490.418 6.58273 -7.28763e-11)
(490.163 8.2314 3.134e-10)
(489.94 7.39451 2.06397e-10)
(489.744 8.75573 -1.21407e-10)
(489.384 8.41937 -1.78715e-10)
(489.312 9.08026 4.83976e-11)
(488.752 9.56288 1.45403e-10)
(491.546 0.266361 -4.33228e-09)
(491.532 0.76926 1.37055e-09)
(491.513 1.08194 -4.41313e-10)
(491.467 1.67169 4.13858e-11)
(491.427 1.98651 8.46274e-11)
(491.358 2.55028 -3.81227e-10)
(491.287 2.91774 -4.76282e-10)
(491.203 3.39145 -3.25238e-11)
(491.096 3.87311 2.96605e-10)
(491.004 4.18706 3.80384e-10)
(490.857 4.85144 2.93264e-10)
(490.756 4.9329 3.7106e-10)
(490.571 5.84764 2.97324e-10)
(490.461 5.6317 -4.18655e-11)
(490.241 6.84812 -2.66676e-10)
(490.118 6.29891 -2.35643e-10)
(489.869 7.82258 -2.66352e-10)
(489.721 6.97712 -8.91966e-11)
(489.466 8.68827 2.71498e-10)
(489.255 7.80635 1.83281e-10)
(489.056 9.27669 -1.33167e-10)
(488.71 8.85724 -1.75603e-10)
(488.634 9.65392 6.63941e-11)
(488.089 10.0288 1.42233e-10)
(490.759 0.281652 -4.33409e-09)
(490.746 0.807051 1.39749e-09)
(490.727 1.14021 -4.08364e-10)
(490.682 1.75662 9.61178e-11)
(490.643 2.09064 1.08034e-10)
(490.575 2.68256 -3.86582e-10)
(490.506 3.06769 -4.69377e-10)
(490.424 3.57069 -8.12039e-12)
(490.319 4.06875 3.37933e-10)
(490.23 4.41248 3.93127e-10)
(490.085 5.09276 2.77763e-10)
(489.988 5.20323 3.6813e-10)
(489.806 6.13492 2.64734e-10)
(489.699 5.9449 -9.38926e-11)
(489.482 7.18224 -3.09212e-10)
(489.364 6.65159 -2.61153e-10)
(489.118 8.20601 -2.83577e-10)
(488.977 7.36274 -9.25381e-11)
(488.723 9.13218 2.84941e-10)
(488.523 8.20874 2.11735e-10)
(488.321 9.78526 -8.98249e-11)
(487.99 9.28325 -1.61413e-10)
(487.91 10.2153 5.53742e-11)
(487.381 10.4813 1.46376e-10)
(489.923 0.296538 -4.35081e-09)
(489.91 0.843829 1.38733e-09)
(489.892 1.1969 -4.29821e-10)
(489.847 1.83929 6.99807e-11)
(489.809 2.19189 7.54021e-11)
(489.743 2.81129 -4.30808e-10)
(489.676 3.21345 -5.162e-10)
(489.596 3.74507 -5.79304e-11)
(489.493 4.25888 2.80252e-10)
(489.406 4.63178 3.69688e-10)
(489.264 5.32729 2.91332e-10)
(489.17 5.4663 3.73091e-10)
(488.992 6.4142 2.60799e-10)
(488.889 6.24988 -1.02397e-10)
(488.676 7.50719 -3.27748e-10)
(488.563 6.99535 -2.84366e-10)
(488.319 8.57893 -2.71142e-10)
(488.185 7.73909 -5.15183e-11)
(487.933 9.56268 3.25223e-10)
(487.745 8.60127 2.38105e-10)
(487.539 10.281 -6.92036e-11)
(487.224 9.69709 -1.50322e-10)
(487.139 10.7638 6.36795e-11)
(486.627 10.9199 1.50718e-10)
(489.037 0.310985 -4.37731e-09)
(489.023 0.879516 1.4017e-09)
(489.006 1.25187 -4.01643e-10)
(488.963 1.91953 7.50339e-11)
(488.925 2.29006 1.01334e-10)
(488.86 2.93623 -3.82596e-10)
(488.796 3.35474 -4.95519e-10)
(488.717 3.9143 -6.18312e-11)
(488.617 4.44315 2.99118e-10)
(488.533 4.8446 4.09585e-10)
(488.395 5.5546 3.05649e-10)
(488.304 5.72165 4.03566e-10)
(488.129 6.68496 3.11134e-10)
(488.03 6.54608 -8.27205e-11)
(487.821 7.82239 -2.83183e-10)
(487.713 7.32954 -2.25048e-10)
(487.473 8.94079 -2.76355e-10)
(487.346 8.10559 -1.13811e-10)
(487.096 9.97936 2.76058e-10)
(486.919 8.98352 2.11216e-10)
(486.711 10.7633 -1.22761e-10)
(486.41 10.0984 -1.78551e-10)
(486.322 11.2988 5.13754e-11)
(485.827 11.3441 1.14214e-10)
(488.1 0.324955 -4.36832e-09)
(488.087 0.914025 1.41677e-09)
(488.07 1.30498 -4.0308e-10)
(488.027 1.99714 1.09691e-10)
(487.992 2.38491 1.19545e-10)
(487.928 3.05712 -4.21757e-10)
(487.865 3.49129 -5.42535e-10)
(487.789 4.07809 -7.05845e-11)
(487.692 4.62125 2.81847e-10)
(487.611 5.0506 3.79327e-10)
(487.475 5.7743 3.06539e-10)
(487.388 5.96883 4.0021e-10)
(487.217 6.94671 3.0226e-10)
(487.123 6.83293 -5.77713e-11)
(486.917 8.12725 -2.65271e-10)
(486.815 7.65349 -2.21359e-10)
(486.579 9.29101 -2.38566e-10)
(486.459 8.46156 -8.91425e-11)
(486.211 10.3819 2.48408e-10)
(486.045 9.35513 1.78936e-10)
(485.836 11.2315 -1.23305e-10)
(485.551 10.487 -1.91391e-10)
(485.458 11.8197 2.50293e-11)
(484.98 11.7536 1.23164e-10)
(487.112 0.338407 -4.39923e-09)
(487.099 0.947261 1.37308e-09)
(487.083 1.35609 -4.27751e-10)
(487.042 2.07193 1.10245e-10)
(487.007 2.47622 9.62278e-11)
(486.946 3.17369 -4.2327e-10)
(486.885 3.62278 -5.20069e-10)
(486.811 4.23611 -2.67227e-11)
(486.717 4.79283 3.46038e-10)
(486.638 5.24941 4.18374e-10)
(486.507 5.98602 3.2213e-10)
(486.423 6.20745 3.8758e-10)
(486.256 7.19902 2.58464e-10)
(486.167 7.10992 -8.09844e-11)
(485.965 8.42123 -2.71289e-10)
(485.869 7.96655 -2.4375e-10)
(485.637 9.62894 -2.84046e-10)
(485.524 8.80618 -1.10554e-10)
(485.279 10.7698 2.94127e-10)
(485.124 9.71571 2.34604e-10)
(484.913 11.6849 -8.98264e-11)
(484.644 10.8623 -1.83177e-10)
(484.548 12.326 1.13229e-11)
(484.087 12.1478 1.28034e-10)
(486.074 0.351302 -4.41511e-09)
(486.061 0.97914 1.37812e-09)
(486.046 1.40505 -4.29385e-10)
(486.005 2.14372 1.16108e-10)
(485.973 2.56374 1.06326e-10)
(485.912 3.28566 -4.19586e-10)
(485.854 3.74892 -5.21397e-10)
(485.783 4.38803 -7.63534e-11)
(485.692 4.95754 2.97438e-10)
(485.616 5.44069 4.24707e-10)
(485.488 6.1894 3.3329e-10)
(485.409 6.43713 3.9836e-10)
(485.246 7.44148 2.69215e-10)
(485.161 7.37662 -7.24892e-11)
(484.964 8.70384 -2.61971e-10)
(484.874 8.26813 -2.39704e-10)
(484.647 9.95395 -2.79498e-10)
(484.541 9.13859 -1.01495e-10)
(484.3 11.143 3.05417e-10)
(484.155 10.0649 2.43905e-10)
(483.943 12.1223 -8.01359e-11)
(483.69 11.2238 -1.74667e-10)
(483.59 12.8172 2.61847e-11)
(483.148 12.5265 1.00985e-10)
(484.985 0.363609 -4.43632e-09)
(484.972 1.00959 1.42343e-09)
(484.958 1.45175 -4.05711e-10)
(484.918 2.21233 7.28574e-11)
(484.887 2.64725 5.06392e-11)
(484.829 3.39278 -4.37292e-10)
(484.773 3.86939 -4.97074e-10)
(484.704 4.53352 -6.01982e-11)
(484.616 5.11502 3.03911e-10)
(484.544 5.62406 4.16053e-10)
(484.42 6.38404 3.08201e-10)
(484.345 6.65748 4.14538e-10)
(484.186 7.67369 3.28086e-10)
(484.106 7.6326 -7.81627e-11)
(483.914 8.97464 -3.32404e-10)
(483.83 8.55773 -2.64102e-10)
(483.607 10.2655 -2.64016e-10)
(483.51 9.45809 -9.67134e-11)
(483.272 11.5007 3.01063e-10)
(483.138 10.402 2.30551e-10)
(482.926 12.5428 -1.06896e-10)
(482.689 11.5707 -1.6112e-10)
(482.585 13.2923 7.73e-11)
(482.163 12.889 1.34638e-10)
(483.844 0.375306 -4.41948e-09)
(483.832 1.03855 1.45228e-09)
(483.818 1.4961 -3.91824e-10)
(483.78 2.27763 8.44778e-11)
(483.75 2.72658 5.58832e-11)
(483.694 3.49481 -4.39248e-10)
(483.641 3.98391 -5.0374e-10)
(483.575 4.67225 -1.64645e-11)
(483.49 5.26491 3.43082e-10)
(483.421 5.79913 3.96691e-10)
(483.301 6.56953 2.82045e-10)
(483.23 6.8681 3.84845e-10)
(483.076 7.89526 2.90446e-10)
(483.002 7.87748 -6.89773e-11)
(482.814 9.23325 -2.72908e-10)
(482.737 8.83492 -2.15362e-10)
(482.519 10.5632 -2.75533e-10)
(482.429 9.76418 -1.15886e-10)
(482.195 11.8425 2.74434e-10)
(482.072 10.7264 2.02411e-10)
(481.86 12.9458 -9.10897e-11)
(481.64 11.9021 -1.51838e-10)
(481.534 13.75 8.30244e-11)
(481.13 13.2347 1.35041e-10)
(482.653 0.386376 -4.42904e-09)
(482.641 1.066 1.42688e-09)
(482.628 1.53803 -4.52759e-10)
(482.59 2.33954 9.66666e-11)
(482.563 2.8016 8.30136e-11)
(482.508 3.59158 -4.4676e-10)
(482.458 4.09226 -4.88722e-10)
(482.395 4.80394 -3.80109e-11)
(482.313 5.40685 2.83726e-10)
(482.248 5.96552 4.14674e-10)
(482.132 6.74547 3.22261e-10)
(482.066 7.06857 3.86168e-10)
(481.916 8.10575 3.13617e-10)
(481.847 8.11085 -8.02083e-11)
(481.665 9.47925 -3.25533e-10)
(481.594 9.09929 -2.46495e-10)
(481.381 10.8467 -2.87377e-10)
(481.299 10.0563 -1.05815e-10)
(481.07 12.168 3.04338e-10)
(480.957 11.0375 1.97857e-10)
(480.746 13.3307 -1.3136e-10)
(480.543 12.2173 -1.72025e-10)
(480.434 14.189 2.33655e-11)
(480.051 13.5631 1.00198e-10)
(481.41 0.39681 -4.50145e-09)
(481.398 1.0919 1.407e-09)
(481.386 1.57749 -4.54622e-10)
(481.35 2.39797 6.73941e-11)
(481.324 2.8722 8.33612e-11)
(481.272 3.68295 -4.25382e-10)
(481.224 4.19425 -5.01412e-10)
(481.163 4.92836 -2.01092e-11)
(481.086 5.54057 3.30961e-10)
(481.025 6.1229 4.27601e-10)
(480.913 6.91146 3.58113e-10)
(480.851 7.25847 3.9309e-10)
(480.706 8.30472 2.85186e-10)
(480.643 8.33227 -8.65822e-11)
(480.466 9.71223 -3.0361e-10)
(480.401 9.35045 -2.52346e-10)
(480.193 11.1155 -2.70462e-10)
(480.12 10.3342 -6.95574e-11)
(479.895 12.4768 3.17431e-10)
(479.793 11.3346 2.28627e-10)
(479.584 13.6967 -1.32071e-10)
(479.397 12.5158 -1.97871e-10)
(479.286 14.6089 2.39002e-11)
(478.922 13.8741 1.1625e-10)
(480.116 0.406595 -4.47586e-09)
(480.105 1.11622 1.4651e-09)
(480.093 1.61446 -3.99412e-10)
(480.058 2.45288 8.02855e-11)
(480.034 2.9383 4.92462e-11)
(479.984 3.76883 -4.57263e-10)
(479.939 4.28975 -5.20198e-10)
(479.881 5.04534 -2.54878e-11)
(479.807 5.66585 3.32553e-10)
(479.75 6.27099 4.409e-10)
(479.642 7.06715 3.24012e-10)
(479.585 7.4374 3.71651e-10)
(479.446 8.49173 2.73843e-10)
(479.388 8.54127 -9.30568e-11)
(479.216 9.93175 -2.99097e-10)
(479.158 9.58795 -2.36767e-10)
(478.956 11.3693 -2.41095e-10)
(478.891 10.5973 -3.21445e-11)
(478.671 12.7687 3.06987e-10)
(478.58 11.6166 1.76825e-10)
(478.373 14.0425 -1.20628e-10)
(478.203 12.798 -1.77337e-10)
(478.089 15.0107 5.93604e-11)
(477.746 14.1681 1.64606e-10)
(478.771 0.415719 -4.47915e-09)
(478.759 1.13895 1.43813e-09)
(478.749 1.64888 -4.7695e-10)
(478.715 2.5042 7.43489e-11)
(478.693 2.99985 1.19969e-10)
(478.644 3.84912 -4.2206e-10)
(478.602 4.37867 -5.33714e-10)
(478.548 5.15476 -2.48513e-11)
(478.477 5.78252 2.98278e-10)
(478.424 6.40958 3.65278e-10)
(478.321 7.21228 3.25221e-10)
(478.269 7.60504 4.42992e-10)
(478.134 8.66638 2.99132e-10)
(478.083 8.73741 -1.05439e-10)
(477.917 10.1373 -2.94384e-10)
(477.866 9.8113 -2.15041e-10)
(477.669 11.6077 -2.66419e-10)
(477.612 10.8452 -9.73717e-11)
(477.398 13.0434 3.2115e-10)
(477.317 11.8828 2.0398e-10)
(477.113 14.3674 -1.39948e-10)
(476.96 13.0637 -1.83155e-10)
(476.843 15.393 7.17156e-11)
(476.521 14.4436 1.37963e-10)
(477.374 0.424166 -4.5564e-09)
(477.363 1.16003 1.41675e-09)
(477.353 1.6807 -4.66786e-10)
(477.321 2.55186 6.19432e-11)
(477.3 3.05676 7.21875e-11)
(477.254 3.92375 -4.49265e-10)
(477.214 4.46091 -5.23341e-10)
(477.163 5.25652 -3.66752e-11)
(477.096 5.89048 3.12337e-10)
(477.047 6.53856 4.03372e-10)
(476.948 7.34667 3.32635e-10)
(476.901 7.76115 4.26667e-10)
(476.772 8.82836 3.12586e-10)
(476.726 8.92031 -7.13823e-11)
(476.566 10.3285 -2.8937e-10)
(476.522 10.02 -2.38476e-10)
(476.332 11.8301 -2.60503e-10)
(476.283 11.0774 -6.34713e-11)
(476.075 13.3005 3.29246e-10)
(476.004 12.133 2.37522e-10)
(475.804 14.6707 -7.08538e-11)
(475.668 13.3125 -2.05647e-10)
(475.549 15.7547 1.0043e-11)
(475.248 14.6998 1.1055e-10)
(475.926 0.43192 -4.49839e-09)
(475.915 1.17945 1.48602e-09)
(475.906 1.70987 -4.26203e-10)
(475.874 2.5958 1.02187e-10)
(475.856 3.10895 1.03141e-10)
(475.812 3.99263 -4.25415e-10)
(475.775 4.53638 -5.06347e-10)
(475.727 5.35055 -2.33311e-11)
(475.664 5.98964 3.20459e-10)
(475.618 6.65784 4.0508e-10)
(475.524 7.47022 3.27539e-10)
(475.482 7.90562 4.09852e-10)
(475.358 8.97745 2.87817e-10)
(475.319 9.0897 -9.63069e-11)
(475.164 10.5049 -3.29483e-10)
(475.128 10.2136 -2.86078e-10)
(474.944 12.0362 -3.13393e-10)
(474.904 11.2935 -5.16747e-11)
(474.701 13.5395 3.31293e-10)
(474.641 12.3666 2.26993e-10)
(474.445 14.952 -8.40176e-11)
(474.325 13.5438 -1.67008e-10)
(474.204 16.0954 4.84812e-11)
(473.926 14.9366 1.39454e-10)
(474.426 0.438965 -4.53334e-09)
(474.415 1.19716 1.46393e-09)
(474.407 1.73634 -4.65485e-10)
(474.377 2.63594 1.02422e-10)
(474.36 3.15633 9.09758e-11)
(474.318 4.05566 -4.53958e-10)
(474.284 4.605 -4.95362e-10)
(474.239 5.43676 -2.90578e-11)
(474.18 6.07993 3.02927e-10)
(474.138 6.76736 4.32432e-10)
(474.049 7.58286 3.35284e-10)
(474.012 8.03839 4.05121e-10)
(473.893 9.11355 3.27623e-10)
(473.86 9.24545 -7.88361e-11)
(473.711 10.6662 -3.24611e-10)
(473.683 10.3918 -2.38943e-10)
(473.505 12.2253 -2.81199e-10)
(473.474 11.4927 -9.82508e-11)
(473.277 13.7599 3.33082e-10)
(473.228 12.583 2.15964e-10)
(473.036 15.2117 -1.24404e-10)
(472.932 13.7578 -1.55889e-10)
(472.809 16.4139 4.92714e-11)
(472.553 15.1536 1.17071e-10)
(472.874 0.445294 -4.60275e-09)
(472.863 1.21315 1.46988e-09)
(472.856 1.76007 -4.2954e-10)
(472.827 2.67225 6.20922e-11)
(472.812 3.19886 9.75634e-11)
(472.773 4.11279 -4.08818e-10)
(472.742 4.66668 -5.35798e-10)
(472.7 5.51507 -2.18325e-11)
(472.644 6.16125 3.50349e-10)
(472.607 6.86705 3.95339e-10)
(472.522 7.68453 3.43143e-10)
(472.49 8.15943 4.57648e-10)
(472.377 9.23665 2.95387e-10)
(472.35 9.38754 -7.35595e-11)
(472.207 10.8124 -2.72472e-10)
(472.186 10.5543 -2.70201e-10)
(472.014 12.3971 -2.75383e-10)
(471.992 11.6746 -5.0161e-11)
(471.802 13.9612 3.00901e-10)
(471.764 12.7812 2.22359e-10)
(471.577 15.4497 -7.09675e-11)
(471.488 13.955 -1.85522e-10)
(471.364 16.7091 5.63987e-11)
(471.131 15.3498 1.64692e-10)
(471.27 0.450907 -4.58396e-09)
(471.26 1.22741 1.51344e-09)
(471.254 1.78107 -3.9931e-10)
(471.226 2.7047 9.76327e-11)
(471.213 3.23651 5.90965e-11)
(471.176 4.16396 -4.51981e-10)
(471.148 4.72137 -5.04807e-10)
(471.109 5.58539 5.70118e-12)
(471.057 6.23354 3.78836e-10)
(471.023 6.95683 4.30336e-10)
(470.944 7.77516 3.04183e-10)
(470.916 8.26871 4.14122e-10)
(470.809 9.34669 3.23239e-10)
(470.787 9.51599 -4.90051e-11)
(470.651 10.9435 -2.53425e-10)
(470.637 10.7013 -2.5244e-10)
(470.471 12.5516 -3.24683e-10)
(470.459 11.8389 -9.26094e-11)
(470.275 14.1429 3.16451e-10)
(470.248 12.9606 2.35103e-10)
(470.067 15.6658 -5.08031e-11)
(469.992 14.1355 -1.74516e-10)
(469.868 16.9806 2.14531e-12)
(469.657 15.5248 1.17473e-10)
(469.615 0.45581 -4.66256e-09)
(469.605 1.23997 1.4451e-09)
(469.6 1.79937 -4.85963e-10)
(469.573 2.73333 4.8845e-11)
(469.562 3.2693 5.91984e-11)
(469.527 4.2092 -4.75035e-10)
(469.501 4.76906 -5.53228e-10)
(469.466 5.64771 -6.19724e-11)
(469.418 6.29672 2.93356e-10)
(469.388 7.03663 3.85085e-10)
(469.313 7.85466 3.05456e-10)
(469.291 8.36614 3.95967e-10)
(469.189 9.44363 2.76262e-10)
(469.174 9.6308 -1.14681e-10)
(469.043 11.0594 -3.44762e-10)
(469.036 10.8327 -2.91354e-10)
(468.877 12.6887 -3.18741e-10)
(468.873 11.9857 -1.11019e-10)
(468.696 14.3048 2.76271e-10)
(468.68 13.1206 1.80944e-10)
(468.505 15.8593 -1.4243e-10)
(468.445 14.2987 -2.11436e-10)
(468.32 17.228 9.42774e-12)
(468.133 15.6784 1.05997e-10)
(467.908 0.460017 -4.61663e-09)
(467.898 1.25085 1.49035e-09)
(467.894 1.815 -4.7525e-10)
(467.868 2.75818 1.13784e-10)
(467.859 3.2973 9.95078e-11)
(467.826 4.24855 -4.56218e-10)
(467.803 4.8098 -4.87584e-10)
(467.771 5.70205 -1.27736e-11)
(467.726 6.35079 3.22428e-10)
(467.701 7.1064 4.61942e-10)
(467.631 7.92295 3.62042e-10)
(467.614 8.45162 4.24429e-10)
(467.517 9.52733 3.53575e-10)
(467.508 9.73187 -6.31997e-11)
(467.383 11.1601 -3.11266e-10)
(467.384 10.9486 -2.79351e-10)
(467.231 12.8086 -3.26872e-10)
(467.236 12.115 -7.30091e-11)
(467.065 14.4471 2.99663e-10)
(467.06 13.261 1.81593e-10)
(466.891 16.0298 -9.331e-11)
(466.846 14.4434 -1.8768e-10)
(466.722 17.4499 9.79439e-12)
(466.558 15.8105 1.49795e-10)
(466.149 0.463538 -4.62949e-09)
(466.139 1.26008 1.50502e-09)
(466.136 1.82802 -4.71077e-10)
(466.112 2.77933 1.2177e-10)
(466.104 3.32058 1.06562e-10)
(466.073 4.2821 -4.51507e-10)
(466.053 4.84367 -4.82496e-10)
(466.023 5.74847 -4.94189e-12)
(465.983 6.3958 3.3104e-10)
(465.962 7.16615 4.01879e-10)
(465.896 7.97999 3.00814e-10)
(465.884 8.52508 4.39758e-10)
(465.792 9.59768 2.98406e-10)
(465.79 9.81907 -1.17335e-10)
(465.671 11.2455 -2.98814e-10)
(465.679 11.049 -2.67296e-10)
(465.533 12.9112 -3.13973e-10)
(465.547 12.2272 -5.98679e-11)
(465.382 14.5699 3.16279e-10)
(465.388 13.3822 1.94771e-10)
(465.224 16.1779 -7.98508e-11)
(465.193 14.5682 -1.76267e-10)
(465.073 17.645 3.13035e-11)
(464.931 15.921 1.69362e-10)
(464.338 0.466385 -4.66835e-09)
(464.328 1.26768 1.55878e-09)
(464.325 1.83846 -4.46165e-10)
(464.302 2.79681 6.36126e-11)
(464.296 3.3392 1.06686e-10)
(464.268 4.30992 -3.96033e-10)
(464.25 4.87075 -5.1184e-10)
(464.224 5.78706 -5.38383e-11)
(464.187 6.43184 3.39857e-10)
(464.17 7.21596 4.66745e-10)
(464.109 8.02581 3.51561e-10)
(464.102 8.58649 4.07164e-10)
(464.015 9.65458 3.2064e-10)
(464.019 9.89225 -4.4215e-11)
(463.906 11.3153 -3.14506e-10)
(463.922 11.1336 -2.94667e-10)
(463.782 12.9964 -2.86252e-10)
(463.805 12.322 -4.6524e-11)
(463.646 14.6735 3.18607e-10)
(463.664 13.4846 1.82743e-10)
(463.506 16.3043 -1.0995e-10)
(463.488 14.6723 -1.58155e-10)
(463.371 17.8116 3.90667e-11)
(463.253 16.0098 1.01133e-10)
(462.474 0.468563 -4.71647e-09)
(462.465 1.27366 1.4953e-09)
(462.463 1.84635 -4.82174e-10)
(462.441 2.81067 4.90549e-11)
(462.437 3.35323 4.48954e-11)
(462.41 4.33209 -5.07415e-10)
(462.395 4.89112 -5.20836e-10)
(462.372 5.81792 4.00649e-11)
(462.338 6.45899 3.91186e-10)
(462.325 7.25593 4.75982e-10)
(462.269 8.06049 3.81591e-10)
(462.267 8.63594 4.57459e-10)
(462.186 9.69803 3.28883e-10)
(462.196 9.95137 -7.90411e-11)
(462.089 11.3694 -3.2324e-10)
(462.113 11.2023 -2.82322e-10)
(461.979 13.0638 -3.16586e-10)
(462.012 12.3992 -1.1178e-10)
(461.859 14.7575 2.69078e-10)
(461.887 13.568 1.63994e-10)
(461.735 16.4091 -1.03762e-10)
(461.731 14.7565 -1.26847e-10)
(461.617 17.9498 9.87523e-11)
(461.521 16.0763 1.7782e-10)
(460.558 0.470073 -4.76524e-09)
(460.549 1.27805 1.51028e-09)
(460.547 1.85171 -4.50244e-10)
(460.527 2.82092 4.21096e-11)
(460.524 3.36268 6.55253e-11)
(460.5 4.34862 -4.58229e-10)
(460.488 4.90484 -5.15852e-10)
(460.467 5.84111 4.90287e-12)
(460.437 6.47734 3.08213e-10)
(460.428 7.28615 4.21084e-10)
(460.376 8.08415 3.6179e-10)
(460.379 8.67353 3.96279e-10)
(460.304 9.72813 2.93581e-10)
(460.32 9.99649 -8.68192e-11)
(460.219 11.4078 -3.03034e-10)
(460.25 11.2549 -2.36113e-10)
(460.123 13.1132 -3.10222e-10)
(460.165 12.4585 -7.85907e-11)
(460.018 14.8215 3.37876e-10)
(460.058 13.6321 1.77361e-10)
(459.912 16.4923 -1.34981e-10)
(459.921 14.821 -1.85116e-10)
(459.811 18.0605 6.18365e-11)
(459.736 16.1209 1.65661e-10)
(458.589 0.470913 -4.71619e-09)
(458.58 1.28082 1.54144e-09)
(458.579 1.85453 -4.73139e-10)
(458.56 2.82755 5.75365e-11)
(458.559 3.36755 5.17405e-11)
(458.536 4.35953 -4.38289e-10)
(458.527 4.91191 -5.39069e-10)