/*--------------------------------*- C++ -*----------------------------------*\
  =========                 |
  \\      /  F ield         | OpenFOAM: The Open Source CFD Toolbox
   \\    /   O peration     | Website:  https://openfoam.org
    \\  /    A nd           | Version:  10
     \\/     M anipulation  |
\*---------------------------------------------------------------------------*/
FoamFile
{
    format      ascii;
    class       volScalarField;
    location    "0.23";
    object      Ma;
}
// * * * * * * * * * * * * * * * * * * * * * * * * * * * * * * * * * * * * * //

dimensions      [0 0 0 0 0 0 0];

internalField   nonuniform List<scalar> 
4176
(
1.84513
1.84506
1.84485
1.84462
1.8442
1.84383
1.84317
1.84267
1.84179
1.84116
1.84005
1.83929
1.83798
1.83707
1.83562
1.83447
1.83302
1.83147
1.83016
1.82804
1.82709
1.82416
1.82399
1.82017
1.84502
1.84494
1.84474
1.84449
1.84407
1.84368
1.84302
1.84249
1.8416
1.84094
1.83983
1.83904
1.8377
1.83677
1.83528
1.83411
1.83261
1.83104
1.82969
1.82753
1.82657
1.82352
1.8233
1.81911
1.84466
1.84459
1.84439
1.84415
1.84374
1.84335
1.84272
1.84219
1.84134
1.84068
1.8396
1.83882
1.83752
1.83661
1.83514
1.83401
1.83252
1.831
1.82968
1.82758
1.82667
1.82368
1.82346
1.81914
1.84401
1.84394
1.84374
1.8435
1.84309
1.8427
1.84207
1.84155
1.84069
1.84004
1.83895
1.83818
1.83687
1.83597
1.83449
1.83337
1.83187
1.83031
1.82906
1.82689
1.82602
1.82307
1.82288
1.81876
1.84307
1.84299
1.8428
1.84256
1.84216
1.84177
1.84115
1.84063
1.83979
1.83915
1.83807
1.83731
1.83601
1.83513
1.83365
1.83256
1.83104
1.82952
1.82829
1.82611
1.82525
1.82234
1.82214
1.81816
1.84182
1.84174
1.84155
1.84131
1.84092
1.84053
1.83992
1.8394
1.83857
1.83793
1.83687
1.83611
1.83483
1.83395
1.83248
1.83141
1.82987
1.82842
1.82712
1.82501
1.82412
1.82124
1.82101
1.81702
1.84027
1.84019
1.84001
1.83977
1.83938
1.839
1.8384
1.83788
1.83707
1.83643
1.83538
1.83463
1.83337
1.8325
1.83104
1.82999
1.82845
1.82706
1.8257
1.82367
1.82276
1.81993
1.81967
1.8157
1.83842
1.83835
1.83816
1.83793
1.83754
1.83717
1.83657
1.83606
1.83526
1.83463
1.8336
1.83285
1.8316
1.83075
1.82931
1.82828
1.82674
1.8254
1.82401
1.82205
1.82111
1.81832
1.81805
1.81414
1.83627
1.8362
1.83602
1.83579
1.83541
1.83504
1.83445
1.83395
1.83316
1.83253
1.83152
1.83079
1.82955
1.82871
1.82729
1.82628
1.82475
1.82346
1.82205
1.82016
1.81919
1.81646
1.81616
1.81232
1.83383
1.83376
1.83358
1.83335
1.83298
1.83261
1.83203
1.83154
1.83076
1.83014
1.82914
1.82843
1.82721
1.82638
1.82498
1.82399
1.82247
1.82122
1.81981
1.81798
1.817
1.81432
1.81401
1.81024
1.83109
1.83102
1.83084
1.83062
1.83025
1.82989
1.82932
1.82884
1.82807
1.82746
1.82648
1.82578
1.82458
1.82377
1.82238
1.82142
1.81992
1.81871
1.81729
1.81553
1.81452
1.81192
1.8116
1.80789
1.82806
1.82799
1.82781
1.82759
1.82723
1.82687
1.82632
1.82584
1.82508
1.82449
1.82353
1.82284
1.82166
1.82087
1.8195
1.81857
1.81708
1.81591
1.81449
1.81279
1.81177
1.80926
1.80891
1.80528
1.82473
1.82466
1.82449
1.82427
1.82392
1.82357
1.82302
1.82255
1.82181
1.82123
1.82028
1.81961
1.81845
1.81768
1.81634
1.81543
1.81396
1.81283
1.81141
1.80978
1.80875
1.80631
1.80596
1.80241
1.82111
1.82104
1.82087
1.82066
1.82031
1.81997
1.81943
1.81898
1.81825
1.81769
1.81675
1.8161
1.81496
1.81421
1.81289
1.81201
1.81057
1.80948
1.80806
1.8065
1.80546
1.8031
1.80275
1.79927
1.81719
1.81712
1.81696
1.81675
1.81641
1.81608
1.81556
1.81511
1.8144
1.81385
1.81294
1.8123
1.81119
1.81046
1.80916
1.80831
1.80689
1.80584
1.80444
1.80294
1.8019
1.79961
1.79926
1.79587
1.81299
1.81292
1.81276
1.81256
1.81223
1.8119
1.81139
1.81096
1.81026
1.80973
1.80884
1.80822
1.80713
1.80642
1.80516
1.80433
1.80294
1.80193
1.80054
1.79911
1.79806
1.79586
1.79551
1.7922
1.80849
1.80843
1.80827
1.80808
1.80775
1.80744
1.80694
1.80652
1.80584
1.80532
1.80445
1.80385
1.80279
1.80211
1.80087
1.80008
1.79871
1.79774
1.79637
1.79501
1.79396
1.79184
1.79148
1.78827
1.80371
1.80365
1.80349
1.8033
1.80299
1.80268
1.8022
1.80179
1.80113
1.80063
1.79979
1.79921
1.79817
1.79752
1.79631
1.79555
1.79421
1.79328
1.79194
1.79063
1.78959
1.78756
1.7872
1.78407
1.79864
1.79858
1.79843
1.79824
1.79794
1.79765
1.79717
1.79678
1.79614
1.79566
1.79484
1.79429
1.79328
1.79265
1.79147
1.79074
1.78944
1.78855
1.78723
1.78599
1.78496
1.78301
1.78264
1.77962
1.79328
1.79322
1.79308
1.7929
1.7926
1.79232
1.79187
1.79149
1.79087
1.79041
1.78961
1.78908
1.7881
1.7875
1.78636
1.78567
1.7844
1.78355
1.78226
1.78109
1.78006
1.77819
1.77783
1.7749
1.78764
1.78758
1.78744
1.78727
1.78699
1.78672
1.78628
1.78592
1.78532
1.78488
1.78411
1.7836
1.78266
1.78209
1.78098
1.78032
1.77909
1.77828
1.77703
1.77591
1.7749
1.77312
1.77275
1.76993
1.78172
1.78166
1.78153
1.78137
1.78109
1.78083
1.78041
1.78007
1.77949
1.77907
1.77833
1.77785
1.77693
1.7764
1.77532
1.7747
1.77351
1.77274
1.77153
1.77047
1.76948
1.76778
1.76742
1.76469
1.77552
1.77546
1.77533
1.77518
1.77491
1.77467
1.77426
1.77394
1.77338
1.77299
1.77227
1.77182
1.77094
1.77043
1.7694
1.76881
1.76766
1.76694
1.76576
1.76477
1.7638
1.76218
1.76183
1.7592
1.76904
1.76898
1.76886
1.76871
1.76846
1.76823
1.76784
1.76754
1.767
1.76663
1.76594
1.76552
1.76467
1.7642
1.7632
1.76266
1.76155
1.76087
1.75974
1.7588
1.75785
1.75633
1.75598
1.75346
1.76228
1.76223
1.76211
1.76197
1.76173
1.76152
1.76114
1.76086
1.76035
1.76001
1.75934
1.75896
1.75814
1.7577
1.75674
1.75624
1.75517
1.75454
1.75345
1.75257
1.75165
1.75021
1.74988
1.74746
1.75526
1.7552
1.75509
1.75496
1.75473
1.75453
1.75418
1.75391
1.75343
1.75311
1.75248
1.75212
1.75134
1.75094
1.75002
1.74955
1.74853
1.74795
1.7469
1.74608
1.74519
1.74384
1.74352
1.74121
1.74796
1.74791
1.74781
1.74768
1.74747
1.74728
1.74694
1.7467
1.74624
1.74595
1.74535
1.74502
1.74428
1.74391
1.74303
1.74261
1.74162
1.74109
1.74009
1.73933
1.73848
1.73721
1.73691
1.7347
1.74041
1.74036
1.74026
1.74014
1.73994
1.73976
1.73945
1.73922
1.73879
1.73852
1.73795
1.73766
1.73695
1.73662
1.73578
1.7354
1.73446
1.73398
1.73302
1.73232
1.7315
1.73033
1.73004
1.72794
1.73259
1.73254
1.73245
1.73234
1.73215
1.73199
1.73169
1.73149
1.73107
1.73084
1.7303
1.73004
1.72936
1.72907
1.72828
1.72794
1.72705
1.72661
1.7257
1.72506
1.72429
1.72319
1.72292
1.72092
1.72451
1.72446
1.72438
1.72428
1.7241
1.72395
1.72367
1.72349
1.7231
1.72289
1.72239
1.72216
1.72152
1.72127
1.72051
1.72022
1.71937
1.71899
1.71813
1.71755
1.71681
1.71581
1.71556
1.71366
1.71618
1.71614
1.71605
1.71596
1.7158
1.71567
1.7154
1.71524
1.71488
1.7147
1.71422
1.71402
1.71342
1.71321
1.7125
1.71225
1.71145
1.71112
1.7103
1.70978
1.70909
1.70817
1.70793
1.70615
1.7076
1.70756
1.70748
1.7074
1.70724
1.70713
1.70689
1.70675
1.70641
1.70625
1.7058
1.70564
1.70507
1.7049
1.70423
1.70403
1.70327
1.70299
1.70222
1.70176
1.70111
1.70028
1.70006
1.6984
1.69877
1.69873
1.69866
1.69859
1.69845
1.69835
1.69812
1.698
1.69769
1.69755
1.69714
1.69701
1.69648
1.69634
1.69571
1.69555
1.69484
1.69462
1.6939
1.69349
1.69289
1.69213
1.69194
1.69039
1.68971
1.68967
1.6896
1.68954
1.68941
1.68932
1.68911
1.68901
1.68872
1.68862
1.68823
1.68813
1.68763
1.68754
1.68694
1.68683
1.68617
1.68599
1.68532
1.68498
1.68443
1.68375
1.68358
1.68214
1.6804
1.68036
1.68031
1.68025
1.68013
1.68005
1.67987
1.67979
1.67952
1.67944
1.67908
1.67901
1.67855
1.67849
1.67794
1.67787
1.67725
1.67713
1.6765
1.67622
1.67572
1.67511
1.67497
1.67365
1.67086
1.67083
1.67078
1.67072
1.67062
1.67056
1.67038
1.67032
1.67008
1.67002
1.6697
1.66966
1.66923
1.66921
1.66869
1.66867
1.66809
1.66802
1.66744
1.66722
1.66676
1.66623
1.66612
1.66491
1.6611
1.66106
1.66101
1.66097
1.66087
1.66082
1.66067
1.66063
1.66041
1.66038
1.66008
1.66007
1.65968
1.65969
1.65921
1.65923
1.65869
1.65867
1.65814
1.65798
1.65757
1.65711
1.65703
1.65594
1.6511
1.65107
1.65103
1.65099
1.6509
1.65087
1.65073
1.65071
1.65051
1.6505
1.65023
1.65025
1.64989
1.64994
1.6495
1.64956
1.64907
1.64909
1.6486
1.6485
1.64813
1.64775
1.64771
1.64672
1.64089
1.64085
1.64082
1.64079
1.64071
1.64069
1.64056
1.64056
1.64038
1.6404
1.64015
1.6402
1.63988
1.63996
1.63956
1.63966
1.63921
1.63929
1.63884
1.63879
1.63847
1.63815
1.63815
1.63727
1.63045
1.63042
1.63039
1.63036
1.6303
1.63029
1.63018
1.63019
1.63003
1.63007
1.62985
1.62993
1.62964
1.62976
1.62939
1.62954
1.62912
1.62925
1.62884
1.62886
1.62858
1.62833
1.62836
1.62759
1.6198
1.61977
1.61974
1.61973
1.61967
1.61967
1.61958
1.6196
1.61947
1.61953
1.61933
1.61944
1.61918
1.61933
1.619
1.61919
1.61881
1.61899
1.61862
1.6187
1.61846
1.61828
1.61835
1.61767
1.60894
1.60891
1.60889
1.60887
1.60883
1.60884
1.60876
1.60881
1.60869
1.60877
1.6086
1.60874
1.6085
1.60869
1.60839
1.60862
1.60828
1.60851
1.60818
1.60832
1.60812
1.60802
1.60811
1.60752
1.59786
1.59784
1.59782
1.59781
1.59778
1.5978
1.59774
1.5978
1.5977
1.5978
1.59766
1.59782
1.59761
1.59784
1.59757
1.59784
1.59753
1.59781
1.59752
1.59772
1.59755
1.59753
1.59765
1.59716
1.58659
1.58656
1.58655
1.58655
1.58652
1.58655
1.58651
1.58658
1.58651
1.58663
1.58651
1.5867
1.58652
1.58677
1.58654
1.58685
1.58657
1.58691
1.58664
1.58691
1.58676
1.58682
1.58697
1.58658
1.57511
1.57508
1.57507
1.57508
1.57506
1.57511
1.57508
1.57516
1.57511
1.57525
1.57516
1.57537
1.57522
1.57551
1.5753
1.57565
1.57541
1.57579
1.57555
1.57588
1.57576
1.5759
1.57607
1.57578
1.56343
1.56341
1.5634
1.56341
1.56341
1.56346
1.56344
1.56355
1.56351
1.56368
1.5636
1.56384
1.56372
1.56404
1.56386
1.56425
1.56404
1.56447
1.56426
1.56465
1.56456
1.56477
1.56496
1.56477
1.55156
1.55154
1.55153
1.55155
1.55156
1.55162
1.55162
1.55174
1.55172
1.5519
1.55185
1.55212
1.55202
1.55237
1.55222
1.55266
1.55247
1.55295
1.55277
1.55323
1.55315
1.55344
1.55363
1.55355
1.5395
1.53948
1.53948
1.5395
1.53952
1.53959
1.5396
1.53974
1.53974
1.53994
1.53991
1.5402
1.54013
1.54052
1.5404
1.54086
1.54071
1.54124
1.54108
1.5416
1.54154
1.54192
1.54211
1.54213
1.52725
1.52723
1.52724
1.52727
1.52729
1.52738
1.5274
1.52755
1.52757
1.52779
1.52779
1.5281
1.52806
1.52847
1.52838
1.52888
1.52875
1.52934
1.5292
1.52979
1.52974
1.5302
1.53039
1.53052
1.51483
1.51481
1.51482
1.51486
1.51489
1.51498
1.51502
1.51518
1.51522
1.51546
1.51548
1.51582
1.5158
1.51624
1.51617
1.51672
1.51661
1.51725
1.51713
1.51778
1.51774
1.5183
1.51847
1.51871
1.50223
1.50222
1.50223
1.50227
1.50231
1.50241
1.50247
1.50264
1.5027
1.50296
1.50299
1.50335
1.50336
1.50383
1.50379
1.50437
1.50429
1.50498
1.50487
1.50559
1.50555
1.5062
1.50638
1.5067
1.48947
1.48946
1.48947
1.48952
1.48957
1.48968
1.48974
1.48993
1.49
1.49028
1.49034
1.49072
1.49075
1.49125
1.49123
1.49186
1.49179
1.49253
1.49243
1.49323
1.49318
1.49392
1.4941
1.49451
1.47655
1.47654
1.47656
1.47661
1.47666
1.47678
1.47686
1.47706
1.47715
1.47744
1.47752
1.47792
1.47797
1.47851
1.4785
1.47917
1.47911
1.47991
1.47981
1.4807
1.48063
1.48145
1.48164
1.48214
1.46348
1.46346
1.46349
1.46354
1.4636
1.46373
1.46382
1.46403
1.46413
1.46444
1.46453
1.46497
1.46502
1.4656
1.4656
1.46632
1.46626
1.46713
1.46702
1.46797
1.46793
1.46881
1.469
1.46959
1.45026
1.45024
1.45027
1.45033
1.4504
1.45053
1.45063
1.45086
1.45097
1.4513
1.4514
1.45186
1.45192
1.45254
1.45253
1.45332
1.45324
1.45419
1.45407
1.45508
1.45505
1.45599
1.4562
1.45686
1.4369
1.43689
1.43692
1.43698
1.43705
1.43719
1.4373
1.43754
1.43766
1.43801
1.43812
1.43861
1.43867
1.43933
1.43932
1.44016
1.44008
1.44107
1.44097
1.44202
1.44201
1.44301
1.44323
1.44396
1.42341
1.4234
1.42343
1.42349
1.42358
1.42372
1.42384
1.42408
1.42421
1.42458
1.42469
1.42522
1.42527
1.42598
1.42596
1.42684
1.42678
1.4278
1.42772
1.42881
1.42882
1.42986
1.43009
1.43089
1.4098
1.40978
1.40982
1.40988
1.40998
1.41012
1.41025
1.4105
1.41063
1.41103
1.41113
1.41169
1.41174
1.41248
1.41247
1.41338
1.41333
1.41437
1.41433
1.41544
1.41547
1.41656
1.4168
1.41766
1.39607
1.39605
1.3961
1.39616
1.39626
1.3964
1.39654
1.3968
1.39693
1.39735
1.39745
1.39803
1.39809
1.39884
1.39885
1.39977
1.39975
1.40081
1.40078
1.40193
1.40198
1.4031
1.40335
1.40428
1.38223
1.38221
1.38226
1.38232
1.38243
1.38257
1.38272
1.38298
1.38312
1.38354
1.38366
1.38424
1.38432
1.38508
1.38511
1.38604
1.38603
1.38711
1.38711
1.38828
1.38834
1.3895
1.38976
1.39075
1.36829
1.36827
1.36832
1.36838
1.36849
1.36863
1.36879
1.36904
1.36921
1.36961
1.36975
1.37034
1.37043
1.37119
1.37125
1.37218
1.37219
1.37329
1.3733
1.37449
1.37457
1.37577
1.37603
1.37707
1.35424
1.35423
1.35427
1.35434
1.35444
1.35459
1.35476
1.355
1.35519
1.35558
1.35575
1.35632
1.35643
1.3572
1.35726
1.3582
1.35824
1.35934
1.35937
1.36058
1.36067
1.3619
1.36217
1.36326
1.34011
1.34009
1.34013
1.3402
1.34031
1.34045
1.34062
1.34086
1.34107
1.34144
1.34164
1.34219
1.34233
1.34309
1.34318
1.34412
1.34417
1.34528
1.34532
1.34655
1.34665
1.34791
1.34819
1.34932
1.32587
1.32586
1.3259
1.32596
1.32607
1.32622
1.32639
1.32663
1.32685
1.32721
1.32743
1.32797
1.32813
1.32888
1.32898
1.32993
1.32999
1.33111
1.33117
1.33241
1.33253
1.33381
1.33409
1.33526
1.31155
1.31153
1.31157
1.31164
1.31175
1.3119
1.31207
1.31231
1.31254
1.31289
1.31312
1.31365
1.31383
1.31458
1.3147
1.31564
1.31572
1.31685
1.31691
1.31817
1.31829
1.3196
1.31988
1.32109
1.29714
1.29712
1.29716
1.29722
1.29734
1.29748
1.29766
1.2979
1.29813
1.29848
1.29872
1.29925
1.29945
1.30019
1.30032
1.30127
1.30135
1.30249
1.30257
1.30384
1.30397
1.30529
1.30557
1.30682
1.28263
1.28261
1.28265
1.28272
1.28283
1.28298
1.28316
1.2834
1.28364
1.28398
1.28424
1.28476
1.28497
1.28571
1.28585
1.28681
1.28691
1.28805
1.28813
1.28941
1.28955
1.29089
1.29118
1.29245
1.26804
1.26802
1.26806
1.26813
1.26824
1.26839
1.26858
1.26881
1.26906
1.26941
1.26968
1.27019
1.27042
1.27116
1.27131
1.27227
1.27238
1.27353
1.27362
1.27491
1.27506
1.27641
1.27669
1.27799
1.25335
1.25333
1.25338
1.25344
1.25356
1.25372
1.25391
1.25415
1.25441
1.25475
1.25504
1.25555
1.2558
1.25653
1.2567
1.25767
1.25778
1.25894
1.25904
1.26033
1.26049
1.26185
1.26214
1.26346
1.23859
1.23857
1.23862
1.23868
1.23881
1.23897
1.23916
1.23941
1.23968
1.24003
1.24034
1.24083
1.24111
1.24183
1.24202
1.243
1.24311
1.24428
1.24439
1.24569
1.24585
1.24722
1.24751
1.24885
1.22375
1.22373
1.22378
1.22386
1.22398
1.22415
1.22435
1.22461
1.22489
1.22524
1.22557
1.22606
1.22637
1.22707
1.22729
1.22825
1.22839
1.22956
1.22968
1.23098
1.23115
1.23252
1.23281
1.23416
1.20887
1.20885
1.2089
1.20898
1.20911
1.20928
1.20949
1.20976
1.21004
1.2104
1.21074
1.21123
1.21157
1.21226
1.21252
1.21345
1.21361
1.21478
1.2149
1.2162
1.21638
1.21775
1.21804
1.2194
1.19396
1.19394
1.19399
1.19407
1.19421
1.19438
1.1946
1.19487
1.19516
1.19552
1.19587
1.19636
1.19672
1.19739
1.19768
1.19859
1.19878
1.19993
1.20007
1.20136
1.20154
1.20291
1.2032
1.20456
1.17906
1.17904
1.17909
1.17917
1.1793
1.17948
1.17969
1.17996
1.18025
1.18061
1.18097
1.18145
1.18182
1.18247
1.18279
1.18366
1.1839
1.18501
1.18517
1.18645
1.18663
1.188
1.18828
1.18965
1.16421
1.16419
1.16423
1.16431
1.16443
1.1646
1.1648
1.16506
1.16534
1.16569
1.16604
1.1665
1.16688
1.1675
1.16784
1.16868
1.16894
1.17002
1.17019
1.17147
1.17164
1.17301
1.17328
1.17464
1.14942
1.14939
1.14943
1.1495
1.1496
1.14976
1.14994
1.15018
1.15044
1.15077
1.1511
1.15154
1.1519
1.1525
1.15284
1.15364
1.15392
1.15495
1.15515
1.1564
1.15657
1.15793
1.15818
1.15955
1.13469
1.13466
1.13469
1.13474
1.13483
1.13496
1.13512
1.13533
1.13556
1.13586
1.13616
1.13656
1.13689
1.13745
1.13778
1.13853
1.13881
1.1398
1.14001
1.14123
1.14139
1.14275
1.14299
1.14435
1.11999
1.11996
1.11997
1.12001
1.12008
1.12019
1.12032
1.1205
1.12069
1.12095
1.12121
1.12157
1.12187
1.12238
1.12267
1.12337
1.12363
1.12457
1.12476
1.12595
1.12611
1.12746
1.12769
1.12906
1.10525
1.10521
1.10522
1.10524
1.1053
1.10538
1.10549
1.10564
1.1058
1.10602
1.10625
1.10656
1.10682
1.10728
1.10752
1.10818
1.10839
1.10929
1.10943
1.11058
1.1107
1.11205
1.11225
1.11364
1.09036
1.09031
1.09032
1.09032
1.09038
1.09044
1.09055
1.09066
1.09083
1.09101
1.09121
1.09149
1.09172
1.09214
1.09232
1.09298
1.09307
1.094
1.09402
1.09518
1.0952
1.09653
1.09669
1.09805
1.07518
1.07512
1.07514
1.07514
1.07521
1.07526
1.07538
1.07549
1.07565
1.07583
1.07603
1.07629
1.07651
1.0769
1.07707
1.07772
1.07773
1.07868
1.0786
1.07976
1.07969
1.08098
1.08107
1.08233
1.05957
1.05952
1.05953
1.05956
1.05962
1.05971
1.05983
1.05998
1.06015
1.06036
1.06058
1.06086
1.06111
1.06149
1.0617
1.06231
1.06236
1.06327
1.06318
1.06433
1.0642
1.06549
1.0655
1.0667
1.0434
1.04336
1.04338
1.04343
1.04352
1.04364
1.04379
1.04399
1.04421
1.04447
1.04474
1.04507
1.04538
1.0458
1.0461
1.04669
1.04685
1.04772
1.04769
1.04886
1.0487
1.05004
1.04999
1.0512
1.0266
1.02656
1.0266
1.02666
1.02678
1.02694
1.02715
1.02739
1.02768
1.02801
1.02837
1.02878
1.02918
1.02968
1.03009
1.03075
1.03103
1.03195
1.032
1.03325
1.03311
1.03454
1.03446
1.03577
1.00911
1.00907
1.00913
1.00921
1.00937
1.00956
1.00983
1.01012
1.0105
1.01088
1.01135
1.01184
1.01237
1.01298
1.01352
1.0143
1.01472
1.01579
1.01595
1.01737
1.01729
1.01889
1.01881
1.02029
0.99097
0.990924
0.990998
0.991097
0.99128
0.991513
0.991817
0.992169
0.992601
0.993063
0.993616
0.994198
0.994843
0.995564
0.996256
0.997154
0.99777
0.999002
0.999344
1.00097
1.00104
1.00289
1.00287
1.00463
0.972229
0.972189
0.97226
0.972383
0.972575
0.972841
0.973166
0.973568
0.974031
0.974566
0.975162
0.975838
0.976554
0.977382
0.978198
0.979194
0.980043
0.981328
0.982009
0.983731
0.984105
0.986241
0.986388
0.988581
0.952997
0.952961
0.95303
0.953161
0.953361
0.953641
0.953981
0.954405
0.954891
0.955457
0.956089
0.956808
0.957577
0.958463
0.959359
0.96043
0.961424
0.962742
0.963737
0.965445
0.96624
0.968524
0.968974
0.971732
0.933395
0.93336
0.933427
0.933559
0.933758
0.93404
0.934383
0.934809
0.935302
0.935874
0.936518
0.937246
0.938034
0.938935
0.939863
0.940958
0.942008
0.943348
0.944474
0.94615
0.94725
0.94949
0.950269
0.953472
0.913552
0.913515
0.913577
0.913703
0.913897
0.914171
0.914507
0.914923
0.915408
0.915966
0.916602
0.917313
0.918094
0.918975
0.919897
0.920968
0.922016
0.923329
0.924455
0.926102
0.927213
0.929406
0.930232
0.933431
0.893589
0.893547
0.893604
0.893721
0.893905
0.894164
0.894486
0.894881
0.895349
0.89588
0.896495
0.897171
0.897928
0.898766
0.899658
0.900676
0.901691
0.90294
0.904012
0.905601
0.9066
0.908746
0.909443
0.912379
0.873609
0.873563
0.873613
0.873719
0.873891
0.874131
0.874435
0.874804
0.875248
0.875743
0.876329
0.87696
0.877683
0.878464
0.879316
0.880265
0.881232
0.882394
0.883408
0.884898
0.885818
0.887839
0.888477
0.891195
0.853706
0.853653
0.853698
0.853789
0.853948
0.854166
0.854451
0.854788
0.855208
0.85566
0.856216
0.856793
0.857479
0.858195
0.859001
0.859874
0.860788
0.861855
0.86281
0.864191
0.865039
0.866913
0.867511
0.870021
0.833951
0.833891
0.833935
0.834006
0.834158
0.834347
0.834617
0.834914
0.835315
0.835714
0.836247
0.836756
0.837415
0.83805
0.838822
0.839605
0.840468
0.841435
0.842329
0.843604
0.844386
0.846103
0.846668
0.84897
0.814406
0.814341
0.814384
0.814434
0.81458
0.814736
0.814996
0.815247
0.815635
0.815971
0.816492
0.81692
0.817566
0.818102
0.818857
0.819529
0.820361
0.82122
0.822055
0.823216
0.823947
0.825502
0.826038
0.828133
0.795123
0.795054
0.795089
0.795128
0.795256
0.795395
0.795628
0.795852
0.796207
0.796503
0.796988
0.797359
0.797969
0.798428
0.799149
0.799723
0.800518
0.801268
0.802058
0.803095
0.803782
0.805174
0.805685
0.807574
0.77614
0.776068
0.776091
0.776128
0.776229
0.776362
0.776556
0.776769
0.777072
0.777353
0.777775
0.778122
0.778662
0.779083
0.779732
0.780247
0.780979
0.781633
0.782386
0.783285
0.783936
0.785169
0.785658
0.787346
0.757488
0.757415
0.757428
0.757459
0.757539
0.757659
0.757823
0.758017
0.758279
0.758536
0.758904
0.759223
0.759697
0.760082
0.760659
0.761122
0.761786
0.762356
0.763067
0.763818
0.764451
0.765529
0.765996
0.767487
0.739191
0.739119
0.739123
0.739146
0.73921
0.739314
0.739453
0.739624
0.739852
0.740079
0.740403
0.740685
0.741106
0.741446
0.741962
0.742367
0.742969
0.743458
0.74412
0.744743
0.745359
0.746279
0.746727
0.748026
0.721273
0.721199
0.721195
0.721211
0.721259
0.721349
0.721464
0.721612
0.721809
0.722005
0.72229
0.722533
0.722906
0.723199
0.72366
0.724006
0.72455
0.724961
0.725569
0.726082
0.726684
0.727439
0.727874
0.728985
0.703747
0.703672
0.703663
0.70367
0.703705
0.703777
0.703874
0.703997
0.704167
0.704331
0.70458
0.704785
0.705113
0.705359
0.705769
0.706057
0.706546
0.706884
0.707439
0.707853
0.708426
0.709029
0.709454
0.710384
0.686624
0.68655
0.686533
0.686536
0.686555
0.686616
0.686689
0.686793
0.686934
0.687069
0.687284
0.687452
0.687739
0.687939
0.688302
0.688533
0.688971
0.689239
0.689742
0.690067
0.690601
0.691063
0.691479
0.692237
0.669916
0.669841
0.669821
0.669813
0.669825
0.669867
0.669926
0.670005
0.670124
0.670228
0.670413
0.670543
0.670793
0.670948
0.671266
0.671444
0.671832
0.672034
0.672488
0.672729
0.67322
0.673553
0.673961
0.674559
0.653627
0.653553
0.653527
0.653514
0.653513
0.653544
0.653583
0.653645
0.653737
0.653817
0.653969
0.654067
0.654279
0.654393
0.654669
0.654795
0.655137
0.655276
0.65568
0.655843
0.656289
0.656513
0.656909
0.657353
0.637762
0.637688
0.637659
0.637638
0.63763
0.637644
0.637671
0.63771
0.637783
0.637835
0.637961
0.638024
0.638203
0.638276
0.638513
0.63859
0.638889
0.638967
0.639327
0.639415
0.639817
0.639944
0.640328
0.640621
0.622323
0.62225
0.622217
0.622188
0.622175
0.622173
0.622189
0.622206
0.62226
0.622288
0.622386
0.62242
0.622566
0.622601
0.622801
0.622832
0.62309
0.623112
0.623428
0.623446
0.623809
0.623846
0.62421
0.624364
0.60731
0.607238
0.607203
0.607168
0.607146
0.607133
0.607135
0.607135
0.60717
0.607174
0.607248
0.607252
0.607368
0.607368
0.607532
0.60752
0.607738
0.607708
0.607985
0.607937
0.608262
0.608218
0.608554
0.608581
0.592723
0.592653
0.592614
0.592575
0.592544
0.592521
0.59251
0.592494
0.592512
0.592493
0.592544
0.592521
0.592608
0.592575
0.592706
0.592652
0.592835
0.592754
0.592992
0.592883
0.593172
0.593049
0.593358
0.59327
0.57856
0.578489
0.578453
0.578401
0.578374
0.578329
0.578318
0.578277
0.578285
0.578242
0.578274
0.578224
0.578285
0.578219
0.578319
0.578228
0.578375
0.578247
0.57845
0.578282
0.578536
0.578338
0.578619
0.578429
0.564816
0.564749
0.564705
0.56466
0.564612
0.564575
0.564536
0.564495
0.564477
0.564422
0.56443
0.564358
0.564393
0.564299
0.56437
0.564242
0.564357
0.564186
0.564354
0.564132
0.564354
0.564086
0.564342
0.564055
0.55149
0.551421
0.551385
0.551319
0.551288
0.551216
0.551195
0.551117
0.551103
0.551018
0.551014
0.550916
0.550931
0.550808
0.550852
0.550691
0.550777
0.550564
0.550703
0.550429
0.550623
0.550288
0.550525
0.550147
0.538573
0.53851
0.538463
0.53841
0.538351
0.538299
0.53824
0.538176
0.538128
0.538042
0.538011
0.537899
0.537889
0.537742
0.537762
0.53757
0.537629
0.537379
0.537489
0.537168
0.537336
0.53694
0.53716
0.536699
0.526063
0.525997
0.525959
0.525887
0.525846
0.52576
0.525721
0.52562
0.525582
0.525465
0.525429
0.525291
0.525266
0.525094
0.525091
0.524871
0.524906
0.52462
0.524706
0.524341
0.524486
0.524034
0.524239
0.523702
0.513949
0.513889
0.513843
0.513779
0.51372
0.513645
0.513579
0.513488
0.513421
0.513305
0.513244
0.513096
0.513049
0.512857
0.512834
0.512588
0.512599
0.512283
0.512344
0.51194
0.512065
0.511561
0.511752
0.511147
0.502229
0.502168
0.502126
0.502053
0.501999
0.501908
0.501847
0.501734
0.501669
0.501531
0.501465
0.501295
0.501235
0.501023
0.50098
0.50071
0.500701
0.500355
0.500396
0.499956
0.500062
0.499511
0.49969
0.499022
0.49089
0.490833
0.490787
0.490717
0.490656
0.490564
0.490492
0.490377
0.490296
0.490153
0.490069
0.489889
0.489812
0.489582
0.489523
0.489231
0.489203
0.488831
0.488852
0.488378
0.488467
0.487873
0.488042
0.487316
0.479928
0.479872
0.479828
0.479754
0.479691
0.479594
0.479517
0.479394
0.479306
0.479151
0.479058
0.478863
0.478773
0.478527
0.478451
0.47814
0.478094
0.477698
0.477701
0.477198
0.47727
0.476638
0.476798
0.476016
0.469333
0.46928
0.469233
0.469162
0.469093
0.468996
0.468911
0.468782
0.468686
0.468521
0.468419
0.468212
0.468109
0.467849
0.467758
0.467429
0.467366
0.466948
0.466935
0.466403
0.466461
0.465794
0.465942
0.465116
0.459097
0.459046
0.459001
0.458925
0.458859
0.458753
0.458667
0.458531
0.458428
0.458256
0.458142
0.457925
0.457811
0.457537
0.457432
0.457087
0.457009
0.456571
0.456541
0.455987
0.456029
0.45533
0.455469
0.4546
0.449212
0.449164
0.449116
0.449044
0.448969
0.448867
0.448772
0.448634
0.448523
0.448343
0.448222
0.447994
0.447869
0.447583
0.447466
0.447106
0.447014
0.446558
0.446514
0.445936
0.445966
0.445238
0.445365
0.44446
0.439669
0.439622
0.439576
0.4395
0.439428
0.439318
0.439224
0.439077
0.438963
0.438775
0.438647
0.43841
0.438276
0.437978
0.43785
0.437476
0.437371
0.4369
0.43684
0.436244
0.436259
0.435505
0.435624
0.434682
0.430459
0.430415
0.430368
0.430293
0.430218
0.430108
0.430007
0.429859
0.429737
0.429545
0.429409
0.429164
0.429021
0.428714
0.428574
0.428189
0.428071
0.427586
0.427514
0.426899
0.426901
0.426124
0.426232
0.425259
0.421574
0.421532
0.421485
0.421411
0.421332
0.421222
0.421118
0.420965
0.420841
0.420641
0.4205
0.420247
0.420096
0.41978
0.419631
0.419235
0.419107
0.418609
0.418523
0.417895
0.417883
0.417087
0.417185
0.416181
0.413005
0.412964
0.412919
0.412842
0.412766
0.41265
0.412547
0.412389
0.412261
0.412057
0.41191
0.41165
0.411493
0.411168
0.411012
0.410605
0.410468
0.409958
0.409863
0.40922
0.409197
0.408385
0.408472
0.407445
0.404743
0.404705
0.404658
0.404584
0.404504
0.40439
0.404281
0.404123
0.403989
0.403782
0.40363
0.403365
0.403202
0.402869
0.402707
0.402291
0.402147
0.401625
0.401522
0.400866
0.400836
0.400008
0.400089
0.399042
0.39678
0.396744
0.396697
0.396623
0.396543
0.396427
0.396317
0.396155
0.396021
0.395807
0.395653
0.395381
0.395214
0.394874
0.394707
0.394282
0.394133
0.393599
0.393494
0.392823
0.39279
0.391947
0.392023
0.390964
0.389108
0.389072
0.389028
0.38895
0.388875
0.388752
0.388646
0.388478
0.388343
0.388126
0.387967
0.387692
0.38752
0.387175
0.387002
0.38657
0.386416
0.385874
0.385763
0.385082
0.385045
0.38419
0.384263
0.383193
0.381717
0.381684
0.381637
0.381566
0.381481
0.381367
0.38125
0.381089
0.380945
0.380729
0.380566
0.380287
0.380111
0.379761
0.379584
0.379146
0.378988
0.378438
0.378323
0.377633
0.377592
0.376727
0.376795
0.375716
0.3746
0.374567
0.374525
0.374446
0.374372
0.374245
0.37414
0.373965
0.373829
0.373603
0.373442
0.373157
0.372979
0.372624
0.372444
0.372
0.371837
0.371283
0.371162
0.370466
0.370419
0.369547
0.369611
0.368523
0.367748
0.367718
0.367673
0.367601
0.367517
0.367402
0.367282
0.367118
0.36697
0.36675
0.366581
0.366297
0.366115
0.365757
0.365572
0.365125
0.364957
0.364398
0.364272
0.363572
0.363519
0.362641
0.362699
0.361605
0.361155
0.361125
0.361083
0.361006
0.36093
0.360804
0.360696
0.360519
0.36038
0.36015
0.359984
0.359695
0.359511
0.35915
0.358962
0.358511
0.358339
0.357777
0.357645
0.356941
0.356882
0.356001
0.356053
0.354952
0.354811
0.354784
0.354739
0.354668
0.354584
0.354467
0.354348
0.35418
0.354032
0.353806
0.353635
0.353345
0.353159
0.352795
0.352605
0.352151
0.351975
0.35141
0.351273
0.350567
0.350502
0.349616
0.349663
0.348559
0.34871
0.348682
0.348642
0.348565
0.34849
0.348362
0.348253
0.348075
0.347933
0.347702
0.347532
0.347239
0.347052
0.346685
0.346492
0.346036
0.345857
0.345289
0.345149
0.344439
0.34437
0.343482
0.343525
0.342415
0.342844
0.342819
0.342775
0.342705
0.342621
0.342504
0.342385
0.342214
0.342066
0.341836
0.341665
0.34137
0.341181
0.340812
0.340619
0.34016
0.339979
0.339408
0.339265
0.338553
0.338481
0.337588
0.337627
0.336516
0.337207
0.337182
0.337142
0.337066
0.33699
0.336864
0.336753
0.336574
0.336432
0.336197
0.336028
0.335729
0.335542
0.335169
0.334976
0.334514
0.334332
0.333759
0.333614
0.3329
0.332824
0.331931
0.331965
0.330854
0.331791
0.331767
0.331726
0.331654
0.331574
0.331452
0.331337
0.331161
0.331016
0.330782
0.330612
0.330312
0.330125
0.329749
0.329558
0.329091
0.328911
0.328334
0.328189
0.327473
0.327396
0.326501
0.326533
0.325422
0.32659
0.326567
0.326526
0.326454
0.326375
0.326252
0.326139
0.325961
0.325818
0.325581
0.325413
0.32511
0.324925
0.324546
0.324357
0.323886
0.323709
0.323126
0.322985
0.322264
0.322189
0.321292
0.321322
0.320213
0.321597
0.321574
0.321535
0.321461
0.321386
0.321259
0.32115
0.320968
0.320829
0.320588
0.320424
0.320116
0.319936
0.319551
0.319367
0.31889
0.318718
0.31813
0.317994
0.317265
0.317198
0.316294
0.316327
0.31522
0.316806
0.316785
0.316745
0.316673
0.316595
0.316472
0.31636
0.316181
0.31604
0.3158
0.315636
0.315326
0.315149
0.314759
0.314581
0.314098
0.313933
0.313336
0.313209
0.312473
0.312413
0.311506
0.311538
0.310437
0.312212
0.31219
0.312153
0.312077
0.312006
0.311875
0.311772
0.311584
0.311452
0.311204
0.311048
0.310732
0.310561
0.310165
0.309993
0.309503
0.309346
0.308742
0.308624
0.307879
0.307827
0.306917
0.306951
0.305854
0.307807
0.307787
0.307747
0.307677
0.307599
0.307477
0.307366
0.307186
0.307049
0.306803
0.306647
0.306329
0.306162
0.305762
0.305597
0.3051
0.304951
0.304339
0.304229
0.303479
0.303431
0.302522
0.302554
0.301465
0.303588
0.303567
0.303532
0.303454
0.303387
0.303253
0.303155
0.302963
0.302837
0.302583
0.302434
0.302111
0.301949
0.301545
0.301385
0.300883
0.30074
0.300124
0.300022
0.299265
0.299223
0.298312
0.298345
0.297258
0.299548
0.299528
0.29949
0.299419
0.299344
0.299219
0.299113
0.298929
0.298798
0.298547
0.298399
0.298074
0.297916
0.297508
0.297353
0.296846
0.296712
0.296087
0.295993
0.295234
0.295193
0.294285
0.294315
0.293234
0.295682
0.295661
0.295627
0.29555
0.295483
0.29535
0.295254
0.29506
0.294939
0.29468
0.294541
0.294208
0.29406
0.293643
0.293499
0.292982
0.29286
0.292226
0.292142
0.291376
0.291341
0.290433
0.290463
0.289388
0.291985
0.291965
0.29193
0.291856
0.291787
0.291656
0.291559
0.291365
0.291247
0.290984
0.290852
0.290512
0.290374
0.289947
0.289816
0.289287
0.289178
0.288536
0.288457
0.287693
0.287657
0.286754
0.286781
0.285714
0.288453
0.288433
0.288399
0.288322
0.288258
0.288122
0.288032
0.287832
0.287722
0.287451
0.287329
0.286979
0.286854
0.286415
0.286298
0.285759
0.285658
0.285013
0.284939
0.284173
0.28414
0.283239
0.283265
0.282206
0.285081
0.28506
0.285028
0.28495
0.284888
0.284749
0.284664
0.284459
0.284357
0.284078
0.283966
0.283607
0.283493
0.283046
0.282937
0.282394
0.282299
0.281651
0.281579
0.280817
0.280783
0.279887