/*--------------------------------*- C++ -*----------------------------------*\
  =========                 |
  \\      /  F ield         | OpenFOAM: The Open Source CFD Toolbox
   \\    /   O peration     | Website:  https://openfoam.org
    \\  /    A nd           | Version:  10
     \\/     M anipulation  |
\*---------------------------------------------------------------------------*/
FoamFile
{
    format      ascii;
    class       volScalarField;
    location    "0.23";
    object      p;
}
// * * * * * * * * * * * * * * * * * * * * * * * * * * * * * * * * * * * * * //

dimensions      [1 -1 -2 0 0 0 0];

internalField   nonuniform List<scalar> 
4176
(
1600.62
1600.82
1601.33
1601.95
1603.02
1604.04
1605.67
1607.06
1609.25
1611.04
1613.74
1615.96
1619.08
1621.85
1625.22
1628.72
1632.01
1636.65
1639.6
1645.6
1647.94
1655.57
1656.75
1665.49
1601.12
1601.3
1601.77
1602.38
1603.34
1604.34
1605.8
1607.18
1609.15
1610.89
1613.36
1615.49
1618.4
1621
1624.19
1627.43
1630.58
1634.85
1637.68
1643.23
1645.34
1652.79
1654.03
1663.8
1602.36
1602.56
1603.03
1603.65
1604.63
1605.65
1607.15
1608.54
1610.56
1612.33
1614.86
1617.02
1620
1622.63
1625.93
1629.2
1632.46
1636.84
1639.65
1645.36
1647.45
1654.79
1655.93
1665.39
1604.31
1604.5
1604.96
1605.57
1606.53
1607.53
1609
1610.36
1612.36
1614.07
1616.58
1618.66
1621.64
1624.16
1627.46
1630.63
1633.89
1638.29
1640.81
1646.7
1648.64
1655.87
1656.94
1665.79
1607.03
1607.22
1607.68
1608.29
1609.24
1610.24
1611.7
1613.06
1615.04
1616.77
1619.25
1621.35
1624.3
1626.82
1630.13
1633.24
1636.62
1640.84
1643.54
1649.33
1651.34
1658.53
1659.68
1668.53
1610.48
1610.67
1611.12
1611.73
1612.67
1613.66
1615.09
1616.45
1618.39
1620.11
1622.56
1624.64
1627.55
1630.06
1633.33
1636.38
1639.8
1643.81
1646.74
1652.28
1654.36
1661.48
1662.7
1671.63
1614.69
1614.88
1615.33
1615.93
1616.86
1617.85
1619.26
1620.62
1622.54
1624.24
1626.66
1628.73
1631.61
1634.09
1637.35
1640.36
1643.79
1647.68
1650.7
1656.08
1658.25
1665.26
1666.51
1675.34
1619.65
1619.84
1620.28
1620.88
1621.8
1622.78
1624.18
1625.52
1627.41
1629.1
1631.49
1633.54
1636.39
1638.83
1642.07
1645.02
1648.46
1652.22
1655.32
1660.53
1662.78
1669.67
1670.97
1679.69
1625.37
1625.56
1626
1626.59
1627.5
1628.47
1629.85
1631.18
1633.05
1634.72
1637.08
1639.1
1641.93
1644.33
1647.55
1650.44
1653.88
1657.52
1660.69
1665.72
1668.05
1674.81
1676.14
1684.74
1631.86
1632.04
1632.47
1633.06
1633.96
1634.92
1636.28
1637.59
1639.45
1641.09
1643.43
1645.42
1648.21
1650.58
1653.77
1656.6
1660.03
1663.56
1666.78
1671.64
1674.05
1680.62
1682.01
1690.48
1639.11
1639.29
1639.72
1640.3
1641.18
1642.13
1643.48
1644.77
1646.6
1648.23
1650.53
1652.49
1655.25
1657.57
1660.74
1663.5
1666.92
1670.34
1673.6
1678.3
1680.76
1687.18
1688.6
1696.92
1647.13
1647.32
1647.74
1648.31
1649.18
1650.12
1651.45
1652.72
1654.53
1656.13
1658.4
1660.33
1663.06
1665.33
1668.46
1671.16
1674.55
1677.88
1681.17
1685.7
1688.21
1694.46
1695.9
1704.08
1655.94
1656.12
1656.54
1657.11
1657.96
1658.88
1660.2
1661.45
1663.23
1664.8
1667.04
1668.93
1671.63
1673.85
1676.94
1679.58
1682.94
1686.17
1689.48
1693.85
1696.4
1702.47
1703.93
1711.95
1665.54
1665.73
1666.13
1666.69
1667.54
1668.44
1669.73
1670.96
1672.71
1674.26
1676.46
1678.32
1680.97
1683.15
1686.2
1688.76
1692.1
1695.23
1698.54
1702.74
1705.34
1711.23
1712.69
1720.55
1675.95
1676.13
1676.53
1677.08
1677.91
1678.8
1680.06
1681.27
1682.99
1684.5
1686.67
1688.48
1691.1
1693.22
1696.23
1698.73
1702.02
1705.05
1708.36
1712.4
1715.03
1720.74
1722.2
1729.89
1687.16
1687.34
1687.74
1688.28
1689.09
1689.96
1691.2
1692.38
1694.07
1695.55
1697.68
1699.45
1702.01
1704.08
1707.04
1709.47
1712.72
1715.65
1718.95
1722.83
1725.49
1730.99
1732.49
1739.98
1699.21
1699.38
1699.77
1700.3
1701.09
1701.94
1703.16
1704.31
1705.96
1707.4
1709.49
1711.21
1713.73
1715.74
1718.65
1721
1724.21
1727.04
1730.32
1734.03
1736.72
1742.02
1743.54
1750.83
1712.08
1712.26
1712.63
1713.15
1713.93
1714.76
1715.95
1717.07
1718.68
1720.08
1722.12
1723.79
1726.26
1728.21
1731.07
1733.34
1736.5
1739.22
1742.47
1746.01
1748.72
1753.82
1755.36
1762.44
1725.81
1725.98
1726.35
1726.85
1727.61
1728.42
1729.58
1730.67
1732.24
1733.6
1735.59
1737.21
1739.62
1741.5
1744.3
1746.49
1749.59
1752.21
1755.42
1758.8
1761.52
1766.41
1767.97
1774.84
1740.39
1740.56
1740.92
1741.41
1742.15
1742.93
1744.06
1745.12
1746.65
1747.96
1749.9
1751.46
1753.81
1755.62
1758.35
1760.46
1763.5
1766.01
1769.17
1772.39
1775.12
1779.8
1781.38
1788.03
1755.86
1756.02
1756.37
1756.85
1757.56
1758.32
1759.41
1760.43
1761.92
1763.18
1765.07
1766.57
1768.85
1770.59
1773.25
1775.27
1778.24
1780.64
1783.75
1786.81
1789.54
1794
1795.6
1802.01
1772.21
1772.37
1772.71
1773.17
1773.86
1774.59
1775.65
1776.63
1778.07
1779.28
1781.11
1782.54
1784.76
1786.42
1789.01
1790.93
1793.83
1796.12
1799.16
1802.06
1804.78
1809.01
1810.64
1816.81
1789.47
1789.63
1789.95
1790.4
1791.06
1791.76
1792.78
1793.72
1795.1
1796.26
1798.03
1799.4
1801.55
1803.13
1805.64
1807.47
1810.29
1812.45
1815.43
1818.16
1820.87
1824.87
1826.5
1832.43
1807.64
1807.8
1808.11
1808.54
1809.18
1809.84
1810.82
1811.71
1813.05
1814.15
1815.85
1817.15
1819.23
1820.72
1823.16
1824.88
1827.62
1829.66
1832.56
1835.14
1837.81
1841.58
1843.21
1848.89
1826.75
1826.9
1827.2
1827.61
1828.22
1828.85
1829.79
1830.63
1831.91
1832.95
1834.59
1835.81
1837.82
1839.22
1841.58
1843.19
1845.85
1847.76
1850.58
1852.99
1855.64
1859.17
1860.79
1866.19
1846.8
1846.95
1847.23
1847.62
1848.2
1848.81
1849.7
1850.49
1851.72
1852.69
1854.26
1855.4
1857.33
1858.64
1860.92
1862.42
1864.99
1866.77
1869.5
1871.75
1874.35
1877.64
1879.25
1884.38
1867.81
1867.96
1868.23
1868.6
1869.15
1869.71
1870.56
1871.31
1872.47
1873.38
1874.88
1875.94
1877.79
1879
1881.18
1882.58
1885.05
1886.7
1889.34
1891.42
1893.96
1897.02
1898.61
1903.48
1889.79
1889.94
1890.19
1890.54
1891.07
1891.6
1892.4
1893.09
1894.2
1895.04
1896.47
1897.44
1899.2
1900.31
1902.4
1903.68
1906.06
1907.57
1910.12
1912.03
1914.5
1917.31
1918.9
1923.48
1912.76
1912.91
1913.15
1913.48
1913.97
1914.47
1915.22
1915.87
1916.91
1917.68
1919.03
1919.92
1921.59
1922.6
1924.6
1925.75
1928.03
1929.4
1931.85
1933.59
1935.98
1938.54
1940.13
1944.4
1936.74
1936.88
1937.11
1937.42
1937.88
1938.34
1939.05
1939.64
1940.62
1941.32
1942.6
1943.4
1944.98
1945.88
1947.78
1948.81
1950.98
1952.2
1954.56
1956.13
1958.43
1960.73
1962.3
1966.28
1961.75
1961.88
1962.09
1962.38
1962.81
1963.23
1963.89
1964.43
1965.35
1965.98
1967.18
1967.89
1969.39
1970.18
1971.97
1972.87
1974.94
1976.01
1978.25
1979.65
1981.87
1983.92
1985.46
1989.13
1987.79
1987.92
1988.11
1988.38
1988.78
1989.16
1989.77
1990.25
1991.11
1991.67
1992.79
1993.41
1994.82
1995.5
1997.2
1997.96
1999.92
2000.83
2002.97
2004.18
2006.3
2008.11
2009.63
2012.97
2014.88
2015.01
2015.19
2015.44
2015.8
2016.14
2016.71
2017.13
2017.93
2018.41
2019.45
2019.99
2021.3
2021.88
2023.47
2024.1
2025.95
2026.7
2028.72
2029.74
2031.76
2033.34
2034.82
2037.83
2043.05
2043.17
2043.34
2043.56
2043.9
2044.2
2044.72
2045.08
2045.81
2046.22
2047.19
2047.63
2048.85
2049.31
2050.81
2051.31
2053.04
2053.64
2055.54
2056.37
2058.27
2059.61
2061.06
2063.73
2072.31
2072.42
2072.58
2072.78
2073.08
2073.35
2073.81
2074.13
2074.79
2075.12
2076.01
2076.36
2077.49
2077.84
2079.23
2079.59
2081.22
2081.66
2083.45
2084.08
2085.86
2086.96
2088.37
2090.68
2102.67
2102.79
2102.93
2103.11
2103.38
2103.6
2104.02
2104.28
2104.87
2105.14
2105.94
2106.19
2107.23
2107.47
2108.76
2108.98
2110.5
2110.77
2112.45
2112.89
2114.56
2115.42
2116.75
2118.72
2134.16
2134.27
2134.4
2134.56
2134.8
2134.99
2135.36
2135.56
2136.09
2136.28
2137
2137.16
2138.11
2138.22
2139.41
2139.49
2140.9
2141.01
2142.58
2142.82
2144.39
2145.01
2146.24
2147.85
2166.8
2166.91
2167.02
2167.16
2167.37
2167.52
2167.84
2167.99
2168.46
2168.57
2169.22
2169.28
2170.13
2170.13
2171.21
2171.15
2172.45
2172.38
2173.84
2173.88
2175.34
2175.73
2176.87
2178.12
2200.61
2200.72
2200.81
2200.93
2201.11
2201.23
2201.5
2201.59
2201.99
2202.03
2202.6
2202.57
2203.32
2203.2
2204.18
2203.97
2205.16
2204.92
2206.26
2206.1
2207.45
2207.6
2208.66
2209.55
2235.61
2235.72
2235.8
2235.9
2236.04
2236.12
2236.35
2236.38
2236.72
2236.69
2237.17
2237.05
2237.71
2237.47
2238.34
2237.99
2239.06
2238.64
2239.87
2239.49
2240.73
2240.63
2241.61
2242.17
2271.83
2271.93
2272
2272.08
2272.19
2272.23
2272.4
2272.39
2272.66
2272.55
2272.96
2272.74
2273.31
2272.95
2273.72
2273.21
2274.18
2273.57
2274.69
2274.09
2275.22
2274.86
2275.73
2276.01
2309.28
2309.38
2309.43
2309.49
2309.57
2309.57
2309.7
2309.63
2309.83
2309.65
2309.97
2309.66
2310.14
2309.66
2310.32
2309.67
2310.53
2309.74
2310.75
2309.92
2310.95
2310.31
2311.09
2311.03
2348
2348.09
2348.13
2348.17
2348.21
2348.18
2348.25
2348.12
2348.26
2348
2348.25
2347.83
2348.22
2347.62
2348.18
2347.38
2348.13
2347.15
2348.06
2347
2347.93
2347
2347.7
2347.28
2387.99
2388.09
2388.11
2388.13
2388.14
2388.07
2388.09
2387.9
2387.97
2387.64
2387.8
2387.28
2387.57
2386.85
2387.31
2386.35
2387
2385.83
2386.65
2385.34
2386.2
2384.97
2385.61
2384.81
2429.3
2429.39
2429.4
2429.39
2429.37
2429.26
2429.23
2428.98
2428.98
2428.57
2428.64
2428.03
2428.22
2427.37
2427.73
2426.62
2427.16
2425.8
2426.52
2424.97
2425.75
2424.22
2424.81
2423.66
2471.93
2472.02
2472.01
2471.98
2471.92
2471.77
2471.69
2471.39
2471.32
2470.82
2470.81
2470.1
2470.19
2469.21
2469.46
2468.19
2468.63
2467.07
2467.69
2465.9
2466.62
2464.77
2465.33
2463.78
2515.91
2516
2515.97
2515.92
2515.83
2515.64
2515.5
2515.13
2514.99
2514.42
2514.32
2513.5
2513.5
2512.39
2512.53
2511.1
2511.44
2509.67
2510.2
2508.15
2508.81
2506.63
2507.2
2505.21
2561.26
2561.34
2561.3
2561.23
2561.1
2560.86
2560.67
2560.24
2560.03
2559.38
2559.19
2558.27
2558.16
2556.92
2556.96
2555.37
2555.6
2553.62
2554.07
2551.74
2552.35
2549.81
2550.42
2548
2607.99
2608.06
2608.01
2607.91
2607.75
2607.47
2607.22
2606.74
2606.45
2605.71
2605.44
2604.41
2604.2
2602.83
2602.77
2601
2601.13
2598.94
2599.31
2596.7
2597.27
2594.36
2594.99
2592.15
2656.11
2656.18
2656.11
2656
2655.79
2655.48
2655.17
2654.62
2654.26
2653.44
2653.08
2651.94
2651.64
2650.13
2649.97
2648.02
2648.07
2645.64
2645.95
2643.04
2643.62
2640.29
2640.94
2637.68
2705.64
2705.71
2705.63
2705.49
2705.24
2704.89
2704.53
2703.92
2703.49
2702.58
2702.14
2700.88
2700.49
2698.83
2698.58
2696.45
2696.42
2693.74
2694.01
2690.75
2691.4
2687.63
2688.29
2684.63
2756.59
2756.66
2756.56
2756.4
2756.12
2755.72
2755.31
2754.64
2754.13
2753.14
2752.61
2751.25
2750.77
2748.96
2748.63
2746.29
2746.21
2743.26
2743.53
2739.91
2740.56
2736.44
2737.06
2733.02
2808.96
2809.03
2808.91
2808.73
2808.41
2807.98
2807.51
2806.78
2806.21
2805.13
2804.53
2803.04
2802.49
2800.51
2800.12
2797.56
2797.45
2794.19
2794.53
2790.51
2791.15
2786.7
2787.28
2782.86
2862.76
2862.82
2862.69
2862.49
2862.14
2861.67
2861.15
2860.36
2859.73
2858.56
2857.89
2856.27
2855.66
2853.5
2853.09
2850.27
2850.18
2846.6
2846.92
2842.61
2843.19
2838.44
2838.96
2834.17
2917.99
2918.05
2917.9
2917.68
2917.3
2916.8
2916.22
2915.38
2914.68
2913.42
2912.7
2910.94
2910.31
2907.93
2907.54
2904.43
2904.38
2900.47
2900.77
2896.21
2896.7
2891.67
2892.13
2886.97
2974.64
2974.71
2974.55
2974.31
2973.89
2973.36
2972.73
2971.83
2971.09
2969.72
2968.99
2967.04
2966.44
2963.8
2963.48
2960.06
2960.01
2955.89
2956.09
2951.31
2951.7
2946.4
2946.8
2941.28
3032.72
3032.79
3032.61
3032.37
3031.91
3031.36
3030.68
3029.72
3028.95
3027.45
3026.75
3024.58
3024.03
3021.18
3020.8
3017.24
3017.09
3012.81
3012.9
3007.91
3008.21
3002.64
3002.98
2997.11
3092.22
3092.31
3092.09
3091.86
3091.36
3090.79
3090.06
3089.03
3088.28
3086.64
3085.93
3083.64
3083.03
3080.06
3079.6
3075.91
3075.65
3071.22
3071.2
3066.03
3066.23
3060.41
3060.68
3054.48
3153.15
3153.23
3153
3152.78
3152.21
3151.66
3150.87
3149.82
3149
3147.31
3146.54
3144.17
3143.48
3140.43
3139.87
3136.07
3135.71
3131.13
3131.01
3125.65
3125.76
3119.7
3119.91
3113.38
3215.49
3215.58
3215.34
3215.1
3214.52
3213.94
3213.09
3212.07
3211.14
3209.44
3208.59
3206.16
3205.4
3202.27
3201.61
3197.72
3197.26
3192.55
3192.33
3186.8
3186.82
3180.52
3180.68
3173.84
3279.24
3279.33
3279.09
3278.84
3278.25
3277.65
3276.76
3275.75
3274.69
3273.04
3272.07
3269.62
3268.78
3265.57
3264.83
3260.85
3260.3
3255.47
3255.16
3249.46
3249.39
3242.88
3242.98
3235.83
3344.41
3344.5
3344.27
3344
3343.41
3342.79
3341.86
3340.85
3339.7
3338.09
3336.96
3334.56
3333.61
3330.34
3329.53
3325.46
3324.82
3319.87
3319.48
3313.62
3313.48
3306.76
3306.8
3299.36
3411
3411.1
3410.86
3410.58
3409.98
3409.35
3408.4
3407.37
3406.15
3404.57
3403.32
3400.96
3399.87
3396.58
3395.69
3391.55
3390.82
3385.77
3385.28
3379.28
3379.06
3372.15
3372.14
3364.43
3479.01
3479.12
3478.88
3478.6
3477.98
3477.34
3476.37
3475.33
3474.05
3472.49
3471.14
3468.79
3467.57
3464.3
3463.3
3459.09
3458.29
3453.12
3452.57
3446.43
3446.13
3439.03
3438.97
3431.01
3548.47
3548.58
3548.33
3548.05
3547.43
3546.78
3545.77
3544.73
3543.4
3541.84
3540.4
3538.06
3536.74
3533.45
3532.35
3528.08
3527.2
3521.94
3521.3
3515.04
3514.67
3507.4
3507.28
3499.09
3619.38
3619.49
3619.25
3618.96
3618.32
3617.66
3616.63
3615.57
3614.2
3612.64
3611.11
3608.77
3607.35
3604.02
3602.84
3598.5
3597.55
3592.19
3591.48
3585.09
3584.65
3577.22
3577.05
3568.64
3691.76
3691.88
3691.62
3691.34
3690.68
3690.01
3688.94
3687.86
3686.43
3684.86
3683.24
3680.89
3679.38
3676.01
3674.75
3670.33
3669.32
3663.85
3663.07
3656.56
3656.05
3648.48
3648.26
3639.64
3765.62
3765.75
3765.48
3765.19
3764.5
3763.81
3762.7
3761.59
3760.11
3758.51
3756.79
3754.44
3752.81
3749.4
3748.06
3743.55
3742.48
3736.91
3736.06
3729.44
3728.85
3721.15
3720.87
3712.07
3840.96
3841.09
3840.8
3840.51
3839.78
3839.06
3837.91
3836.75
3835.2
3833.57
3831.73
3829.38
3827.61
3824.18
3822.73
3818.15
3817.02
3811.34
3810.42
3803.69
3803.03
3795.21
3794.88
3785.92
3917.74
3917.88
3917.57
3917.25
3916.49
3915.72
3914.51
3913.31
3911.68
3910
3908.04
3905.69
3903.75
3900.35
3898.74
3894.11
3892.9
3887.12
3886.13
3879.32
3878.58
3870.66
3870.28
3861.17
3995.89
3996.03
3995.7
3995.35
3994.56
3993.74
3992.48
3991.21
3989.51
3987.76
3985.7
3983.34
3981.22
3977.86
3976.06
3971.43
3970.09
3964.25
3963.19
3956.31
3955.5
3947.49
3947.06
3937.82
4075.27
4075.41
4075.08
4074.7
4073.88
4073.01
4071.71
4070.38
4068.62
4066.81
4064.66
4062.27
4059.99
4056.68
4054.66
4050.11
4048.57
4042.74
4041.62
4034.67
4033.8
4025.71
4025.23
4015.9
4155.71
4155.85
4155.53
4155.13
4154.3
4153.41
4152.09
4150.72
4148.92
4147.07
4144.86
4142.46
4140.04
4136.8
4134.57
4130.14
4128.39
4122.6
4121.38
4114.4
4113.47
4105.34
4104.83
4095.42
4237.02
4237.16
4236.85
4236.46
4235.66
4234.77
4233.47
4232.11
4230.31
4228.47
4226.24
4223.86
4221.37
4218.19
4215.8
4211.5
4209.54
4203.88
4202.49
4195.57
4194.58
4186.41
4185.89
4176.41
4318.99
4319.15
4318.88
4318.52
4317.77
4316.94
4315.7
4314.4
4312.67
4310.9
4308.72
4306.41
4303.93
4300.84
4298.37
4294.22
4292.09
4286.58
4285.04
4278.16
4277.15
4268.96
4268.45
4258.93
4401.54
4401.72
4401.5
4401.21
4400.54
4399.81
4398.68
4397.51
4395.91
4394.27
4392.22
4390.04
4387.66
4384.72
4382.27
4378.3
4376.08
4370.77
4369.12
4362.26
4361.26
4353.03
4352.54
4342.99
4484.72
4484.93
4484.77
4484.56
4483.99
4483.4
4482.41
4481.41
4479.99
4478.54
4476.67
4474.71
4472.5
4469.78
4467.45
4463.71
4461.51
4456.44
4454.72
4448.01
4446.98
4438.69
4438.23
4428.61
4568.8
4569.04
4568.93
4568.81
4568.35
4567.89
4567.06
4566.23
4565
4563.77
4562.11
4560.41
4558.4
4555.95
4553.84
4550.36
4548.34
4543.52
4541.91
4535.35
4534.41
4526.06
4525.63
4515.85
4654.29
4654.58
4654.48
4654.45
4654.04
4653.71
4652.96
4652.31
4651.2
4650.18
4648.69
4647.23
4645.42
4643.22
4641.42
4638.1
4636.48
4631.75
4630.58
4624.08
4623.49
4615.17
4614.85
4604.94
4741.92
4742.28
4742.11
4742.21
4741.7
4741.54
4740.68
4740.24
4739.03
4738.24
4736.75
4735.48
4733.77
4731.73
4730.29
4726.79
4726.01
4720.81
4720.58
4713.84
4713.91
4705.73
4705.74
4696.2
4832.61
4832.93
4832.82
4832.79
4832.35
4831.99
4831.21
4830.54
4829.41
4828.42
4826.96
4825.62
4823.86
4821.99
4820.39
4817.08
4816.4
4811.28
4811.32
4804.68
4805.14
4797.09
4797.56
4788.66
4927.21
4927.51
4927.37
4927.22
4926.67
4926.14
4925.18
4924.28
4922.94
4921.7
4920
4918.41
4916.41
4914.41
4912.38
4909.35
4908.07
4903.24
4903.16
4896.46
4897.16
4888.94
4889.79
4880.97
5026.48
5026.76
5026.53
5026.25
5025.52
5024.74
5023.51
5022.28
5020.57
5018.92
5016.79
5014.75
5012.27
5009.83
5007.23
5003.98
5002
4997.18
4996.53
4989.56
4990.32
4981.62
4982.73
4973.53
5130.86
5131.16
5130.79
5130.41
5129.43
5128.41
5126.82
5125.24
5123.04
5120.92
5118.18
5115.57
5112.39
5109.3
5105.89
5101.99
5099.21
5093.73
5092.48
5084.68
5085.25
5075.69
5076.92
5066.9
5240.5
5240.84
5240.31
5239.86
5238.62
5237.42
5235.42
5233.56
5230.76
5228.34
5224.76
5221.74
5217.58
5213.82
5209.46
5204.61
5200.97
5194.08
5192.15
5183
5182.93
5172.05
5173.11
5161.73
5355.21
5355.5
5354.99
5354.33
5353.04
5351.53
5349.39
5347.08
5344.09
5340.99
5337.15
5333.29
5328.66
5324.02
5318.73
5313.2
5307.89
5300.35
5296.78
5286.29
5284.88
5272.14
5272.5
5258.95
5474.44
5474.7
5474.19
5473.44
5472.07
5470.41
5468.12
5465.58
5462.36
5458.94
5454.78
5450.47
5445.38
5440.15
5434.19
5427.95
5421.36
5413.62
5407.41
5396.81
5392.93
5378.32
5377.16
5360.35
5597.46
5597.71
5597.21
5596.43
5595.03
5593.31
5590.95
5588.31
5584.98
5581.41
5577.08
5572.56
5567.23
5561.7
5555.37
5548.72
5541.53
5533.38
5525.78
5515.29
5508.44
5493.68
5489.99
5469.29
5723.44
5723.69
5723.22
5722.45
5721.06
5719.35
5717
5714.36
5711.03
5707.46
5703.12
5698.58
5693.21
5687.64
5681.25
5674.54
5667.21
5658.98
5651.06
5640.65
5632.77
5618.59
5612.99
5590.47
5851.5
5851.79
5851.34
5850.61
5849.27
5847.62
5845.34
5842.79
5839.53
5836.07
5831.82
5827.41
5822.15
5816.75
5810.48
5803.96
5796.79
5788.78
5781.17
5770.84
5763.77
5749.46
5744.96
5724.32
5980.82
5981.14
5980.73
5980.07
5978.79
5977.25
5975.06
5972.65
5969.53
5966.25
5962.16
5957.98
5952.92
5947.79
5941.78
5935.59
5928.71
5921.12
5913.9
5904.05
5897.56
5883.82
5879.74
5860.53
6110.64
6110.99
6110.62
6110.03
6108.84
6107.42
6105.36
6103.12
6100.16
6097.11
6093.23
6089.34
6084.53
6079.74
6074.04
6068.26
6061.74
6054.67
6047.85
6038.63
6032.59
6019.73
6015.91
5998.02
6240.25
6240.66
6240.32
6239.84
6238.72
6237.45
6235.51
6233.49
6230.69
6227.91
6224.23
6220.69
6216.13
6211.76
6206.37
6201.05
6194.93
6188.42
6182.01
6173.43
6167.89
6155.95
6152.35
6135.78
6369.12
6369.57
6369.22
6368.89
6367.8
6366.75
6364.88
6363.15
6360.44
6358.05
6354.48
6351.42
6347
6343.19
6338
6333.27
6327.48
6321.58
6315.61
6307.71
6302.56
6291.61
6288.22
6272.99
6496.71
6497.19
6496.86
6496.67
6495.61
6494.78
6492.96
6491.55
6488.91
6486.94
6483.44
6480.93
6476.57
6473.44
6468.31
6464.37
6458.74
6453.52
6448.02
6440.75
6435.99
6426.05
6422.87
6408.98
6622.59
6623.08
6622.83
6622.65
6621.8
6620.98
6619.46
6618.08
6615.82
6613.93
6610.87
6608.52
6604.62
6601.77
6597.09
6593.57
6588.36
6583.8
6578.55
6572.09
6567.69
6558.76
6555.78
6543.2
6746.4
6746.89
6746.72
6746.57
6745.87
6745.12
6743.83
6742.55
6740.61
6738.84
6736.19
6733.97
6730.58
6727.9
6723.8
6720.56
6715.87
6711.82
6706.9
6701.37
6697.23
6689.27
6686.47
6675.19
6867.8
6868.31
6868.2
6868.1
6867.52
6866.87
6865.76
6864.62
6862.93
6861.35
6859.03
6857.03
6854.05
6851.63
6847.99
6845.1
6840.88
6837.34
6832.79
6828.17
6824.15
6817.18
6814.59
6804.58
6986.57
6987.08
6987.02
6986.97
6986.49
6985.95
6985
6984.02
6982.55
6981.17
6979.14
6977.38
6974.76
6972.64
6969.41
6966.89
6963.12
6960.07
6955.94
6952.02
6948.18
6942.26
6939.84
6931.06
7102.45
7102.96
7102.95
7102.94
7102.58
7102.13
7101.34
7100.51
7099.25
7098.07
7096.3
7094.79
7092.5
7090.67
7087.84
7085.68
7082.34
7079.75
7076.04
7072.77
7069.13
7064.21
7061.98
7054.38
7215.28
7215.79
7215.81
7215.87
7215.57
7215.25
7214.57
7213.92
7212.82
7211.86
7210.33
7209.07
7207.08
7205.55
7203.07
7201.27
7198.32
7196.17
7192.88
7190.19
7186.86
7182.88
7180.73
7174.29
7324.9
7325.41
7325.48
7325.54
7325.4
7325.09
7324.62
7324.04
7323.17
7322.37
7321.09
7320.06
7318.35
7317.11
7314.96
7313.5
7310.93
7309.2
7306.3
7304.13
7301.16
7298.03
7296
7290.63
7431.21
7431.72
7431.78
7431.99
7431.74
7431.74
7431.19
7430.9
7430.09
7429.54
7428.43
7427.65
7426.2
7425.23
7423.4
7422.26
7420.05
7418.71
7416.2
7414.51
7411.9
7409.51
7407.63
7403.23
7534.1
7534.59
7534.76
7534.83
7534.95
7534.67
7534.58
7534.13
7533.68
7533.17
7532.34
7531.73
7530.54
7529.83
7528.29
7527.46
7525.58
7524.62
7522.46
7521.24
7519
7517.21
7515.47
7512.04
7633.55
7634.05
7634.13
7634.5
7634.26
7634.56
7634.07
7634.18
7633.55
7633.4
7632.64
7632.29
7631.31
7630.84
7629.58
7629.04
7627.47
7626.85
7625.03
7624.24
7622.33
7621.11
7619.52
7617
7729.48
7729.94
7730.19
7730.28
7730.57
7730.37
7730.57
7730.25
7730.18
7729.9
7729.47
7729.22
7728.49
7728.24
7727.23
7726.96
7725.68
7725.39
7723.87
7723.47
7721.86
7721.14
7719.8
7718.08
7821.92
7822.41
7822.5
7822.97
7822.8
7823.29
7822.91
7823.31
7822.86
7823.06
7822.59
7822.62
7822.04
7822.01
7821.23
7821.22
7820.2
7820.21
7818.98
7818.95
7817.62
7817.36
7816.24
7815.27
7910.84
7911.26
7911.57
7911.68
7912.1
7911.99
7912.39
7912.22
7912.44
7912.37
7912.29
7912.35
7912.01
7912.15
7911.6
7911.81
7911.05
7911.33
7910.37
7910.69
7909.63
7909.81
7908.93
7908.58
7996.29
7996.75
7996.85
7997.39
7997.28
7997.91
7997.65
7998.26
7997.99
7998.46
7998.25
7998.6
7998.36
7998.71
7998.35
7998.78
7998.23
7998.78
7998.06
7998.7
7997.89
7998.48
7997.81
7998.03
8078.27
8078.66
8078.99
8079.14
8079.64
8079.64
8080.17
8080.16
8080.57
8080.71
8080.89
8081.23
8081.21
8081.69
8081.52
8082.14
8081.81
8082.59
8082.09
8083.02
8082.42
8083.4
8082.89
8083.65
8156.87
8157.3
8157.42
8157.99
8157.96
8158.66
8158.55
8159.27
8159.21
8159.85
8159.89
8160.48
8160.54
8161.19
8161.17
8161.97
8161.81
8162.81
8162.5
8163.7
8163.29
8164.61
8164.25
8165.49
8232.13
8232.48
8232.83
8233.01
8233.55
8233.66
8234.25
8234.42
8234.94
8235.3
8235.66
8236.24
8236.47
8237.23
8237.36
8238.32
8238.33
8239.51
8239.38
8240.82
8240.57
8242.21
8241.96
8243.63
8304.13
8304.53
8304.67
8305.23
8305.29
8306.01
8306.05
8306.82
8306.96
8307.7
8307.97
8308.73
8309.03
8309.93
8310.18
8311.28
8311.43
8312.79
8312.81
8314.45
8314.35
8316.27
8316.12
8318.17
8372.95
8373.27
8373.61
8373.84
8374.37
8374.6
8375.2
8375.55
8376.11
8376.67
8377.16
8377.94
8378.36
8379.35
8379.72
8380.94
8381.22
8382.73
8382.88
8384.71
8384.73
8386.9
8386.83
8389.22
8438.67
8439.03
8439.2
8439.73
8439.89
8440.57
8440.78
8441.54
8441.88
8442.68
8443.12
8444.02
8444.51
8445.6
8446.07
8447.4
8447.79
8449.43
8449.7
8451.7
8451.82
8454.21
8454.21
8456.91
8501.4
8501.69
8502.01
8502.29
8502.79
8503.14
8503.71
8504.23
8504.8
8505.53
8506.1
8507.04
8507.61
8508.77
8509.33
8510.76
8511.25
8513
8513.38
8515.52
8515.74
8518.32
8518.4
8521.33
8561.22
8561.53
8561.74
8562.2
8562.48
8563.09
8563.46
8564.19
8564.68
8565.52
8566.1
8567.11
8567.75
8568.98
8569.61
8571.12
8571.7
8573.56
8574.02
8576.29
8576.59
8579.33
8579.42
8582.7
8618.24
8618.51
8618.78
8619.13
8619.56
8620.03
8620.56
8621.2
8621.8
8622.64
8623.29
8624.34
8625.03
8626.32
8627.02
8628.6
8629.26
8631.2
8631.75
8634.13
8634.5
8637.38
8637.53
8640.99
8672.55
8672.81
8673.05
8673.46
8673.81
8674.38
8674.85
8675.57
8676.16
8677.05
8677.72
8678.82
8679.56
8680.9
8681.66
8683.3
8684.03
8686.05
8686.66
8689.14
8689.58
8692.58
8692.78
8696.4
8724.25
8724.5
8724.75
8725.12
8725.52
8726.05
8726.57
8727.29
8727.91
8728.82
8729.53
8730.66
8731.44
8732.83
8733.64
8735.34
8736.12
8738.2
8738.88
8741.44
8741.94
8745.04
8745.29
8749.04
8773.45
8773.68
8773.92
8774.31
8774.69
8775.25
8775.77
8776.5
8777.14
8778.08
8778.81
8779.97
8780.79
8782.21
8783.07
8784.81
8785.64
8787.77
8788.51
8791.13
8791.69
8794.89
8795.17
8799.04
8820.25
8820.47
8820.71
8821.08
8821.48
8822.03
8822.56
8823.3
8823.96
8824.91
8825.67
8826.85
8827.7
8829.15
8830.04
8831.82
8832.69
8834.87
8835.66
8838.33
8838.93
8842.21
8842.53
8846.51
8864.74
8864.95
8865.18
8865.55
8865.95
8866.5
8867.04
8867.79
8868.45
8869.42
8870.2
8871.4
8872.27
8873.75
8874.66
8876.47
8877.38
8879.59
8880.42
8883.13
8883.78
8887.11
8887.47
8891.54
8907.03
8907.22
8907.45
8907.82
8908.21
8908.77
8909.31
8910.07
8910.74
8911.72
8912.5
8913.73
8914.61
8916.11
8917.04
8918.88
8919.8
8922.05
8922.9
8925.65
8926.32
8929.69
8930.07
8934.21
8947.21
8947.39
8947.62
8947.98
8948.37
8948.92
8949.46
8950.23
8950.9
8951.89
8952.68
8953.92
8954.81
8956.33
8957.27
8959.13
8960.07
8962.34
8963.19
8965.98
8966.65
8970.07
8970.45
8974.62
8985.38
8985.55
8985.76
8986.12
8986.51
8987.06
8987.6
8988.37
8989.04
8990.04
8990.83
8992.08
8992.97
8994.51
8995.45
8997.33
8998.27
9000.57
9001.42
9004.24
9004.9
9008.34
9008.72
9012.9
9021.62
9021.78
9021.99
9022.34
9022.72
9023.28
9023.81
9024.58
9025.25
9026.25
9027.05
9028.3
9029.19
9030.74
9031.68
9033.58
9034.51
9036.83
9037.68
9040.51
9041.17
9044.63
9044.99
9049.18
9056.02
9056.17
9056.38
9056.73
9057.1
9057.66
9058.19
9058.95
9059.63
9060.63
9061.42
9062.68
9063.57
9065.12
9066.06
9067.96
9068.9
9071.22
9072.07
9074.91
9075.56
9079.03
9079.39
9083.58
9088.68
9088.82
9089.03
9089.37
9089.74
9090.29
9090.81
9091.58
9092.25
9093.24
9094.04
9095.29
9096.18
9097.73
9098.68
9100.57
9101.51
9103.83
9104.68
9107.52
9108.17
9111.63
9112
9116.18
9119.67
9119.81
9120
9120.34
9120.71
9121.25
9121.77
9122.53
9123.2
9124.19
9124.98
9126.23
9127.12
9128.67
9129.61
9131.5
9132.44
9134.75
9135.6
9138.43
9139.09
9142.54
9142.91
9147.08
9149.08
9149.2
9149.4
9149.73
9150.09
9150.63
9151.14
9151.9
9152.56
9153.55
9154.33
9155.58
9156.46
9158
9158.94
9160.83
9161.77
9164.07
9164.92
9167.73
9168.39
9171.83
9172.19
9176.36
9176.97
9177.09
9177.28
9177.6
9177.96
9178.49
9179
9179.76
9180.4
9181.39
9182.17
9183.41
9184.29
9185.82
9186.75
9188.63
9189.56
9191.85
9192.7
9195.5
9196.16
9199.58
9199.94
9204.09
9203.43
9203.54
9203.72
9204.04
9204.39
9204.92
9205.42
9206.17
9206.81
9207.8
9208.56
9209.8
9210.66
9212.2
9213.12
9214.99
9215.91
9218.19
9219.03
9221.82
9222.49
9225.85
9226.22
9230.34
9228.52
9228.62
9228.8
9229.12
9229.46
9229.98
9230.48
9231.22
9231.85
9232.83
9233.58
9234.82
9235.67
9237.2
9238.1
9239.97
9240.87
9243.14
9243.97
9246.73
9247.35
9250.8
9251.12
9255.21
9252.3
9252.4
9252.58
9252.89
9253.22
9253.74
9254.23
9254.97
9255.59
9256.57
9257.3
9258.54
9259.36
9260.89
9261.78
9263.64
9264.52
9266.79
9267.59
9270.34
9270.95
9274.36
9274.68
9278.73
9274.85
9274.95
9275.12
9275.42
9275.75
9276.27
9276.74
9277.48
9278.08
9279.06
9279.78
9281.01
9281.82
9283.35
9284.2
9286.07
9286.92
9289.18
9289.96
9292.7
9293.3
9296.67
9296.98
9300.99
9296.22
9296.31
9296.48
9296.78
9297.1
9297.61
9298.07
9298.81
9299.4
9300.38
9301.07
9302.31
9303.09
9304.62
9305.44
9307.31
9308.13
9310.4
9311.13
9313.88
9314.44
9317.79
9318.08
9322.05
9316.47
9316.56
9316.72
9317.02
9317.33
9317.84
9318.29
9319.02
9319.59
9320.57
9321.25
9322.49
9323.24
9324.77
9325.56
9327.44
9328.21
9330.49
9331.17
9333.94
9334.44
9337.77
9338.04
9341.97
9335.65
9335.74
9335.9
9336.19
9336.49
9337
9337.44
9338.17
9338.72
9339.7
9340.35
9341.6
9342.31
9343.86
9344.6
9346.5
9347.22
9349.51
9350.16
9352.9
9353.36
9356.68
9356.93
9360.81
9353.83
9353.91
9354.06
9354.35
9354.65
9355.15
9355.57
9356.31
9356.84
9357.82
9358.44
9359.7
9360.38
9361.93
9362.64
9364.54
9365.21
9367.51
9368.08
9370.88
9371.29
9374.58
9374.8
9378.63
9371.03
9371.11
9371.26
9371.55
9371.83
9372.34
9372.75
9373.48
9374
9374.98
9375.58
9376.83
9377.48
9379.04
9379.71
9381.61
9382.24
9384.56
9385.08
9387.87
9388.24
9391.51
9391.72
9395.5
9387.32
9387.4
9387.54
9387.83
9388.1
9388.61
9389
9389.73
9390.23
9391.21
9391.79
9393.04
9393.67
9395.22
9395.86
9397.77
9398.38
9400.66
9401.16
9403.93
9404.28
9407.53
9407.72
9411.46
9402.73
9402.81
9402.94
9403.23
9403.5
9404
9404.38
9405.11
9405.59
9406.58
9407.13
9408.38
9408.98
9410.54
9411.13
9413.06
9413.59
9415.93
9416.36
9419.13
9419.45
9422.67
9422.85
9426.55
9417.31
9417.38
9417.52
9417.8
9418.06
9418.56
9418.93
9419.67
9420.12
9421.11
9421.63
9422.9
9423.45
9425.03
9425.56
9427.53
9428
9430.34
9430.74
9433.5
9433.79
9436.98
9437.15
9440.79
9431.09
9431.17
9431.3
9431.58
9431.83
9432.34
9432.68
9433.43
9433.85
9434.86
9435.34
9436.63
9437.13
9438.73
9439.21
9441.19
9441.62
9443.97
9444.33
9447.07
9447.34
9450.49
9450.65
9454.25
9444.12
9444.2
9444.32
9444.61
9444.84
9445.35
9445.68
9446.43
9446.82
9447.85
9448.29
9449.6
9450.04
9451.69
9452.11
9454.1
9454.49
9456.83
9457.17
9459.88
9460.14
9463.26
9463.41
9466.95
9456.43
9456.5
9456.62
9456.91
9457.13
9457.65
9457.95
9458.72
9459.07
9460.13
9460.51
9461.85
9462.25
9463.9
9464.3
9466.28
9466.64
9468.97
9469.29
9471.98
9472.23
9475.3
9475.45
9478.95
9468.04
9468.12
9468.23
9468.52
9468.72
9469.26
9469.53
9470.32
9470.64
9471.7
9472.06
9473.4
9473.78
9475.43
9475.8
9477.77
9478.12
9480.42
9480.73
9483.39
9483.63
9486.67
9486.81
9490.26
9479
9479.07
9479.18
9479.48
9479.67
9480.2
9480.46
9481.25
9481.56
9482.62
9482.96
9484.3
9484.66
9486.29
9486.65
9488.6
9488.94
9491.22
9491.52
9494.15
9494.38
9497.38
9497.52
9500.92
9489.33
9489.4
9489.5
9489.8
9489.99
9490.52
9490.77
9491.55
9491.85
9492.9
9493.23
9494.56
9494.9
9496.53
9496.87
9498.81
9499.13
9501.39
9501.68
9504.28
9504.5
9507.47
9507.6
9510.96
9499.05
9499.13
9499.23
9499.52
9499.7
9500.23
9500.47
9501.25
9501.54
9502.58
9502.9
9504.22
9504.56
9506.16
9506.5
9508.41
9508.73
9510.96
9511.24
9513.81
9514.03
9516.96
9517.09
9520.41
9508.2
9508.27
9508.37
9508.66
9508.84
9509.36
9509.6
9510.37
9510.66
9511.68
9512
9513.3
9513.63
9515.22
9515.55
9517.44
9517.75
9519.96
9520.23
9522.78
9522.99
9525.89
9526.01
9529.29
9516.8
9516.86
9516.97
9517.24
9517.44
9517.94
9518.19
9518.93
9519.22
9520.24
9520.54
9521.84
9522.15
9523.73
9524.05
9525.92
9526.22
9528.41
9528.67
9531.19
9531.39
9534.26
9534.38
9537.62
9524.86
9524.93
9525.04
9525.3
9525.51
9525.97
9526.25
9526.95
9527.27
9528.25
9528.56
9529.84
9530.15
9531.71
9532.02
9533.88
9534.16
9536.33
9536.58
9539.07
9539.27
9542.11
9542.22
9545.42
9532.42
9532.48
9532.61
9532.84
9533.08
9533.5
9533.81
9534.47
9534.82
9535.75
9536.08
9537.31
9537.64
9539.18
9539.48
9541.32
9541.59
9543.74
9543.98
9546.45
9546.64
9549.45
9549.56
9552.73
9539.49
9539.55
9539.68
9539.89
9540.15
9540.54
9540.89
9541.48