/*--------------------------------*- C++ -*----------------------------------*\
  =========                 |
  \\      /  F ield         | OpenFOAM: The Open Source CFD Toolbox
   \\    /   O peration     | Website:  https://openfoam.org
    \\  /    A nd           | Version:  10
     \\/     M anipulation  |
\*---------------------------------------------------------------------------*/
FoamFile
{
    format      ascii;
    class       surfaceScalarField;
    location    "0.23";
    object      phi;
}
// * * * * * * * * * * * * * * * * * * * * * * * * * * * * * * * * * * * * * //

dimensions      [1 0 -1 0 0 0 0];

internalField   nonuniform List<scalar> 
8154
(
-5.85194e-09
-2.22217e-08
-5.68599e-08
-9.17239e-08
-1.71237e-07
-2.25367e-07
-3.69517e-07
-4.54019e-07
-6.7457e-07
-8.14403e-07
-1.1046e-06
-1.33781e-06
-1.66878e-06
-2.02856e-06
-2.36272e-06
-2.86617e-06
-3.25551e-06
-3.98577e-06
-4.56774e-06
-5.50889e-06
-6.8267e-06
-7.23881e-06
-6.86262e-06
-0.000277441
-0.000832378
2.40054e-08
-0.00138748
9.61597e-08
-0.0019429
2.13354e-07
-0.00249869
3.78236e-07
-0.00305506
5.77672e-07
-0.00361206
8.24085e-07
-0.00416977
1.08904e-06
-0.0047285
1.39802e-06
-0.00528796
1.71099e-06
-0.00584883
2.05583e-06
-0.00641064
2.40267e-06
-0.00697383
2.74773e-06
-0.00753875
3.11962e-06
-0.00810424
3.43493e-06
-0.00867316
3.84864e-06
-0.00924032
4.12628e-06
-0.00981498
4.57371e-06
-0.0103834
4.92444e-06
-0.0109647
5.13826e-06
-0.0115339
5.27899e-06
-0.0121236
5.11773e-06
-0.012695
4.03413e-06
-0.013293
2.44573e-06
-0.000277465
-0.00083245
2.63224e-08
-0.00138759
1.04717e-07
-0.00194307
2.3477e-07
-0.00249889
4.10362e-07
-0.00305531
6.35628e-07
-0.00361232
8.90157e-07
-0.00417008
1.19529e-06
-0.00472881
1.50142e-06
-0.0052883
1.86691e-06
-0.00584917
2.19044e-06
-0.00641098
2.59324e-06
-0.0069742
2.89247e-06
-0.00753906
3.29842e-06
-0.00810466
3.53829e-06
-0.00867343
3.90262e-06
-0.00924077
4.10495e-06
-0.00981533
4.38986e-06
-0.0103836
5.00204e-06
-0.0109648
4.66542e-06
-0.0115337
5.23295e-06
-0.0121225
5.33095e-06
-0.0126934
5.04322e-06
-0.0132906
4.2264e-06
-0.000277491
-0.000832528
2.1262e-08
-0.00138772
8.48367e-08
-0.00194324
1.88107e-07
-0.00249912
3.30699e-07
-0.00305556
5.02279e-07
-0.00361262
7.07901e-07
-0.00417039
9.233e-07
-0.00472917
1.16676e-06
-0.00528863
1.39404e-06
-0.00584957
1.64164e-06
-0.00641128
1.84631e-06
-0.0069746
2.04952e-06
-0.0075393
2.19689e-06
-0.00810502
2.28308e-06
-0.00867362
2.3523e-06
-0.00924105
2.20655e-06
-0.00981593
2.34338e-06
-0.0103832
1.89891e-06
-0.0109654
1.77999e-06
-0.0115338
1.39158e-06
-0.0121222
1.15624e-06
-0.0126926
7.23046e-07
-0.0132863
5.13475e-07
-0.000277513
-0.000832591
2.54953e-08
-0.00138782
1.01787e-07
-0.00194338
2.26054e-07
-0.00249929
3.97946e-07
-0.00305577
6.05966e-07
-0.00361284
8.5619e-07
-0.00417063
1.12011e-06
-0.0047294
1.42093e-06
-0.00528887
1.70246e-06
-0.00584977
2.01674e-06
-0.00641148
2.27217e-06
-0.00697475
2.54815e-06
-0.00753938
2.73326e-06
-0.00810509
2.89446e-06
-0.00867347
2.98403e-06
-0.00924119
2.89792e-06
-0.00981548
2.97451e-06
-0.0103831
2.28246e-06
-0.010965
2.51568e-06
-0.0115335
1.7241e-06
-0.0121218
1.20604e-06
-0.0126924
3.81612e-07
-0.0132858
-1.72467e-07
-0.000277538
-0.000832668
3.36051e-08
-0.00138795
1.3413e-07
-0.00194356
2.9916e-07
-0.00249949
5.26537e-07
-0.00305602
8.08231e-07
-0.0036131
1.14218e-06
-0.00417093
1.51259e-06
-0.00472968
1.91954e-06
-0.00528919
2.33908e-06
-0.00585003
2.77327e-06
-0.00641175
3.1943e-06
-0.00697493
3.5958e-06
-0.00753954
3.96375e-06
-0.00810518
4.25806e-06
-0.00867338
4.52079e-06
-0.00924126
4.61548e-06
-0.00981479
4.73106e-06
-0.0103834
4.4006e-06
-0.0109642
4.36449e-06
-0.011533
3.67092e-06
-0.012121
3.21153e-06
-0.0126918
2.27126e-06
-0.013286
1.34867e-06
-0.000277572
-0.000832768
3.75217e-08
-0.00138811
1.4977e-07
-0.00194378
3.34306e-07
-0.00249978
5.88488e-07
-0.00305635
9.04587e-07
-0.00361347
1.27883e-06
-0.00417133
1.69682e-06
-0.0047301
2.1544e-06
-0.00528962
2.63112e-06
-0.00585044
3.12103e-06
-0.00641215
3.60264e-06
-0.0069753
4.05802e-06
-0.00753983
4.48117e-06
-0.00810544
4.82068e-06
-0.00867347
5.1225e-06
-0.00924137
5.2501e-06
-0.00981445
5.37028e-06
-0.0103833
5.08299e-06
-0.0109635
4.96467e-06
-0.0115326
4.21208e-06
-0.01212
3.67647e-06
-0.0126909
2.63934e-06
-0.0132846
1.61279e-06
-0.000277609
-0.00083288
4.13482e-08
-0.0013883
1.65056e-07
-0.00194404
3.68527e-07
-0.00250009
6.48883e-07
-0.00305672
9.97983e-07
-0.00361389
1.41167e-06
-0.00417179
1.8747e-06
-0.00473057
2.38243e-06
-0.00529011
2.91268e-06
-0.00585092
3.45923e-06
-0.00641261
3.99686e-06
-0.00697572
4.50888e-06
-0.00754017
4.98179e-06
-0.00810574
5.36968e-06
-0.0086736
5.70532e-06
-0.00924149
5.86252e-06
-0.00981416
5.99828e-06
-0.0103832
5.72036e-06
-0.0109627
5.59455e-06
-0.011532
4.80656e-06
-0.012119
4.19862e-06
-0.0126899
2.99083e-06
-0.013283
1.79548e-06
-0.00027765
-0.000833004
4.50366e-08
-0.0013885
1.7977e-07
-0.00194432
4.01427e-07
-0.00250044
7.06744e-07
-0.00305713
1.08731e-06
-0.00361435
1.53811e-06
-0.0041723
2.04381e-06
-0.0047311
2.59818e-06
-0.00529065
3.17925e-06
-0.00585146
3.77809e-06
-0.00641312
4.36975e-06
-0.00697619
4.93382e-06
-0.00754055
5.45579e-06
-0.00810608
5.88727e-06
-0.00867375
6.25574e-06
-0.00924162
6.4407e-06
-0.00981388
6.58193e-06
-0.0103831
6.3306e-06
-0.0109619
6.17251e-06
-0.0115314
5.36869e-06
-0.0121178
4.83044e-06
-0.0126887
3.36195e-06
-0.0132813
2.01573e-06
-0.000277695
-0.000833138
4.86766e-08
-0.00138872
1.94279e-07
-0.00194462
4.33813e-07
-0.00250082
7.63599e-07
-0.00305758
1.17479e-06
-0.00361485
1.66162e-06
-0.00417285
2.20827e-06
-0.00473168
2.80738e-06
-0.00529125
3.4366e-06
-0.00585205
4.08537e-06
-0.00641368
4.72812e-06
-0.00697671
5.34239e-06
-0.00754098
5.91134e-06
-0.00810644
6.38543e-06
-0.00867394
6.7854e-06
-0.00924176
6.99539e-06
-0.00981362
7.13679e-06
-0.0103829
6.90443e-06
-0.0109611
6.72221e-06
-0.0115308
5.87692e-06
-0.0121163
4.90005e-06
-0.0126873
3.68408e-06
-0.0132792
2.20819e-06
-0.000277744
-0.000833284
5.22678e-08
-0.00138896
2.0859e-07
-0.00194495
4.65732e-07
-0.00250123
8.19575e-07
-0.00305807
1.26077e-06
-0.0036154
1.7827e-06
-0.00417345
2.36898e-06
-0.00473231
3.01104e-06
-0.0052919
3.686e-06
-0.00585269
4.38194e-06
-0.0064143
5.0726e-06
-0.00697728
5.73412e-06
-0.00754145
6.34755e-06
-0.00810684
6.86257e-06
-0.00867414
7.29359e-06
-0.0092419
7.52689e-06
-0.00981338
7.66727e-06
-0.0103828
7.44949e-06
-0.0109603
7.24803e-06
-0.0115301
6.39916e-06
-0.0121148
5.58603e-06
-0.0126858
4.04172e-06
-0.013277
2.40549e-06
-0.000277796
-0.00083344
5.5826e-08
-0.00138922
2.22772e-07
-0.0019453
4.97369e-07
-0.00250167
8.75072e-07
-0.00305859
1.34598e-06
-0.00361598
1.90263e-06
-0.00417409
2.52785e-06
-0.00473299
3.21187e-06
-0.00529259
3.93095e-06
-0.00585338
4.67192e-06
-0.00641496
5.40762e-06
-0.0069779
6.11335e-06
-0.00754196
6.76814e-06
-0.00810727
7.32177e-06
-0.00867438
7.78301e-06
-0.00924204
8.04093e-06
-0.00981316
8.18775e-06
-0.0103826
7.97196e-06
-0.0109594
7.74221e-06
-0.0115293
6.85671e-06
-0.0121133
6.00757e-06
-0.0126842
4.35821e-06
-0.0132746
2.58977e-06
-0.000277852
-0.000833607
5.93445e-08
-0.00138949
2.36803e-07
-0.00194568
5.28692e-07
-0.00250214
9.30075e-07
-0.00305915
1.4305e-06
-0.00361661
2.02168e-06
-0.00417477
2.68552e-06
-0.0047337
3.41102e-06
-0.00529333
4.17326e-06
-0.00585411
4.95779e-06
-0.00641566
5.73621e-06
-0.00697855
6.4832e-06
-0.00754252
7.17577e-06
-0.00810773
7.76445e-06
-0.00867463
8.25299e-06
-0.00924218
8.53378e-06
-0.00981294
8.68737e-06
-0.0103823
8.46913e-06
-0.0109585
8.20502e-06
-0.0115284
7.28275e-06
-0.0121117
6.37287e-06
-0.0126824
4.65391e-06
-0.013272
2.76084e-06
-0.000277911
-0.000833784
6.28232e-08
-0.00138978
2.5068e-07
-0.00194608
5.59694e-07
-0.00250264
9.84573e-07
-0.00305974
1.51435e-06
-0.00361727
2.13994e-06
-0.0041755
2.84231e-06
-0.00473447
3.60916e-06
-0.00529412
4.41424e-06
-0.00585489
5.24164e-06
-0.00641641
6.06138e-06
-0.00697924
6.84744e-06
-0.0075431
7.57464e-06
-0.00810821
8.19463e-06
-0.00867492
8.70675e-06
-0.00924233
9.00731e-06
-0.00981272
9.16535e-06
-0.0103821
8.94766e-06
-0.0109576
8.64376e-06
-0.0115275
7.67548e-06
-0.0121099
6.70423e-06
-0.0126805
4.89771e-06
-0.0132693
2.90864e-06
-0.000277974
-0.000833972
6.62642e-08
-0.00139009
2.64406e-07
-0.00194651
5.90357e-07
-0.00250317
1.0385e-06
-0.00306036
1.59736e-06
-0.00361797
2.25712e-06
-0.00417626
2.99784e-06
-0.00473527
3.80597e-06
-0.00529494
4.65385e-06
-0.00585571
5.52396e-06
-0.00641719
6.38452e-06
-0.00697997
7.20844e-06
-0.00754372
7.96809e-06
-0.00810872
8.61607e-06
-0.00867522
9.14766e-06
-0.00924249
9.46389e-06
-0.0098125
9.62469e-06
-0.0103818
9.40933e-06
-0.0109567
9.06353e-06
-0.0115265
8.05017e-06
-0.0121081
7.00877e-06
-0.0126785
5.05691e-06
-0.0132664
3.03545e-06
-0.00027804
-0.00083417
6.96744e-08
-0.00139042
2.77999e-07
-0.00194695
6.20699e-07
-0.00250373
1.09181e-06
-0.00306102
1.67936e-06
-0.00361871
2.37285e-06
-0.00417707
3.15148e-06
-0.00473612
4.00056e-06
-0.00529581
4.89104e-06
-0.00585657
5.80388e-06
-0.00641802
6.70531e-06
-0.00698073
7.56694e-06
-0.00754436
8.35827e-06
-0.00810925
9.03229e-06
-0.00867553
9.57989e-06
-0.00924264
9.9069e-06
-0.00981229
1.00664e-05
-0.0103814
9.85098e-06
-0.0109556
9.4643e-06
-0.0115255
8.41222e-06
-0.0121062
7.30709e-06
-0.0126765
5.27932e-06
-0.0132633
3.16904e-06
-0.00027811
-0.000834378
7.30565e-08
-0.00139076
2.91472e-07
-0.00194742
6.50718e-07
-0.00250431
1.14444e-06
-0.00306171
1.76015e-06
-0.00361949
2.48666e-06
-0.00417792
3.30237e-06
-0.00473701
4.1916e-06
-0.00529672
5.12405e-06
-0.00585747
6.07928e-06
-0.00641888
7.02166e-06
-0.00698152
7.92132e-06
-0.00754504
8.74481e-06
-0.0081098
9.44476e-06
-0.00867586
1.00072e-05
-0.0092428
1.03416e-05
-0.00981207
1.04934e-05
-0.010381
1.02651e-05
-0.0109546
9.84427e-06
-0.0115244
8.7541e-06
-0.0121041
7.58745e-06
-0.0126743
5.49757e-06
-0.0132602
3.29358e-06
-0.000278183
-0.000834596
7.64003e-08
-0.00139112
3.04777e-07
-0.00194792
6.80303e-07
-0.00250493
1.19618e-06
-0.00306244
1.83932e-06
-0.0036203
2.59787e-06
-0.0041788
3.44944e-06
-0.00473794
4.37748e-06
-0.00529768
5.3506e-06
-0.00585841
6.34721e-06
-0.00641977
7.33003e-06
-0.00698234
8.26784e-06
-0.00754573
9.12431e-06
-0.00811036
9.85132e-06
-0.00867619
1.04299e-05
-0.00924294
1.07721e-05
-0.00981184
1.09147e-05
-0.0103806
1.06698e-05
-0.0109535
1.02138e-05
-0.0115232
9.08663e-06
-0.012102
7.85736e-06
-0.0126721
5.69813e-06
-0.0132569
3.41047e-06
-0.000278259
-0.000834824
7.96791e-08
-0.00139149
3.1781e-07
-0.00194843
7.09232e-07
-0.00250557
1.24665e-06
-0.00306319
1.91634e-06
-0.00362115
2.70572e-06
-0.00417973
3.59163e-06
-0.00473891
4.5567e-06
-0.00529867
5.5686e-06
-0.00585939
6.60481e-06
-0.00642071
7.62667e-06
-0.0069832
8.60194e-06
-0.00754646
9.49173e-06
-0.00811093
1.0247e-05
-0.00867653
1.08439e-05
-0.00924308
1.1196e-05
-0.0098116
1.13317e-05
-0.0103801
1.10723e-05
-0.0109524
1.05769e-05
-0.011522
9.41574e-06
-0.0120999
8.12356e-06
-0.0126698
5.89291e-06
-0.0132535
3.5223e-06
-0.000278339
-0.000835062
8.28343e-08
-0.00139188
3.30346e-07
-0.00194897
7.37037e-07
-0.00250624
1.29511e-06
-0.00306398
1.99017e-06
-0.00362204
2.80891e-06
-0.0041807
3.72734e-06
-0.00473992
4.72732e-06
-0.00529971
5.77559e-06
-0.00586041
6.84889e-06
-0.00642169
7.90747e-06
-0.00698409
8.91835e-06
-0.00754721
9.84062e-06
-0.00811153
1.06246e-05
-0.00867688
1.12418e-05
-0.00924321
1.16068e-05
-0.00981134
1.17394e-05
-0.0103796
1.14683e-05
-0.0109512
1.09331e-05
-0.0115207
9.74462e-06
-0.0120976
8.39288e-06
-0.0126674
6.08706e-06
-0.01325
3.63159e-06
-0.000278421
-0.00083531
8.57878e-08
-0.00139229
3.42084e-07
-0.00194953
7.63089e-07
-0.00250693
1.34054e-06
-0.0030648
2.05943e-06
-0.00362296
2.90572e-06
-0.0041817
3.85458e-06
-0.00474097
4.88708e-06
-0.00530078
5.96903e-06
-0.00586147
7.07645e-06
-0.0064227
8.16866e-06
-0.00698501
9.21222e-06
-0.00754799
1.01647e-05
-0.00811215
1.0976e-05
-0.00867724
1.16144e-05
-0.00924334
1.19949e-05
-0.00981107
1.21294e-05
-0.0103791
1.18511e-05
-0.01095
1.12804e-05
-0.0115193
1.00734e-05
-0.0120953
8.66644e-06
-0.012665
6.28723e-06
-0.0132463
3.74228e-06
-0.000278507
-0.000835566
8.84497e-08
-0.00139271
3.52675e-07
-0.0019501
7.86642e-07
-0.00250765
1.38172e-06
-0.00306565
2.12239e-06
-0.0036239
2.99394e-06
-0.00418273
3.97078e-06
-0.00474205
5.03313e-06
-0.00530189
6.14584e-06
-0.00586256
7.28418e-06
-0.00642374
8.4065e-06
-0.00698596
9.47905e-06
-0.0075488
1.04581e-05
-0.00811278
1.12939e-05
-0.00867762
1.19518e-05
-0.00924347
1.23481e-05
-0.00981079
1.24885e-05
-0.0103785
1.22104e-05
-0.0109488
1.16188e-05
-0.0115179
1.03935e-05
-0.0120929
8.93775e-06
-0.0126624
6.49376e-06
-0.0132426
3.85647e-06
-0.000278595
-0.00083583
9.07332e-08
-0.00139315
3.61777e-07
-0.0019507
8.06942e-07
-0.00250839
1.41737e-06
-0.00306652
2.17714e-06
-0.00362488
3.07106e-06
-0.00418379
4.07285e-06
-0.00474316
5.16195e-06
-0.00530303
6.30222e-06
-0.00586368
7.46808e-06
-0.00642481
8.61684e-06
-0.00698694
9.71435e-06
-0.00754964
1.07158e-05
-0.00811344
1.15718e-05
-0.00867802
1.22456e-05
-0.00924361
1.26551e-05
-0.00981051
1.28012e-05
-0.0103779
1.25271e-05
-0.0109476
1.1926e-05
-0.0115165
1.06843e-05
-0.0120905
9.18712e-06
-0.0126597
6.69697e-06
-0.0132388
3.97076e-06
-0.000278686
-0.0008361
9.25672e-08
-0.00139359
3.69102e-07
-0.00195131
8.23337e-07
-0.00250915
1.4463e-06
-0.00306741
2.22186e-06
-0.00362588
3.1345e-06
-0.00418488
4.15745e-06
-0.0047443
5.26949e-06
-0.00530419
6.43357e-06
-0.00586483
7.62322e-06
-0.00642591
8.79457e-06
-0.00698794
9.91295e-06
-0.00755049
1.09324e-05
-0.00811411
1.18038e-05
-0.00867843
1.24889e-05
-0.00924375
1.29071e-05
-0.00981023
1.30558e-05
-0.0103773
1.27836e-05
-0.0109464
1.21725e-05
-0.011515
1.09214e-05
-0.012088
9.38946e-06
-0.012657
6.87058e-06
-0.0132348
4.06862e-06
-0.000278779
-0.000836376
9.39031e-08
-0.00139404
3.74447e-07
-0.00195193
8.35338e-07
-0.00250993
1.46758e-06
-0.00306832
2.25497e-06
-0.00362691
3.18188e-06
-0.00418599
4.22124e-06
-0.00474547
5.35142e-06
-0.00530538
6.53465e-06
-0.005866
7.74367e-06
-0.00642702
8.93338e-06
-0.00698896
1.00684e-05
-0.00755136
1.11015e-05
-0.0081148
1.19835e-05
-0.00867884
1.26749e-05
-0.00924389
1.30968e-05
-0.00980996
1.32437e-05
-0.0103767
1.29698e-05
-0.0109451
1.23469e-05
-0.0115134
1.10898e-05
-0.0120855
9.51799e-06
-0.0126542
6.97025e-06
-0.0132307
4.11683e-06
-0.000278872
-0.000836657
9.4729e-08
-0.0013945
3.77755e-07
-0.00195256
8.42777e-07
-0.00251071
1.48082e-06
-0.00306925
2.27571e-06
-0.00362794
3.21186e-06
-0.00418712
4.26209e-06
-0.00474665
5.40475e-06
-0.00530659
6.60147e-06
-0.00586719
7.82475e-06
-0.00642816
9.02797e-06
-0.00698999
1.01757e-05
-0.00755224
1.12181e-05
-0.00811549
1.21073e-05
-0.00867927
1.28001e-05
-0.00924404
1.32217e-05
-0.00980968
1.33612e-05
-0.0103761
1.30822e-05
-0.0109439
1.2446e-05
-0.0115119
1.11854e-05
-0.0120829
9.56197e-06
-0.0126513
6.95945e-06
-0.0132266
4.08796e-06
-0.000278967
-0.000836939
9.54255e-08
-0.00139497
3.80538e-07
-0.0019532
8.49023e-07
-0.00251151
1.49194e-06
-0.00307019
2.29314e-06
-0.00362899
3.23719e-06
-0.00418826
4.29701e-06
-0.00474784
5.45111e-06
-0.00530781
6.66102e-06
-0.00586839
7.89915e-06
-0.0064293
9.11811e-06
-0.00699103
1.0282e-05
-0.00755313
1.13394e-05
-0.00811618
1.2242e-05
-0.00867969
1.29444e-05
-0.00924418
1.33729e-05
-0.0098094
1.35137e-05
-0.0103755
1.32367e-05
-0.0109426
1.25962e-05
-0.0115103
1.13381e-05
-0.0120803
9.68346e-06
-0.0126485
7.05069e-06
-0.0132225
4.18304e-06
-0.000279062
-0.000837224
9.57246e-08
-0.00139544
3.81727e-07
-0.00195385
8.51669e-07
-0.00251231
1.49662e-06
-0.00307113
2.3005e-06
-0.00363005
3.24802e-06
-0.00418942
4.3123e-06
-0.00474905
5.47221e-06
-0.00530905
6.68953e-06
-0.00586961
7.93689e-06
-0.00643047
9.16682e-06
-0.00699209
1.03431e-05
-0.00755403
1.14138e-05
-0.00811688
1.23291e-05
-0.00868012
1.30423e-05
-0.00924431
1.34788e-05
-0.00980912
1.36228e-05
-0.0103748
1.33478e-05
-0.0109414
1.27034e-05
-0.0115086
1.14455e-05
-0.0120777
9.77863e-06
-0.0126455
7.13619e-06
-0.0132184
4.36179e-06
-0.000279158
-0.00083751
9.55166e-08
-0.00139591
3.80885e-07
-0.00195449
8.4975e-07
-0.00251311
1.4932e-06
-0.00307208
2.29519e-06
-0.00363112
3.24062e-06
-0.00419058
4.30281e-06
-0.00475027
5.46108e-06
-0.0053103
6.67761e-06
-0.00587084
7.92563e-06
-0.00643164
9.15803e-06
-0.00699315
1.03391e-05
-0.00755494
1.14166e-05
-0.00811759
1.23402e-05
-0.00868056
1.30618e-05
-0.00924446
1.35054e-05
-0.00980884
1.36523e-05
-0.0103742
1.33779e-05
-0.0109401
1.27273e-05
-0.0115069
1.14719e-05
-0.012075
9.80059e-06
-0.0126427
7.14187e-06
-0.0132141
4.01628e-06
-0.000279253
-0.000837795
9.48382e-08
-0.00139638
3.78171e-07
-0.00195513
8.43653e-07
-0.00251392
1.48244e-06
-0.00307302
2.27855e-06
-0.00363218
3.21707e-06
-0.00419173
4.27155e-06
-0.00475149
5.42172e-06
-0.00531154
6.6302e-06
-0.00587207
7.87097e-06
-0.00643282
9.09755e-06
-0.00699423
1.02753e-05
-0.00755586
1.13527e-05
-0.00811831
1.22795e-05
-0.008681
1.30071e-05
-0.0092446
1.34583e-05
-0.00980857
1.36112e-05
-0.0103735
1.33405e-05
-0.0109388
1.26851e-05
-0.0115053
1.1429e-05
-0.0120724
9.75239e-06
-0.0126398
7.13725e-06
-0.0132098
3.95586e-06
-0.000279348
-0.000838078
9.37162e-08
-0.00139684
3.73697e-07
-0.00195577
8.3367e-07
-0.00251471
1.46493e-06
-0.00307396
2.25163e-06
-0.00363323
3.17915e-06
-0.00419288
4.22125e-06
-0.00475269
5.35807e-06
-0.00531278
6.55255e-06
-0.0058733
7.7794e-06
-0.006434
8.99284e-06
-0.00699531
1.01597e-05
-0.00755679
1.12293e-05
-0.00811904
1.2153e-05
-0.00868146
1.28826e-05
-0.00924475
1.33409e-05
-0.0098083
1.35039e-05
-0.0103729
1.32449e-05
-0.0109376
1.25952e-05
-0.0115036
1.13423e-05
-0.0120698
9.64699e-06
-0.0126369
7.09472e-06
-0.0132056
4.18919e-06
-0.000279442
-0.000838357
9.21774e-08
-0.0013973
3.67577e-07
-0.0019564
8.20066e-07
-0.0025155
1.44118e-06
-0.00307489
2.21535e-06
-0.00363428
3.12834e-06
-0.00419402
4.15421e-06
-0.00475389
5.27353e-06
-0.00531401
6.44951e-06
-0.00587451
7.65744e-06
-0.00643516
8.85204e-06
-0.00699637
1.00016e-05
-0.00755771
1.10564e-05
-0.00811976
1.197e-05
-0.00868191
1.26953e-05
-0.00924491
1.31572e-05
-0.00980805
1.33315e-05
-0.0103722
1.30909e-05
-0.0109363
1.24614e-05
-0.0115019
1.12312e-05
-0.0120672
9.5431e-06
-0.0126339
7.01499e-06
-0.0132014
4.1682e-06
-0.000279534
-0.000838632
9.0262e-08
-0.00139775
3.59966e-07
-0.00195702
8.03187e-07
-0.00251627
1.41179e-06
-0.0030758
2.17063e-06
-0.0036353
3.06597e-06
-0.00419514
4.07238e-06
-0.00475506
5.1709e-06
-0.00531522
6.32506e-06
-0.00587571
7.51064e-06
-0.00643631
8.68268e-06
-0.00699743
9.81058e-06
-0.00755863
1.08453e-05
-0.00812049
1.17426e-05
-0.00868238
1.24568e-05
-0.00924509
1.29161e-05
-0.00980781
1.30977e-05
-0.0103716
1.28764e-05
-0.0109351
1.22758e-05
-0.0115002
1.10851e-05
-0.0120647
9.43302e-06
-0.0126311
6.93688e-06
-0.0131973
4.12082e-06
-0.000279624
-0.000838902
8.80276e-08
-0.0013982
3.51093e-07
-0.00195763
7.83507e-07
-0.00251703
1.37756e-06
-0.0030767
2.11858e-06
-0.00363631
2.99353e-06
-0.00419624
3.9776e-06
-0.00475621
5.05252e-06
-0.0053164
6.1823e-06
-0.00587688
7.34323e-06
-0.00643744
8.49061e-06
-0.00699846
9.59472e-06
-0.00755952
1.06066e-05
-0.0081212
1.14839e-05
-0.00868284
1.21816e-05
-0.00924527
1.26316e-05
-0.00980759
1.28134e-05
-0.010371
1.26064e-05
-0.0109339
1.20351e-05
-0.0114985
1.08914e-05
-0.0120622
9.28968e-06
-0.0126283
6.85565e-06
-0.0131931
4.06668e-06
-0.000279712
-0.000839165
8.55494e-08
-0.00139863
3.41243e-07
-0.00195823
7.61648e-07
-0.00251777
1.33948e-06
-0.00307757
2.06064e-06
-0.00363729
2.91281e-06
-0.00419731
3.87198e-06
-0.00475734
4.92071e-06
-0.00531756
6.02379e-06
-0.00587803
7.15819e-06
-0.00643854
8.27965e-06
-0.00699947
9.35929e-06
-0.0075604
1.03479e-05
-0.0081219
1.12046e-05
-0.00868328
1.18838e-05
-0.00924545
1.23206e-05
-0.00980738
1.24957e-05
-0.0103704
1.22947e-05
-0.0109328
1.17449e-05
-0.011497
1.06459e-05
-0.0120597
9.10724e-06
-0.0126255
6.77368e-06
-0.0131891
4.00713e-06
-0.000279797
-0.00083942
8.29091e-08
-0.00139905
3.30742e-07
-0.00195881
7.38304e-07
-0.00251849
1.29872e-06
-0.00307843
1.99846e-06
-0.00363825
2.82594e-06
-0.00419836
3.75797e-06
-0.00475845
4.77811e-06
-0.0053187
5.85213e-06
-0.00587915
6.958e-06
-0.00643962
8.0522e-06
-0.00700046
9.10695e-06
-0.00756126
1.00731e-05
-0.00812258
1.09104e-05
-0.00868372
1.1573e-05
-0.00924562
1.19971e-05
-0.00980718
1.21632e-05
-0.0103698
1.19616e-05
-0.0109317
1.14213e-05
-0.0114954
1.03527e-05
-0.0120574
8.87313e-06
-0.0126227
6.64688e-06
-0.0131851
3.93041e-06
-0.00027988
-0.000839668
8.01834e-08
-0.00139946
3.19888e-07
-0.00195937
7.14138e-07
-0.00251919
1.25643e-06
-0.00307925
1.93372e-06
-0.00363918
2.73512e-06
-0.00419938
3.63826e-06
-0.00475952
4.6277e-06
-0.0053198
5.67029e-06
-0.00588024
6.74526e-06
-0.00644068
7.81021e-06
-0.00700143
8.83884e-06
-0.00756209
9.78248e-06
-0.00812324
1.06023e-05
-0.00868414
1.12518e-05
-0.00924579
1.16676e-05
-0.00980697
1.18287e-05
-0.0103693
1.16274e-05
-0.0109306
1.10909e-05
-0.0114939
1.00383e-05
-0.0120552
8.59009e-06
-0.01262
6.41882e-06
-0.0131811
3.82029e-06
-0.00027996
-0.000839907
7.7429e-08
-0.00139985
3.08912e-07
-0.00195991
6.89665e-07
-0.00251987
1.2135e-06
-0.00308005
1.86782e-06
-0.00364008
2.64233e-06
-0.00420037
3.51535e-06
-0.00476056
4.47242e-06
-0.00532088
5.48143e-06
-0.00588131
6.523e-06
-0.00644171
7.55604e-06
-0.00700237
8.55603e-06
-0.00756291
9.47556e-06
-0.00812389
1.02775e-05
-0.00868456
1.09166e-05
-0.00924595
1.13289e-05
-0.00980677
1.14926e-05
-0.0103688
1.12991e-05
-0.0109295
1.0773e-05
-0.0114925
9.73665e-06
-0.012053
8.3113e-06
-0.0126174
6.18665e-06
-0.0131773
3.67717e-06
-0.000280038
-0.000840139
7.46774e-08
-0.00140023
2.97938e-07
-0.00196043
6.65181e-07
-0.00252053
1.17049e-06
-0.00308083
1.80164e-06
-0.00364096
2.54885e-06
-0.00420132
3.39103e-06
-0.00476157
4.31458e-06
-0.00532192
5.28833e-06
-0.00588234
6.29419e-06
-0.00644271
7.2924e-06
-0.00700329
8.26034e-06
-0.00756372
9.15221e-06
-0.00812453
9.93353e-06
-0.00868497
1.05612e-05
-0.00924611
1.09716e-05
-0.00980657
1.11439e-05
-0.0103682
1.09668e-05
-0.0109285
1.0465e-05
-0.0114911
9.45484e-06
-0.0120509
8.0567e-06
-0.0126148
5.96992e-06
-0.0131736
3.49145e-06
-0.000280112
-0.000840362
7.19261e-08
-0.0014006
2.86967e-07
-0.00196094
6.40692e-07
-0.00252116
1.12744e-06
-0.00308158
1.73532e-06
-0.0036418
2.45498e-06
-0.00420224
3.26583e-06
-0.00476254
4.15505e-06
-0.00532292
5.09231e-06
-0.00588334
6.0606e-06
-0.00644367
7.02125e-06
-0.00700419
7.95349e-06
-0.0075645
8.81322e-06
-0.00812515
9.56881e-06
-0.00868538
1.01805e-05
-0.00924628
1.05855e-05
-0.00980638
1.07663e-05
-0.0103677
1.0609e-05
-0.0109275
1.01456e-05
-0.0114897
9.17852e-06
-0.0120488
7.83464e-06
-0.0126123
5.79067e-06
-0.0131701
3.31822e-06
-0.000280184
-0.000840577
6.9153e-08
-0.00140095
2.7591e-07
-0.00196142
6.16015e-07
-0.00252177
1.08404e-06
-0.0030823
1.66842e-06
-0.00364261
2.36017e-06
-0.00420313
3.13917e-06
-0.00476347
3.99328e-06
-0.00532389
4.89304e-06
-0.0058843
5.82223e-06
-0.00644461
6.74311e-06
-0.00700505
7.6364e-06
-0.00756525
8.45966e-06
-0.00812576
9.18368e-06
-0.00868578
9.77258e-06
-0.00924646
1.01643e-05
-0.00980622
1.03466e-05
-0.0103673
1.02029e-05
-0.0109265
9.78109e-06
-0.0114883
8.86583e-06
-0.0120468
7.60764e-06
-0.0126099
5.64606e-06
-0.0131668
3.29431e-06
-0.000280253
-0.000840784
6.63077e-08
-0.00140129
2.64573e-07
-0.00196189
5.90717e-07
-0.00252235
1.03955e-06
-0.00308299
1.59978e-06
-0.00364339
2.26282e-06
-0.00420399
3.00897e-06
-0.00476437
3.8268e-06
-0.00532482
4.68771e-06
-0.00588522
5.57612e-06
-0.0064455
6.45521e-06
-0.00700587
7.30666e-06
-0.00756597
8.0898e-06
-0.00812635
8.7769e-06
-0.00868617
9.33607e-06
-0.00924664
9.70509e-06
-0.00980608
9.87755e-06
-0.0103669
9.73452e-06
-0.0109256
9.34414e-06
-0.0114871
8.47179e-06
-0.0120448
7.30396e-06
-0.0126075
5.43571e-06
-0.0131635
3.23017e-06
-0.00028032
-0.000840982
6.33239e-08
-0.00140162
2.52678e-07
-0.00196234
5.64175e-07
-0.00252291
9.92843e-07
-0.00308365
1.52769e-06
-0.00364413
2.16047e-06
-0.0042048
2.87197e-06
-0.00476523
3.65151e-06
-0.0053257
4.47124e-06
-0.0058861
5.3166e-06
-0.00644635
6.151e-06
-0.00700666
6.95804e-06
-0.00756666
7.69691e-06
-0.0081269
8.34359e-06
-0.00868654
8.86537e-06
-0.00924682
9.20551e-06
-0.00980594
9.3535e-06
-0.0103665
9.20091e-06
-0.0109247
8.81897e-06
-0.0114859
7.97847e-06
-0.0120429
6.87691e-06
-0.0126053
5.10277e-06
-0.0131603
3.04846e-06
-0.000280383
-0.000841172
6.04575e-08
-0.00140193
2.41246e-07
-0.00196277
5.38672e-07
-0.00252344
9.4801e-07
-0.00308428
1.45851e-06
-0.00364484
2.06236e-06
-0.00420558
2.7407e-06
-0.00476605
3.48388e-06
-0.00532655
4.26458e-06
-0.00588694
5.06973e-06
-0.00644716
5.8624e-06
-0.0070074
6.62916e-06
-0.00756731
7.32748e-06
-0.00812741
7.93921e-06
-0.00868688
8.42671e-06
-0.00924696
8.74356e-06
-0.0098058
8.86647e-06
-0.0103661
8.70823e-06
-0.0109239
8.32373e-06
-0.0114848
7.5144e-06
-0.0120411
6.45433e-06
-0.0126032
4.76256e-06
-0.0131573
2.82252e-06
-0.000280444
-0.000841352
5.79214e-08
-0.00140223
2.31145e-07
-0.00196318
5.16179e-07
-0.00252396
9.08538e-07
-0.00308489
1.39774e-06
-0.00364552
1.97635e-06
-0.00420632
2.62607e-06
-0.00476683
3.338e-06
-0.00532735
4.08596e-06
-0.00588773
4.85753e-06
-0.00644793
5.61714e-06
-0.0070081
6.35184e-06
-0.00756792
7.0215e-06
-0.0081279
7.6079e-06
-0.0086872
8.07703e-06
-0.00924709
8.38051e-06
-0.00980565
8.49953e-06
-0.0103657
8.34327e-06
-0.0109231
7.97717e-06
-0.0114837
7.19614e-06
-0.0120394
6.19614e-06
-0.0126013
4.56112e-06
-0.0131545
2.74678e-06
-0.000280502
-0.000841526
5.5185e-08
-0.00140251
2.20252e-07
-0.00196357
4.91913e-07
-0.00252444
8.65951e-07
-0.00308546
1.33214e-06
-0.00364617
1.88349e-06
-0.00420703
2.50227e-06
-0.00476758
3.18039e-06
-0.00532812
3.8929e-06
-0.00588849
4.62801e-06
-0.00644866
5.35183e-06
-0.00700877
6.05159e-06
-0.00756851
6.6902e-06
-0.00812836
7.24874e-06
-0.00868749
7.69802e-06
-0.00924721
7.98689e-06
-0.00980551
8.10456e-06
-0.0103653
7.95195e-06
-0.0109223
7.60553e-06
-0.0114827
6.84882e-06
-0.0120378
5.89744e-06
-0.0125994
4.31214e-06
-0.0131517
2.66672e-06
-0.000280557
-0.000841691
5.22218e-08
-0.00140279
2.08453e-07
-0.00196394
4.65635e-07
-0.00252491
8.19835e-07
-0.00308602
1.26113e-06
-0.00364679
1.78301e-06
-0.00420771
2.36839e-06
-0.00476829
3.00999e-06
-0.00532886
3.68415e-06
-0.00588922
4.37981e-06
-0.00644936
5.06494e-06
-0.00700941
5.72686e-06
-0.00756907
6.33167e-06
-0.0081288
6.85954e-06
-0.00868778
7.28646e-06
-0.00924733
7.55903e-06
-0.00980536
7.67717e-06
-0.010365
7.53208e-06
-0.0109215
7.21393e-06
-0.0114818
6.4848e-06
-0.0120362
5.5775e-06
-0.0125978
4.0115e-06
-0.0131491
2.47223e-06
-0.000280609
-0.000841848
4.90068e-08
-0.00140304
1.95658e-07
-0.0019643
4.3714e-07
-0.00252535
7.69859e-07
-0.00308654
1.18423e-06
-0.00364737
1.6743e-06
-0.00420835
2.2237e-06
-0.00476896
2.82598e-06
-0.00532955
3.45885e-06
-0.0058899
4.11197e-06
-0.00645003
4.75566e-06
-0.00701002
5.37685e-06
-0.0075696
5.9455e-06
-0.00812922
6.43977e-06
-0.00868804
6.84219e-06
-0.00924744
7.09539e-06
-0.00980522
7.21352e-06
-0.0103647
7.07579e-06
-0.0109208
6.79572e-06
-0.0114809
6.1011e-06
-0.0120346
5.28685e-06
-0.0125963
4.00466e-06
-0.0131466
2.32408e-06
-0.000280658
-0.000841994
4.55193e-08
-0.00140329
1.81777e-07
-0.00196463
4.06243e-07
-0.00252577
7.1569e-07
-0.00308703
1.10094e-06
-0.00364792
1.55671e-06
-0.00420895
2.06739e-06
-0.00476959
2.6274e-06
-0.0053302
3.21596e-06
-0.00589055
3.82336e-06
-0.00645065
4.42288e-06
-0.00701059
5.00044e-06
-0.0075701
5.53093e-06
-0.00812963
5.98886e-06
-0.00868828
6.36591e-06
-0.00924756
6.59714e-06
-0.00980508
6.71372e-06
-0.0103644
6.57808e-06
-0.0109201
6.33086e-06
-0.01148
5.66094e-06
-0.0120331
4.96735e-06
-0.0125948
3.64096e-06
-0.0131443
2.16181e-06
-0.000280704
-0.000842131
4.17489e-08
-0.00140351
1.66767e-07
-0.00196494
3.72821e-07
-0.00252615
6.57105e-07
-0.00308748
1.01092e-06
-0.00364843
1.42974e-06
-0.00420951
1.89876e-06
-0.00477018
2.41337e-06
-0.00533081
2.95445e-06
-0.00589115
3.51282e-06
-0.00645123
4.06549e-06
-0.00701112
4.59633e-06
-0.00757056
5.08682e-06
-0.00813
5.50542e-06
-0.00868851
5.85759e-06
-0.00924767
6.06562e-06
-0.00980494
6.18322e-06
-0.0103641
6.04495e-06
-0.0109195
5.8295e-06
-0.0114793
5.15122e-06
-0.0120318
4.61017e-06
-0.0125933
3.33331e-06
-0.0131421
1.98283e-06
-0.000280746
-0.000842256
3.77055e-08
-0.00140372
1.50644e-07
-0.00196522
3.36879e-07
-0.0025265
5.94045e-07
-0.0030879
9.14034e-07
-0.0036489
1.29315e-06
-0.00421003
1.71745e-06
-0.00477072
2.1833e-06
-0.00533137
2.67361e-06
-0.0058917
3.17946e-06
-0.00645176
3.68268e-06
-0.00701162
4.16348e-06
-0.00757098
4.61251e-06
-0.00813036
4.98784e-06
-0.0086887
5.31615e-06
-0.00924779
5.49887e-06
-0.00980481
5.62282e-06
-0.0103639
5.47871e-06
-0.0109187
5.34516e-06
-0.0114789
4.98157e-06
-0.0120305
4.10612e-06
-0.012592
3.02247e-06
-0.0131402
1.7904e-06
-0.000280784
-0.000842369
3.34145e-08
-0.0014039
1.33485e-07
-0.00196548
2.98537e-07
-0.00252682
5.26684e-07
-0.00308828
8.10433e-07
-0.00364933
1.14715e-06
-0.0042105
1.52363e-06
-0.00477121
1.93725e-06
-0.00533187
2.37335e-06
-0.0058922
2.82287e-06
-0.00645224
3.27415e-06
-0.00701207
3.70134e-06
-0.00757135
4.10838e-06
-0.00813069
4.4354e-06
-0.00868888
4.743e-06
-0.00924792
4.89401e-06
-0.00980466
5.03245e-06
-0.0103637
4.84199e-06
-0.0109181
4.82392e-06
-0.0114783
4.36175e-06
-0.0120295
3.66203e-06
-0.0125907
2.71666e-06
-0.0131384
1.60785e-06
-0.000280817
-0.00084247
2.88916e-08
-0.00140407
1.15361e-07
-0.00196571
2.57953e-07
-0.00252711
4.55293e-07
-0.00308862
7.00536e-07
-0.00364971
9.92338e-07
-0.00421091
1.31819e-06
-0.00477165
1.67619e-06
-0.00533232
2.05464e-06
-0.00589265
2.44355e-06
-0.00645267
2.84077e-06
-0.00701248
3.2097e-06
-0.00757169
3.5765e-06
-0.00813099
3.84788e-06
-0.00868902
4.14411e-06
-0.00924806
4.25316e-06
-0.00980442
4.43736e-06
-0.0103637
4.53742e-06
-0.0109176
4.15969e-06
-0.0114776
3.76548e-06
-0.0120285
3.19932e-06
-0.0125896
2.38577e-06
-0.0131368
1.41127e-06
-0.000280846
-0.000842557
2.40993e-08
-0.00140421
9.62782e-08
-0.0019659
2.15272e-07
-0.00252735
3.80298e-07
-0.00308891
5.85123e-07
-0.00365003
8.29849e-07
-0.00421127
1.10255e-06