/*--------------------------------*- C++ -*----------------------------------*\
  =========                 |
  \\      /  F ield         | OpenFOAM: The Open Source CFD Toolbox
   \\    /   O peration     | Website:  https://openfoam.org
    \\  /    A nd           | Version:  10
     \\/     M anipulation  |
\*---------------------------------------------------------------------------*/
FoamFile
{
    format      ascii;
    class       volScalarField;
    location    "0.23";
    object      rho;
}
// * * * * * * * * * * * * * * * * * * * * * * * * * * * * * * * * * * * * * //

dimensions      [1 -3 0 0 0 0 0];

internalField   nonuniform List<scalar> 
4176
(
0.0308491
0.0308521
0.0308583
0.0308687
0.0308818
0.0308982
0.0309191
0.0309405
0.0309698
0.030996
0.0310327
0.0310652
0.0311073
0.0311481
0.0311929
0.0312443
0.0312875
0.0313553
0.0313937
0.0314794
0.0315111
0.0316165
0.0316369
0.0317507
0.0308571
0.03086
0.0308652
0.0308751
0.0308862
0.0309019
0.0309196
0.0309403
0.0309653
0.0309903
0.0310224
0.0310527
0.0310903
0.0311275
0.0311685
0.0312144
0.0312545
0.0313147
0.0313503
0.031427
0.0314542
0.0315545
0.0315755
0.0317039
0.0308764
0.0308793
0.0308848
0.030895
0.0309066
0.0309228
0.0309414
0.0309625
0.0309889
0.0310144
0.0310481
0.0310791
0.0311186
0.0311567
0.0312
0.0312471
0.0312895
0.0313523
0.031388
0.0314685
0.0314958
0.0315949
0.031614
0.0317346
0.0309051
0.030908
0.0309133
0.0309232
0.0309345
0.0309502
0.0309683
0.0309888
0.0310146
0.0310391
0.0310723
0.031102
0.0311411
0.0311775
0.0312205
0.0312657
0.0313078
0.0313707
0.0314018
0.0314846
0.0315095
0.0316072
0.0316252
0.0317369
0.0309445
0.0309474
0.0309527
0.0309627
0.0309739
0.0309897
0.0310076
0.0310283
0.0310538
0.0310787
0.0311116
0.0311416
0.0311804
0.031217
0.0312601
0.0313047
0.0313487
0.0314085
0.0314433
0.0315239
0.0315506
0.0316478
0.0316673
0.0317806
0.030994
0.0309969
0.031002
0.031012
0.0310229
0.0310386
0.0310561
0.0310767
0.0311017
0.0311265
0.0311586
0.0311885
0.0312266
0.0312627
0.0313054
0.031349
0.0313935
0.0314503
0.0314884
0.0315651
0.0315926
0.0316887
0.031709
0.0318239
0.0310539
0.0310568
0.0310619
0.0310717
0.0310825
0.0310981
0.0311155
0.0311359
0.0311607
0.0311852
0.0312171
0.0312466
0.0312845
0.0313202
0.0313627
0.0314056
0.0314503
0.0315054
0.0315445
0.0316192
0.031648
0.0317425
0.0317631
0.031876
0.031124
0.0311269
0.0311319
0.0311417
0.0311523
0.0311678
0.0311849
0.0312051
0.0312295
0.0312537
0.0312852
0.0313144
0.0313518
0.0313869
0.0314292
0.0314711
0.0315159
0.0315692
0.0316094
0.0316815
0.0317113
0.0318043
0.0318253
0.031937
0.0312045
0.0312073
0.0312123
0.031222
0.0312325
0.0312478
0.0312647
0.0312847
0.0313088
0.0313327
0.0313638
0.0313926
0.0314296
0.0314641
0.0315061
0.0315472
0.0315919
0.0316435
0.0316846
0.0317542
0.0317851
0.0318761
0.0318976
0.0320075
0.0312953
0.0312982
0.031303
0.0313127
0.031323
0.0313382
0.0313547
0.0313745
0.0313982
0.0314219
0.0314525
0.0314808
0.0315174
0.0315513
0.0315929
0.0316331
0.0316777
0.0317276
0.0317695
0.0318366
0.0318689
0.0319567
0.0319791
0.0320872
0.0313966
0.0313994
0.0314042
0.0314137
0.0314239
0.0314389
0.0314552
0.0314747
0.0314981
0.0315214
0.0315516
0.0315794
0.0316156
0.0316487
0.0316899
0.0317292
0.0317735
0.031822
0.0318643
0.0319291
0.0319619
0.0320477
0.0320703
0.0321764
0.0315083
0.0315111
0.0315158
0.0315253
0.0315352
0.03155
0.031566
0.0315853
0.0316083
0.0316312
0.0316609
0.0316882
0.0317239
0.0317563
0.031797
0.0318353
0.0318794
0.0319264
0.0319691
0.0320314
0.0320648
0.0321484
0.0321711
0.0322752
0.0316306
0.0316334
0.0316379
0.0316473
0.031657
0.0316716
0.0316873
0.0317063
0.0317289
0.0317514
0.0317807
0.0318074
0.0318426
0.0318743
0.0319144
0.0319517
0.0319954
0.0320409
0.0320839
0.0321438
0.0321779
0.0322587
0.0322816
0.0323835
0.0317635
0.0317662
0.0317707
0.03178
0.0317894
0.0318038
0.0318192
0.0318378
0.03186
0.0318821
0.0319108
0.031937
0.0319716
0.0320025
0.0320421
0.0320784
0.0321215
0.0321656
0.0322087
0.0322662
0.0323007
0.0323792
0.032402
0.0325014
0.0319071
0.0319098
0.0319142
0.0319233
0.0319325
0.0319467
0.0319617
0.03198
0.0320017
0.0320233
0.0320515
0.0320771
0.032111
0.0321411
0.0321801
0.0322153
0.032258
0.0323005
0.0323436
0.0323987
0.0324338
0.0325094
0.0325323
0.0326292
0.0320615
0.0320642
0.0320684
0.0320774
0.0320864
0.0321003
0.0321149
0.0321328
0.032154
0.0321751
0.0322027
0.0322276
0.0322609
0.0322902
0.0323285
0.0323627
0.0324047
0.0324457
0.0324886
0.0325413
0.0325767
0.0326496
0.0326729
0.0327669
0.0322267
0.0322294
0.0322336
0.0322424
0.0322511
0.0322647
0.0322789
0.0322964
0.0323171
0.0323376
0.0323646
0.0323888
0.0324214
0.0324498
0.0324874
0.0325204
0.0325618
0.0326013
0.0326438
0.0326942
0.03273
0.0327997
0.0328235
0.0329146
0.032403
0.0324056
0.0324097
0.0324183
0.0324268
0.0324401
0.0324539
0.0324709
0.032491
0.0325109
0.0325372
0.0325607
0.0325925
0.03262
0.0326568
0.0326886
0.0327293
0.0327673
0.0328093
0.0328573
0.0328934
0.0329602
0.0329842
0.0330724
0.0325903
0.032593
0.0325968
0.0326053
0.0326135
0.0326265
0.0326398
0.0326564
0.0326759
0.0326952
0.0327208
0.0327434
0.0327744
0.0328009
0.0328368
0.0328675
0.0329073
0.0329438
0.0329852
0.0330309
0.0330671
0.0331309
0.0331552
0.0332403
0.0327889
0.0327915
0.0327952
0.0328035
0.0328113
0.032824
0.0328368
0.0328529
0.0328718
0.0328904
0.0329152
0.0329371
0.0329671
0.0329926
0.0330276
0.033057
0.0330959
0.0331308
0.0331716
0.0332149
0.0332512
0.0333119
0.0333365
0.0334184
0.0329988
0.0330013
0.0330049
0.033013
0.0330204
0.0330327
0.0330451
0.0330606
0.0330788
0.0330968
0.0331208
0.0331417
0.0331709
0.0331953
0.0332293
0.0332573
0.0332953
0.0333285
0.0333686
0.0334095
0.0334458
0.0335034
0.0335282
0.0336068
0.0332201
0.0332226
0.033226
0.0332338
0.0332409
0.0332528
0.0332646
0.0332796
0.0332971
0.0333143
0.0333375
0.0333575
0.0333857
0.033409
0.0334419
0.0334686
0.0335055
0.0335371
0.0335762
0.0336148
0.0336511
0.0337054
0.0337304
0.0338056
0.0334529
0.0334553
0.0334585
0.0334661
0.0334729
0.0334844
0.0334956
0.03351
0.0335267
0.0335432
0.0335654
0.0335845
0.0336117
0.0336338
0.0336657
0.033691
0.0337268
0.0337565
0.0337947
0.0338311
0.033867
0.033918
0.0339432
0.0340148
0.0336973
0.0336997
0.0337027
0.0337101
0.0337164
0.0337274
0.033738
0.0337518
0.0337678
0.0337834
0.0338048
0.0338228
0.033849
0.0338699
0.0339007
0.0339245
0.0339591
0.0339871
0.0340242
0.0340582
0.0340938
0.0341415
0.0341667
0.0342346
0.0339533
0.0339557
0.0339585
0.0339656
0.0339715
0.0339822
0.0339921
0.0340053
0.0340204
0.0340352
0.0340556
0.0340726
0.0340977
0.0341173
0.0341469
0.0341693
0.0342027
0.0342288
0.0342649
0.0342965
0.0343317
0.0343759
0.034401
0.034465
0.0342212
0.0342235
0.0342261
0.034233
0.0342384
0.0342486
0.034258
0.0342704
0.0342848
0.0342986
0.0343181
0.034334
0.034358
0.0343763
0.0344047
0.0344254
0.0344577
0.0344819
0.0345168
0.034546
0.0345806
0.0346215
0.0346463
0.0347066
0.0345008
0.0345031
0.0345055
0.0345122
0.0345172
0.0345269
0.0345356
0.0345474
0.0345609
0.0345739
0.0345923
0.034607
0.0346299
0.0346468
0.0346739
0.0346931
0.0347241
0.0347464
0.0347801
0.034807
0.0348408
0.0348781
0.0349029
0.0349595
0.0347925
0.0347947
0.0347969
0.0348033
0.0348079
0.0348171
0.0348251
0.0348363
0.0348489
0.0348609
0.0348783
0.0348919
0.0349135
0.0349291
0.0349549
0.0349725
0.0350021
0.0350225
0.0350549
0.0350794
0.0351121
0.0351462
0.0351708
0.0352235
0.0350961
0.0350983
0.0351003
0.0351064
0.0351105
0.0351193
0.0351267
0.0351371
0.0351488
0.03516
0.0351763
0.0351887
0.0352091
0.0352232
0.0352477
0.0352636
0.0352918
0.0353103
0.0353414
0.0353635
0.0353953
0.0354256
0.0354506
0.0354983
0.0354119
0.035414
0.0354158
0.0354216
0.0354253
0.0354336
0.0354403
0.03545
0.0354609
0.0354711
0.0354863
0.0354976
0.0355167
0.0355294
0.0355525
0.0355667
0.0355934
0.0356099
0.0356396
0.0356593
0.0356899
0.0357168
0.0357418
0.0357848
0.0357399
0.0357419
0.0357435
0.0357491
0.0357523
0.0357601
0.0357661
0.0357751
0.0357851
0.0357944
0.0358086
0.0358186
0.0358365
0.0358478
0.0358695
0.0358819
0.0359071
0.0359215
0.0359497
0.035967
0.0359965
0.0360199
0.0360442
0.0360837
0.0360802
0.0360822
0.0360836
0.0360888
0.0360916
0.0360989
0.0361042
0.0361125
0.0361216
0.0361299
0.036143
0.0361519
0.0361686
0.0361783
0.0361987
0.0362093
0.0362331
0.0362453
0.036272
0.0362868
0.0363149
0.0363352
0.0363592
0.0363941
0.0364329
0.0364348
0.036436
0.036441
0.0364433
0.0364501
0.0364547
0.0364623
0.0364705
0.0364778
0.0364899
0.0364975
0.036513
0.0365213
0.0365402
0.0365491
0.0365714
0.0365815
0.0366066
0.0366188
0.0366456
0.0366626
0.0366864
0.0367165
0.036798
0.0367999
0.0368009
0.0368056
0.0368074
0.0368138
0.0368177
0.0368245
0.0368318
0.0368382
0.0368492
0.0368556
0.0368698
0.0368767
0.0368942
0.0369014
0.0369221
0.0369302
0.0369538
0.0369633
0.0369886
0.0370023
0.0370258
0.0370512
0.0371757
0.0371775
0.0371783
0.0371828
0.0371841
0.03719
0.0371932
0.0371994
0.0372058
0.0372112
0.0372211
0.0372263
0.0372393
0.0372446
0.0372608
0.0372662
0.0372855
0.0372914
0.0373135
0.0373205
0.0373444
0.0373546
0.0373775
0.0373982
0.0375661
0.0375678
0.0375684
0.0375726
0.0375735
0.0375789
0.0375815
0.0375869
0.0375924
0.0375969
0.0376057
0.0376097
0.0376214
0.0376253
0.0376401
0.0376436
0.0376615
0.0376653
0.0376859
0.0376903
0.0377128
0.0377199
0.0377418
0.0377577
0.0379691
0.0379709
0.0379712
0.0379752
0.0379757
0.0379806
0.0379825
0.0379873
0.0379919
0.0379955
0.0380031
0.038006
0.0380164
0.0380188
0.0380322
0.0380339
0.0380503
0.0380519
0.0380712
0.0380729
0.0380942
0.038098
0.0381187
0.03813
0.0383851
0.0383868
0.038387
0.0383907
0.0383907
0.0383952
0.0383964
0.0384006
0.0384043
0.0384069
0.0384135
0.0384152
0.0384243
0.0384252
0.0384372
0.0384371
0.038452
0.0384514
0.0384692
0.0384684
0.0384882
0.0384891
0.0385086
0.0385151
0.038814
0.0388157
0.0388156
0.0388191
0.0388187
0.0388228
0.0388234
0.0388268
0.0388297
0.0388314
0.038837
0.0388374
0.0388453
0.0388447
0.0388553
0.0388534
0.0388668
0.038864
0.0388803
0.0388768
0.0388954
0.0388929
0.0389116
0.0389133
0.0392561
0.0392577
0.0392575
0.0392607
0.0392599
0.0392635
0.0392634
0.0392662
0.0392682
0.039269
0.0392735
0.0392728
0.0392795
0.0392774
0.0392866
0.0392829
0.0392949
0.0392897
0.0393046
0.0392983
0.0393154
0.0393099
0.0393274
0.039325
0.0397113
0.0397129
0.0397125
0.0397155
0.0397142
0.0397174
0.0397167
0.0397188
0.0397199
0.0397198
0.0397233
0.0397214
0.0397269
0.0397234
0.0397312
0.0397257
0.0397362
0.0397288
0.0397422
0.0397331
0.0397489
0.0397399
0.0397562
0.0397502
0.04018
0.0401815
0.0401809
0.0401837
0.040182
0.0401847
0.0401833
0.0401848
0.040185
0.040184
0.0401865
0.0401834
0.0401877
0.0401827
0.0401892
0.0401818
0.040191
0.0401813
0.0401934
0.0401814
0.0401957
0.0401834
0.0401986
0.0401881
0.0406621
0.0406636
0.0406628
0.0406653
0.0406632
0.0406655
0.0406634
0.0406642
0.0406636
0.0406616
0.040663
0.0406588
0.0406619
0.0406554
0.0406606
0.0406514
0.0406593
0.0406472
0.040658
0.0406432
0.0406565
0.0406403
0.0406546
0.0406396
0.0411578
0.0411593
0.0411582
0.0411605
0.0411579
0.0411598
0.041157
0.0411572
0.0411557
0.0411528
0.0411532
0.0411477
0.0411496
0.0411416
0.0411455
0.0411345
0.041141
0.0411267
0.0411362
0.0411185
0.0411307
0.041111
0.0411246
0.0411048
0.0416672
0.0416686
0.0416674
0.0416694
0.0416664
0.0416678
0.0416643
0.0416638
0.0416614
0.0416576
0.0416569
0.0416503
0.0416509
0.0416415
0.041644
0.0416312
0.0416363
0.0416198
0.041628
0.0416075
0.0416188
0.0415954
0.0416082
0.0415841
0.0421903
0.0421917
0.0421903
0.0421921
0.0421886
0.0421895
0.0421854
0.0421842
0.0421809
0.0421762
0.0421744
0.0421666
0.042166
0.0421551
0.0421562
0.0421416
0.0421454
0.0421265
0.0421335
0.04211
0.0421205
0.0420933
0.0421058
0.0420768
0.0427273
0.0427286
0.042727
0.0427286
0.0427246
0.0427251
0.0427202
0.0427184
0.0427142
0.0427085
0.0427057
0.0426966
0.0426948
0.0426824
0.0426822
0.0426657
0.0426682
0.042647
0.0426528
0.0426263
0.042636
0.0426048
0.0426176
0.0425831
0.043278
0.0432794
0.0432775
0.0432789
0.0432744
0.0432745
0.0432689
0.0432664
0.0432613
0.0432547
0.0432508
0.0432405
0.0432375
0.0432236
0.0432221
0.0432036
0.0432049
0.0431812
0.043186
0.0431563
0.0431653
0.0431296
0.0431434
0.0431036
0.0438427
0.043844
0.0438419
0.043843
0.0438381
0.0438377
0.0438315
0.0438282
0.0438222
0.0438147
0.0438098
0.0437983
0.0437941
0.0437786
0.0437759
0.0437554
0.0437555
0.0437293
0.0437332
0.0437002
0.0437087
0.0436686
0.0436827
0.0436379
0.0444211
0.0444224
0.0444201
0.044421
0.0444156
0.0444148
0.0444079
0.0444039
0.0443971
0.0443886
0.0443826
0.0443699
0.0443645
0.0443475
0.0443436
0.0443211
0.0443201
0.0442913
0.0442944
0.0442579
0.0442666
0.0442219
0.0442356
0.0441863
0.0450133
0.0450146
0.0450121
0.0450127
0.0450069
0.0450057
0.0449981
0.0449935
0.0449857
0.0449763
0.0449693
0.0449554
0.0449489
0.0449303
0.0449254
0.0449006
0.0448988
0.0448672
0.0448696
0.0448289
0.0448393
0.0447887
0.0448029
0.0447489
0.0456192
0.0456204
0.0456178
0.0456181
0.0456119
0.0456102
0.045602
0.0455967
0.0455882
0.0455778
0.0455699
0.0455546
0.0455472
0.0455269
0.045521
0.045494
0.0454916
0.0454568
0.0454593
0.0454145
0.0454247
0.0453707
0.045384
0.0453258
0.0462386
0.0462398
0.046237
0.0462372
0.0462304
0.0462284
0.0462195
0.0462137
0.0462043
0.046193
0.0461842
0.0461676
0.0461594
0.0461372
0.0461306
0.0461011
0.0460985
0.0460597
0.046064
0.0460145
0.0460239
0.0459664
0.0459794
0.0459169
0.0468714
0.0468726
0.0468696
0.0468696
0.0468624
0.0468601
0.0468505
0.0468441
0.046834
0.0468217
0.0468122
0.0467942
0.0467853
0.0467611
0.0467543
0.046722
0.0467197
0.0466774
0.046681
0.0466286
0.0466373
0.0465768
0.0465888
0.0465223
0.0475175
0.0475187
0.0475155
0.0475153
0.0475077
0.0475051
0.0474949
0.0474879
0.0474771
0.0474639
0.0474538
0.0474342
0.0474252
0.0473985
0.047392
0.0473567
0.0473545
0.0473092
0.0473117
0.0472572
0.0472647
0.0472011
0.0472125
0.047142
0.0481766
0.0481778
0.0481744
0.0481741
0.0481661
0.0481632
0.0481525
0.0481449
0.0481336
0.0481192
0.048109
0.0480874
0.0480788
0.048049
0.0480436
0.0480048
0.0480025
0.047955
0.0479568
0.0478997
0.0479061
0.0478397
0.0478503
0.0477761
0.0488485
0.0488498
0.0488462
0.0488459
0.0488374
0.0488343
0.048823
0.0488147
0.0488033
0.0487874
0.0487777
0.0487535
0.0487457
0.0487137
0.0487074
0.0486675
0.048664
0.0486151
0.0486151
0.0485563
0.0485614
0.0484923
0.0485022
0.0484244
0.049533
0.0495344
0.0495304
0.0495303
0.0495213
0.0495182
0.0495063
0.0494973
0.0494862
0.0494686
0.049459
0.0494337
0.0494248
0.0493923
0.0493845
0.0493438
0.0493387
0.0492883
0.0492875
0.0492265
0.0492306
0.0491591
0.0491681
0.0490868
0.0502299
0.0502314
0.0502271
0.0502272
0.0502175
0.0502146
0.050202
0.0501929
0.050181
0.0501632
0.0501527
0.0501269
0.050117
0.0500836
0.050075
0.050033
0.0500269
0.0499755
0.049973
0.0499105
0.0499136
0.0498396
0.049848
0.0497634
0.050939
0.0509405
0.0509362
0.0509361
0.0509264
0.0509231
0.0509099
0.0509015
0.0508881
0.0508703
0.0508591
0.0508326
0.050822
0.0507881
0.0507783
0.0507356
0.0507282
0.0506756
0.0506723
0.0506081
0.05061
0.0505339
0.0505415
0.0504539
0.0516601
0.0516617
0.0516574
0.0516571
0.0516473
0.0516439
0.0516302
0.051622
0.0516071
0.0515903
0.0515776
0.051551
0.0515396
0.0515051
0.0514945
0.0514507
0.0514426
0.051389
0.0513844
0.0513189
0.0513199
0.0512416
0.0512486
0.0511581
0.0523931
0.0523946
0.0523904
0.05239
0.0523801
0.0523766
0.0523626
0.0523544
0.0523386
0.0523224
0.0523079
0.0522822
0.0522695
0.0522345
0.0522231
0.0521788
0.0521696
0.0521151
0.0521094
0.0520427
0.0520426
0.0519628
0.0519688
0.0518758
0.0531378
0.0531394
0.0531351
0.0531347
0.0531247
0.0531211
0.0531069
0.0530986
0.0530822
0.0530663
0.0530505
0.0530255
0.0530115
0.0529761
0.0529642
0.0529191
0.0529091
0.0528536
0.0528471
0.0527793
0.0527782
0.0526966
0.0527021
0.0526066
0.0538942
0.0538958
0.0538915
0.0538911
0.053881
0.0538774
0.0538629
0.0538546
0.0538376
0.053822
0.0538053
0.0537805
0.0537652
0.0537302
0.0537171
0.0536714
0.0536608
0.0536044
0.0535969
0.0535281
0.0535262
0.0534432
0.0534479
0.0533502
0.0546622
0.0546639
0.0546596
0.0546592
0.0546489
0.0546453
0.0546306
0.0546222
0.0546048
0.0545893
0.0545718
0.0545471
0.0545306
0.054496
0.0544818
0.0544356
0.0544242
0.0543671
0.0543586
0.054289
0.0542861
0.0542017
0.0542059
0.0541062
0.055442
0.0554437
0.0554393
0.055439
0.0554285
0.0554249
0.0554099
0.0554014
0.0553836
0.0553682
0.0553497
0.0553252
0.0553079
0.0552728
0.0552577
0.0552113
0.0551991
0.0551411
0.055132
0.0550613
0.0550576
0.0549722
0.0549755
0.0548741
0.0562334
0.0562353
0.0562307
0.0562304
0.0562197
0.0562161
0.0562007
0.0561921
0.0561737
0.0561583
0.0561389
0.0561144
0.056096
0.0560609
0.0560448
0.055998
0.055985
0.0559264
0.0559164
0.0558449
0.0558403
0.0557538
0.0557566
0.0556537
0.0570365
0.0570384
0.0570337
0.0570334
0.0570224
0.0570186
0.0570028
0.0569939
0.056975
0.0569594
0.0569389
0.0569146
0.0568951
0.0568596
0.0568427
0.0567954
0.0567817
0.0567221
0.0567117
0.0566392
0.0566339
0.0565465
0.0565486
0.0564444
0.057851
0.057853
0.0578481
0.0578477
0.0578363
0.0578322
0.0578159
0.0578067
0.0577871
0.0577711
0.0577495
0.0577253
0.0577043
0.057669
0.0576506
0.0576032
0.0575888
0.0575285
0.0575171
0.057444
0.0574379
0.0573498
0.0573512
0.057246
0.0586764
0.0586784
0.0586733
0.0586727
0.0586609
0.0586564
0.0586395
0.0586298
0.0586095
0.058593
0.0585703
0.0585462
0.0585234
0.0584886
0.0584683
0.0584212
0.0584057
0.0583445
0.0583328
0.058259
0.0582521
0.0581636
0.0581643
0.0580582
0.0595115
0.0595135
0.0595083
0.0595074
0.0594952
0.0594903
0.0594729
0.0594625
0.0594415
0.0594244
0.0594007
0.0593766
0.059352
0.0593179
0.0592958
0.0592487
0.0592319
0.0591709
0.0591583
0.0590841
0.0590764
0.0589876
0.0589877
0.058881
0.0603548
0.0603569
0.0603515
0.0603504
0.060338
0.0603327
0.0603148
0.060304
0.0602824
0.0602648
0.0602403
0.0602161
0.0601899
0.0601566
0.0601323
0.0600861
0.0600667
0.0600073
0.0599938
0.0599191
0.0599108
0.0598218
0.0598213
0.0597143
0.0612043
0.0612064
0.0612011
0.0611998
0.0611874
0.0611819
0.061164
0.0611529
0.0611311
0.0611132
0.0610883
0.061064
0.0610367
0.0610041
0.0609778
0.0609333
0.060912
0.0608532
0.0608385
0.0607642
0.0607552
0.0606664
0.0606655
0.0605584
0.0620577
0.0620598
0.0620547
0.0620537
0.0620415
0.0620363
0.0620186
0.0620078
0.0619863
0.0619686
0.0619438
0.0619199
0.0618921
0.0618604
0.0618327
0.0617897
0.0617666
0.0617089
0.0616925
0.06162
0.0616101
0.0615216
0.0615204
0.0614135
0.0629131
0.0629153
0.0629106
0.0629101
0.0628985
0.0628941
0.0628772
0.0628673
0.0628466
0.06283
0.0628059
0.062783
0.0627555
0.0627252
0.0626968
0.0626558
0.0626309
0.0625757
0.0625566
0.0624866
0.0624757
0.0623875
0.0623864
0.0622799
0.0637696
0.0637721
0.0637679
0.0637682
0.0637575
0.0637543
0.0637387
0.0637303
0.0637112
0.0636962
0.0636737
0.0636525
0.0636264
0.0635978
0.0635701
0.0635311
0.0635058
0.0634526
0.0634332
0.063363
0.0633528
0.0632647
0.0632637
0.0631575
0.0646281
0.0646309
0.0646274
0.0646286
0.0646191
0.0646174
0.0646034
0.0645969
0.0645798
0.064567
0.0645466
0.0645279
0.0645038
0.0644778
0.0644517
0.0644154
0.0643906
0.0643409
0.0643207
0.0642523
0.0642416
0.0641537
0.0641529
0.0640466
0.065492
0.0654951
0.0654921
0.0654943
0.0654858
0.0654856
0.0654731
0.0654686
0.0654535
0.065443
0.065425
0.0654091
0.0653875
0.0653643
0.0653408
0.0653075
0.0652849
0.0652378
0.0652192
0.0651533
0.0651436
0.0650556
0.065055
0.0649477
0.0663667
0.0663703
0.0663673
0.0663706
0.0663624
0.0663637
0.0663519
0.0663492
0.0663353
0.066327
0.0663107
0.0662973
0.0662777
0.0662574
0.0662373
0.0662056
0.0661878
0.0661417
0.0661281
0.0660627
0.0660574
0.0659704
0.065971
0.0658631
0.0672601
0.0672645
0.0672607
0.0672653
0.0672558
0.0672589
0.0672456
0.0672453
0.0672298
0.067224
0.0672074
0.0671959
0.0671773
0.0671584
0.0671423
0.0671082
0.0670997
0.0670481
0.0670452
0.0669775
0.0669791
0.0668944
0.0668986
0.0667964
0.0681815
0.0681854
0.0681824
0.0681851
0.0681767
0.0681771
0.068165
0.0681615
0.0681472
0.0681387
0.0681225
0.0681099
0.0680905
0.0680735
0.0680548
0.0680237
0.0680147
0.0679652
0.0679637
0.0678978
0.0679029
0.0678203
0.0678292
0.0677347
0.0691392
0.0691428
0.0691392
0.0691409
0.069131
0.0691298
0.0691154
0.0691097
0.0690928
0.0690816
0.0690626
0.0690472
0.0690252
0.0690063
0.0689827
0.0689549
0.0689383
0.0688921
0.0688895
0.0688227
0.0688298
0.0687453
0.0687577
0.0686635
0.0701397
0.070143
0.0701385
0.070139
0.0701269
0.0701234
0.0701059
0.0700969
0.070076
0.0700605
0.0700369
0.0700166
0.0699895
0.0699657
0.0699363
0.0699052
0.0698819
0.0698354
0.0698261
0.0697568
0.0697638
0.0696745
0.0696892
0.0695908
0.0711863
0.0711899
0.0711838
0.0711833
0.0711688
0.0711629
0.0711417
0.0711292
0.0711033
0.0710832
0.0710533
0.0710273
0.0709928
0.0709623
0.0709247
0.0708865
0.0708549
0.0708011
0.0707852
0.0707071
0.0707119
0.0706137
0.0706291
0.0705224
0.072279
0.0722832
0.0722752
0.0722744
0.0722572
0.0722497
0.0722245
0.0722097
0.0721777
0.0721549
0.0721165
0.0720868
0.0720424
0.0720052
0.0719581
0.0719102
0.0718702
0.0718012
0.0717787
0.0716867
0.0716838
0.0715724
0.0715854
0.0714648
0.0734146
0.0734182
0.0734109
0.0734078
0.0733904
0.0733798
0.0733538
0.0733342
0.0733013
0.0732715
0.0732319
0.0731932
0.0731455
0.0730994
0.0730436
0.0729897
0.0729319
0.0728583
0.0728177
0.0727133
0.0726959
0.0725657
0.0725705
0.0724279
0.0745865
0.0745898
0.0745825
0.0745788
0.0745606
0.0745491
0.0745216
0.0745005
0.0744655
0.0744333
0.0743906
0.0743486
0.0742966
0.0742457
0.0741843
0.0741235
0.0740545
0.0739801
0.0739122
0.0738095
0.0737655
0.073618
0.0736062
0.0734304
0.0757866
0.0757898
0.0757826
0.0757788
0.0757604
0.0757487
0.0757208
0.0756992
0.0756634
0.0756304
0.0755867
0.0755432
0.0754898
0.0754367
0.0753728
0.0753088
0.0752358
0.0751574
0.0750788
0.0749783
0.0749048
0.0747601
0.0747212
0.0745078
0.0770063
0.0770094
0.0770025
0.076999
0.0769808
0.0769696
0.0769419
0.0769208
0.0768854
0.0768528
0.0768096
0.0767666
0.0767136
0.0766609
0.0765974
0.0765339
0.0764611
0.076383
0.0763039
0.0762046
0.0761252
0.0759889
0.0759325
0.0757071
0.0782367
0.0782403
0.0782335
0.0782307
0.078213
0.0782027
0.0781757
0.0781558
0.0781215
0.0780904
0.0780486
0.0780073
0.0779561
0.0779055
0.0778443
0.0777833
0.077713
0.0776379
0.077564
0.0774657
0.0773985
0.0772605
0.0772206
0.0770225
0.0794702
0.079474
0.0794677
0.0794656
0.0794486
0.0794395
0.0794137
0.0793954
0.0793626
0.0793335
0.0792937
0.079255
0.0792063
0.0791588
0.0791007
0.0790433
0.0789769
0.0789066
0.0788371
0.0787446
0.078683
0.0785528
0.0785158
0.0783321
0.0806995
0.0807037
0.0806977
0.0806965
0.0806803
0.0806726
0.080648
0.0806317
0.0806007
0.080574
0.0805365
0.0805008
0.080455
0.0804111
0.0803566
0.0803034
0.0802411
0.0801761
0.0801112
0.0800255
0.0799684
0.0798478
0.0798132
0.0796434
0.0819184
0.0819233
0.0819174
0.0819174
0.0819018
0.0818958
0.0818724
0.0818583
0.081829
0.0818052
0.0817698
0.0817378
0.0816946
0.0816549
0.0816038
0.0815553
0.0814974
0.081438
0.0813777
0.0812984
0.0812464
0.0811354
0.0811032
0.080947
0.0831223
0.0831277
0.0831215
0.0831233
0.0831078
0.0831041
0.0830812
0.0830702
0.0830417
0.0830219
0.0829876
0.0829605
0.0829187
0.0828847
0.0828358
0.0827932
0.0827388
0.0826853
0.0826293
0.0825576
0.0825092
0.0824082
0.0823783
0.0822357
0.0843068
0.0843123
0.0843065
0.0843094
0.0842943
0.0842927
0.0842704
0.0842625
0.0842348
0.0842192
0.0841856
0.0841638
0.0841228
0.0840954
0.0840473
0.0840124
0.0839597
0.0839129
0.0838618
0.0837963
0.0837518
0.0836609
0.0836332
0.083504
0.0854682
0.0854738
0.0854688
0.0854717
0.0854587
0.085457
0.0854379
0.08543
0.0854064
0.085391
0.0853624
0.0853414
0.0853058
0.0852802
0.0852374
0.0852059
0.0851579
0.0851172
0.0850692
0.0850107
0.0849705
0.0848893
0.0848635
0.0847473
0.086604
0.0866093
0.086605
0.0866083
0.0865966
0.0865958
0.0865787
0.0865719
0.0865512
0.086537
0.0865125
0.0864927
0.0864621
0.086438
0.086401
0.0863718
0.0863295
0.0862933
0.0862483
0.0861992
0.0861619
0.0860899
0.0860657
0.0859622
0.0877113
0.0877167
0.0877129
0.0877168
0.087706
0.0877063
0.0876908
0.0876855
0.0876671
0.0876548
0.0876332
0.0876156
0.0875889
0.0875673
0.0875348
0.0875089
0.0874711
0.0874396
0.0873988
0.0873576
0.087322
0.0872593
0.0872372
0.0871458
0.0887884
0.0887941
0.0887907
0.088795
0.0887853
0.0887866
0.0887725
0.0887688
0.0887523
0.088742
0.0887231
0.0887079
0.0886844
0.0886657
0.0886372
0.0886147
0.0885813
0.0885542
0.0885178
0.0884831
0.0884485
0.0883963
0.0883759
0.0882962
0.0898344
0.0898398
0.0898368
0.0898418
0.0898327
0.0898352
0.0898223
0.0898202
0.0898056
0.0897971
0.0897807
0.0897678
0.0897475
0.0897315
0.0897066
0.0896875
0.0896581
0.0896352
0.0896029
0.0895738
0.0895423
0.0894982
0.0894806
0.0894114
0.0908475
0.090853
0.0908503
0.0908557
0.0908475
0.0908508
0.0908392
0.0908385
0.0908256
0.090819
0.0908048
0.0907942
0.0907767
0.0907634
0.0907419
0.090726
0.0907005
0.0906814
0.0906533
0.0906293
0.0906007
0.0905653
0.0905487
0.0904901
0.0918272
0.0918327
0.0918302
0.0918362
0.0918286
0.0918329
0.0918224
0.091823
0.0918117
0.0918069
0.0917948
0.0917863
0.0917715
0.0917606
0.0917424
0.0917294
0.0917075
0.0916922
0.0916677
0.0916482
0.0916234
0.091596
0.0915798
0.0915312
0.0927731
0.0927784
0.0927762
0.0927828
0.0927753
0.0927811
0.092771
0.0927734
0.0927633
0.0927602
0.0927501
0.0927436
0.0927312
0.0927228
0.0927074
0.0926974
0.0926788
0.0926668
0.0926462
0.0926309
0.0926095
0.0925883
0.0925742
0.092534
0.0936846
0.0936899
0.0936882
0.093694
0.0936892
0.0936932
0.0936865
0.0936881
0.0936807
0.0936784
0.0936704
0.0936657
0.0936556
0.0936494
0.0936369
0.0936295
0.093614
0.0936054
0.0935878
0.0935766
0.0935589
0.0935428
0.0935302
0.0934986
0.094562
0.0945672
0.0945649
0.0945733
0.0945651
0.0945747
0.094564
0.0945707
0.0945618
0.0945626
0.0945554
0.0945528
0.0945447
0.0945407
0.0945305
0.0945257
0.0945129
0.0945072
0.0944932
0.0944856
0.0944708
0.0944598
0.0944486
0.094425
0.0954049
0.0954099
0.0954095
0.095414
0.0954128
0.0954151
0.0954133
0.0954141
0.0954112
0.0954103
0.0954063
0.0954046
0.0953986
0.0953964
0.0953887
0.0953862
0.0953761
0.0953733
0.0953616
0.0953575
0.0953456
0.0953388
0.0953301
0.0953134
0.0962144
0.0962193
0.0962175
0.0962261
0.0962192
0.0962297
0.0962205
0.0962295
0.0962221
0.0962261
0.0962214
0.0962221
0.0962176
0.0962173
0.0962116
0.0962113
0.0962035
0.0962032
0.0961945
0.0961934
0.0961841
0.0961811
0.0961747
0.0961643
0.0969898
0.0969945
0.0969946
0.0969994
0.096999
0.0970024
0.0970022
0.0970041
0.0970041
0.0970048
0.0970039
0.0970048
0.0970024
0.0970036
0.0969999
0.0970015
0.096996
0.0969982
0.0969915
0.0969935
0.0969867
0.0969876
0.0969833
0.0969781
0.097733
0.0977373
0.0977368
0.0977437
0.0977406
0.0977485
0.0977439
0.0977518
0.0977479
0.0977531
0.0977512
0.0977545
0.0977531
0.0977559
0.0977539
0.0977574
0.0977538
0.097758
0.097754
0.0977585
0.0977539
0.0977582
0.0977558
0.0977556
0.0984432
0.0984476
0.0984478
0.0984535
0.0984524
0.0984585
0.0984576
0.0984622
0.098463
0.0984661
0.0984672
0.0984706
0.0984708
0.0984749
0.0984746
0.0984797
0.0984779
0.0984843
0.0984817
0.0984888
0.0984862
0.0984938
0.0984928
0.0984972
0.0991226
0.0991262
0.0991272
0.099132
0.0991327
0.0991374
0.0991381
0.0991432
0.099144
0.0991487
0.0991501
0.0991548
0.0991562
0.0991615
0.0991625
0.0991691
0.0991689
0.0991767
0.0991764
0.0991856
0.0991846
0.0991949
0.0991953
0.0992037
0.0997706
0.0997747
0.0997751
0.0997809
0.0997803
0.0997872
0.0997866
0.0997933
0.0997942
0.0997999
0.0998019
0.0998077
0.0998099
0.0998165
0.0998187
0.0998266
0.0998277
0.0998376
0.0998382
0.0998494
0.0998499
0.0998629
0.0998643
0.0998763
0.10039
0.100393
0.100394
0.100398
0.1004
0.100405
0.100408
0.100412
0.100416
0.10042
0.100424
0.10043
0.100433
0.100441
0.100444
0.100453
0.100456
0.100466
0.100469
0.100482
0.100483
0.100498
0.100501
0.100516
0.100979
0.100982
0.100984
0.100988
0.10099
0.100995
0.100997
0.101003
0.101006
0.101013
0.101016
0.101023
0.101027
0.101035
0.10104
0.10105
0.101053
0.101066
0.101069
0.101083
0.101086
0.101103
0.101106
0.101124
0.101541
0.101544
0.101545
0.10155
0.101551
0.101557
0.10156
0.101565
0.10157
0.101575
0.10158
0.101587
0.101593
0.101601
0.101606
0.101617
0.101622
0.101635
0.101639
0.101656
0.101659
0.101678
0.101681
0.101703
0.102076
0.102078
0.102081
0.102083
0.102088
0.102091
0.102096
0.1021
0.102105
0.102112
0.102117
0.102125
0.10213
0.10214
0.102146
0.102157
0.102163
0.102177
0.102182
0.102199
0.102204
0.102224
0.102229
0.102251
0.102585
0.102587
0.102589
0.102593
0.102595
0.102601
0.102604
0.102611
0.102615
0.102622
0.102627
0.102636
0.102642
0.102652
0.102658
0.102671
0.102677
0.102692
0.102698
0.102716
0.102721
0.102743
0.102748
0.102772
0.103069
0.103071
0.103073
0.103077
0.10308
0.103084
0.103089
0.103094
0.1031
0.103106
0.103113
0.103121
0.103128
0.103139
0.103145
0.103159
0.103165
0.103181
0.103188
0.103206
0.103212
0.103235
0.10324
0.103267
0.103529
0.103531
0.103534
0.103536
0.103541
0.103544
0.103549
0.103555
0.10356
0.103568
0.103574
0.103583
0.10359
0.103601
0.103608
0.103622
0.103629
0.103646
0.103652
0.103673
0.103679
0.103702
0.103708
0.103736
0.103966
0.103969
0.10397
0.103974
0.103976
0.103982
0.103986
0.103993
0.103998
0.104005
0.104012
0.104021
0.104029
0.10404
0.104048
0.104062
0.104069
0.104086
0.104094
0.104114
0.104121
0.104146
0.104151
0.104181
0.104382
0.104384
0.104386
0.104389
0.104393
0.104397
0.104402
0.104407
0.104414
0.104421
0.104428
0.104437
0.104445
0.104457
0.104465
0.104479
0.104487
0.104505
0.104512
0.104534
0.104541
0.104566
0.104572
0.104603
0.104776
0.104778
0.10478
0.104783
0.104787
0.104791
0.104796
0.104802
0.104808
0.104816
0.104823
0.104833
0.10484
0.104852
0.10486
0.104875
0.104884
0.104901
0.10491
0.104931
0.104939
0.104964
0.10497
0.105002
0.105151
0.105152
0.105154
0.105158
0.10516
0.105166
0.10517
0.105177
0.105182
0.10519
0.105197
0.105207
0.105215
0.105227
0.105236
0.105251
0.10526
0.105278
0.105286
0.105308
0.105316
0.105341
0.105349
0.105381
0.105506
0.105507
0.10551
0.105512
0.105517
0.10552
0.105526
0.105531
0.105538
0.105546
0.105553
0.105563
0.105571
0.105583
0.105591
0.105607
0.105616
0.105634
0.105643
0.105665
0.105673
0.105699
0.105706
0.105739
0.105843
0.105845
0.105846
0.10585
0.105852
0.105858
0.105862
0.105869
0.105874
0.105883
0.105889
0.1059
0.105908
0.105921
0.105929
0.105944