/*--------------------------------*- C++ -*----------------------------------*\
  =========                 |
  \\      /  F ield         | OpenFOAM: The Open Source CFD Toolbox
   \\    /   O peration     | Website:  https://openfoam.org
    \\  /    A nd           | Version:  10
     \\/     M anipulation  |
\*---------------------------------------------------------------------------*/
FoamFile
{
    format      ascii;
    class       volScalarField;
    location    "0.23";
    object      T;
}
// * * * * * * * * * * * * * * * * * * * * * * * * * * * * * * * * * * * * * //

dimensions      [0 0 0 1 0 0 0];

internalField   nonuniform List<scalar> 
4176
(
180.347
180.351
180.373
180.382
180.426
180.445
180.507
180.538
180.613
180.661
180.75
180.809
180.913
180.985
181.101
181.192
181.307
181.43
181.535
181.702
181.778
182.011
182.023
182.327
180.356
180.361
180.382
180.393
180.436
180.457
180.519
180.552
180.628
180.677
180.767
180.83
180.936
181.009
181.128
181.222
181.339
181.465
181.572
181.743
181.819
182.062
182.077
182.412
180.384
180.389
180.41
180.42
180.462
180.483
180.542
180.576
180.649
180.698
180.785
180.846
180.95
181.022
181.139
181.229
181.346
181.468
181.573
181.739
181.812
182.049
182.065
182.41
180.436
180.44
180.461
180.472
180.514
180.534
180.594
180.627
180.7
180.749
180.837
180.897
181.002
181.073
181.19
181.28
181.399
181.522
181.622
181.794
181.864
182.098
182.111
182.44
180.511
180.515
180.536
180.546
180.588
180.608
180.667
180.7
180.772
180.82
180.907
180.966
181.07
181.14
181.257
181.345
181.464
181.586
181.683
181.857
181.925
182.156
182.17
182.488
180.61
180.614
180.635
180.645
180.686
180.706
180.765
180.797
180.869
180.917
181.002
181.062
181.164
181.234
181.35
181.436
181.558
181.673
181.777
181.945
182.016
182.244
182.261
182.579
180.733
180.737
180.758
180.768
180.808
180.828
180.886
180.918
180.989
181.036
181.121
181.18
181.281
181.349
181.465
181.549
181.671
181.782
181.889
182.051
182.124
182.349
182.368
182.685
180.88
180.884
180.904
180.914
180.955
180.974
181.031
181.063
181.133
181.18
181.263
181.321
181.421
181.489
181.603
181.686
181.808
181.915
182.024
182.181
182.256
182.477
182.498
182.81
181.05
181.055
181.075
181.084
181.124
181.143
181.2
181.231
181.3
181.347
181.429
181.486
181.585
181.651
181.764
181.846
181.967
182.07
182.181
182.332
182.41
182.626
182.649
182.955
181.245
181.249
181.269
181.278
181.318
181.336
181.392
181.423
181.491
181.537
181.618
181.674
181.771
181.837
181.949
182.028
182.148
182.248
182.36
182.507
182.585
182.798
182.821
183.122
181.463
181.467
181.487
181.496
181.535
181.553
181.608
181.639
181.706
181.751
181.83
181.886
181.981
182.046
182.156
182.233
182.353
182.449
182.562
182.703
182.783
182.99
183.015
183.311
181.705
181.709
181.729
181.737
181.776
181.794
181.848
181.878
181.944
181.988
182.066
182.12
182.215
182.277
182.386
182.462
182.58
182.673
182.786
182.922
183.005
183.203
183.23
183.52
181.971
181.975
181.994
182.002
182.041
182.058
182.111
182.14
182.205
182.248
182.325
182.378
182.471
182.532
182.639
182.713
182.829
182.92
183.033
183.164
183.246
183.441
183.467
183.752
182.26
182.264
182.283
182.291
182.329
182.345
182.398
182.426
182.49
182.532
182.608
182.66
182.751
182.81
182.916
182.987
183.102
183.189
183.302
183.427
183.511
183.699
183.726
184.004
182.573
182.577
182.596
182.603
182.641
182.657
182.709
182.735
182.798
182.839
182.914
182.964
183.053
183.111
183.215
183.284
183.397
183.481
183.593
183.714
183.797
183.98
184.006
184.278
182.91
182.914
182.932
182.94
182.976
182.991
183.043
183.068
183.13
183.17
183.243
183.291
183.379
183.435
183.537
183.603
183.714
183.796
183.906
184.022
184.106
184.281
184.308
184.574
183.271
183.274
183.292
183.299
183.335
183.35
183.4
183.425
183.485
183.523
183.595
183.642
183.728
183.782
183.881
183.946
184.054
184.133
184.242
184.352
184.436
184.606
184.633
184.892
183.655
183.658
183.676
183.683
183.718
183.732
183.781
183.805
183.864
183.901
183.97
184.016
184.099
184.152
184.249
184.311
184.417
184.492
184.6
184.705
184.789
184.951
184.979
185.231
184.063
184.066
184.084
184.09
184.125
184.137
184.186
184.208
184.265
184.301
184.369
184.412
184.494
184.544
184.639
184.698
184.802
184.874
184.98
185.08
185.163
185.32
185.348
185.591
184.495
184.498
184.515
184.521
184.555
184.566
184.614
184.635
184.691
184.725
184.791
184.832
184.912
184.96
185.052
185.108
185.21
185.278
185.382
185.477
185.56
185.709
185.738
185.974
184.95
184.953
184.97
184.975
185.008
185.019
185.065
185.085
185.139
185.172
185.236
185.275
185.352
185.398
185.487
185.541
185.64
185.705
185.806
185.896
185.978
186.121
186.15
186.378
185.429
185.432
185.449
185.453
185.486
185.495
185.54
185.559
185.611
185.642
185.704
185.742
185.816
185.859
185.946
185.997
186.092
186.154
186.252
186.338
186.419
186.555
186.583
186.803
185.932
185.935
185.951
185.955
185.986
185.995
186.038
186.056
186.107
186.135
186.195
186.231
186.303
186.343
186.427
186.475
186.567
186.626
186.721
186.802
186.881
187.01
187.039
187.251
186.458
186.461
186.477
186.48
186.51
186.518
186.56
186.576
186.625
186.652
186.709
186.743
186.812
186.85
186.931
186.976
187.065
187.12
187.212
187.288
187.365
187.487
187.515
187.719
187.008
187.011
187.026
187.028
187.058
187.064
187.105
187.119
187.167
187.191
187.247
187.278
187.344
187.38
187.457
187.499
187.585
187.636
187.725
187.796
187.871
187.987
188.014
188.209
187.581
187.583
187.598
187.6
187.629
187.634
187.673
187.686
187.731
187.754
187.807
187.835
187.899
187.932
188.006
188.045
188.128
188.175
188.26
188.327
188.4
188.508
188.534
188.721
188.177
188.179
188.193
188.194
188.223
188.227
188.265
188.275
188.319
188.34
188.39
188.416
188.477
188.507
188.578
188.613
188.693
188.736
188.818
188.88
188.95
189.052
189.077
189.255
188.796
188.798
188.812
188.812
188.839
188.842
188.879
188.888
188.93
188.948
188.996
189.02
189.078
189.104
189.173
189.204
189.28
189.32
189.398
189.455
189.523
189.617
189.642
189.81
189.437
189.44
189.453
189.453
189.479
189.481
189.516
189.523
189.563
189.579
189.625
189.646
189.701
189.725
189.789
189.817
189.89
189.926
190
190.053
190.117
190.204
190.226
190.389
190.102
190.104
190.117
190.116
190.141
190.142
190.175
190.181
190.219
190.233
190.276
190.294
190.347
190.367
190.429
190.453
190.522
190.554
190.625
190.672
190.733
190.813
190.833
190.99
190.789
190.791
190.803
190.801
190.826
190.825
190.858
190.861
190.898
190.909
190.95
190.966
191.015
191.032
191.091
191.111
191.177
191.204
191.271
191.314
191.371
191.445
191.464
191.609
191.498
191.5
191.512
191.509
191.533
191.531
191.562
191.564
191.598
191.608
191.646
191.659
191.706
191.72
191.775
191.792
191.854
191.877
191.94
191.978
192.032
192.099
192.116
192.252
192.229
192.231
192.242
192.239
192.262
192.259
192.288
192.289
192.321
192.329
192.365
192.375
192.419
192.43
192.481
192.495
192.553
192.571
192.631
192.664
192.714
192.775
192.79
192.917
192.982
192.984
192.995
192.991
193.013
193.009
193.037
193.035
193.066
193.071
193.105
193.112
193.154
193.161
193.21
193.22
193.274
193.288
193.344
193.372
193.418
193.472
193.486
193.604
193.757
193.759
193.769
193.765
193.786
193.78
193.807
193.804
193.833
193.836
193.867
193.872
193.91
193.915
193.961
193.966
194.018
194.027
194.079
194.102
194.144
194.193
194.205
194.312
194.553
194.555
194.565
194.56
194.58
194.573
194.599
194.594
194.621
194.622
194.651
194.653
194.689
194.69
194.733
194.735
194.783
194.788
194.837
194.855
194.893
194.935
194.944
195.043
195.371
195.372
195.382
195.376
195.395
195.388
195.412
195.405
195.43
195.429
195.456
195.456
195.489
195.487
195.527
195.525
195.57
195.571
195.616
195.629
195.663
195.699
195.705
195.795
196.209
196.211
196.22
196.214
196.232
196.223
196.246
196.238
196.261
196.258
196.283
196.28
196.31
196.305
196.342
196.337
196.378
196.375
196.416
196.424
196.455
196.485
196.489
196.569
197.069
197.07
197.079
197.072
197.089
197.079
197.101
197.092
197.113
197.108
197.13
197.125
197.153
197.145
197.178
197.17
197.208
197.201
197.238
197.241
197.268
197.293
197.294
197.364
197.949
197.95
197.958
197.951
197.968
197.956
197.977
197.966
197.986
197.979
197.999
197.991
198.016
198.006
198.036
198.024
198.059
198.047
198.081
198.079
198.103
198.122
198.12
198.182
198.849
198.85
198.858
198.85
198.866
198.854
198.873
198.861
198.879
198.87
198.888
198.878
198.901
198.887
198.915
198.899
198.93
198.915
198.945
198.938
198.958
198.972
198.966
199.021
199.77
199.771
199.778
199.77
199.785
199.772
199.79
199.776
199.793
199.782
199.798
199.786
199.806
199.789
199.814
199.795
199.823
199.803
199.83
199.818
199.836
199.842
199.834
199.881
200.711
200.711
200.719
200.71
200.724
200.71
200.727
200.711
200.726
200.714
200.728
200.713
200.731
200.711
200.734
200.711
200.737
200.712
200.736
200.719
200.733
200.733
200.723
200.761
201.671
201.672
201.679
201.669
201.683
201.668
201.683
201.667
201.68
201.666
201.677
201.661
201.676
201.654
201.674
201.647
201.67
201.641
201.663
201.64
201.652
201.645
201.633
201.663
202.652
202.652
202.659
202.648
202.661
202.645
202.659
202.642
202.653
202.637
202.647
202.628
202.641
202.616
202.633
202.603
202.623
202.59
202.61
202.581
202.591
202.578
202.564
202.585
203.651
203.652
203.658
203.647
203.659
203.642
203.655
203.636
203.646
203.628
203.636
203.614
203.625
203.597
203.612
203.578
203.596
203.559
203.576
203.542
203.55
203.529
203.515
203.527
204.67
204.67
204.676
204.664
204.676
204.658
204.67
204.649
204.658
204.638
204.644
204.62
204.629
204.598
204.61
204.573
204.589
204.547
204.562
204.522
204.529
204.501
204.486
204.489
205.707
205.707
205.713
205.701
205.711
205.692
205.703
205.681
205.688
205.667
205.67
205.645
205.651
205.617
205.627
205.587
205.6
205.554
205.567
205.521
205.527
205.493
205.476
205.47
206.763
206.762
206.768
206.755
206.765
206.745
206.755
206.731
206.737
206.714
206.715
206.688
206.692
206.655
206.663
206.62
206.63
206.579
206.591
206.539
206.544
206.502
206.485
206.471
207.836
207.836
207.84
207.827
207.836
207.816
207.824
207.8
207.804
207.779
207.779
207.749
207.751
207.712
207.717
207.67
207.678
207.623
207.633
207.575
207.58
207.529
207.515
207.49
208.926
208.926
208.93
208.917
208.925
208.903
208.911
208.885
208.888
208.861
208.859
208.827
208.827
208.785
208.789
208.739
208.745
208.684
208.694
208.631
208.633
208.576
208.561
208.529
210.033
210.033
210.037
210.023
210.031
210.008
210.015
209.988
209.989
209.961
209.957
209.923
209.921
209.876
209.878
209.824
209.829
209.764
209.773
209.703
209.706
209.64
209.626
209.585
211.156
211.156
211.16
211.145
211.152
211.129
211.135
211.106
211.106
211.077
211.072
211.035
211.032
210.984
210.985
210.927
210.93
210.862
210.868
210.791
210.796
210.724
210.708
210.66
212.295
212.294
212.298
212.283
212.29
212.266
212.27
212.241
212.24
212.208
212.202
212.163
212.158
212.108
212.108
212.045
212.049
211.974
211.982
211.899
211.902
211.824
211.808
211.752
213.448
213.448
213.451
213.436
213.442
213.417
213.421
213.39
213.388
213.355
213.348
213.307
213.301
213.247
213.248
213.178
213.185
213.101
213.112
213.023
213.025
212.942
212.924
212.862
214.616
214.615
214.619
214.603
214.608
214.583
214.586
214.554
214.551
214.517
214.509
214.465
214.46
214.401
214.402
214.328
214.335
214.249
214.255
214.164
214.163
214.075
214.057
213.988
215.797
215.796
215.799
215.783
215.788
215.762
215.764
215.732
215.728
215.692
215.684
215.637
215.632
215.57
215.571
215.494
215.498
215.409
215.415
215.32
215.318
215.226
215.206
215.131
216.99
216.989
216.992
216.976
216.98
216.954
216.955
216.922
216.918
216.88
216.872
216.822
216.818
216.752
216.754
216.673
216.677
216.586
216.588
216.491
216.487
216.391
216.37
216.289
218.195
218.195
218.197
218.181
218.185
218.159
218.159
218.125
218.121
218.081
218.073
218.021
218.016
217.95
217.948
217.868
217.869
217.775
217.777
217.677
217.671
217.571
217.55
217.463
219.411
219.411
219.413
219.398
219.4
219.375
219.374
219.34
219.335
219.294
219.285
219.233
219.227
219.159
219.156
219.074
219.074
218.979
218.978
218.876
218.869
218.765
218.744
218.652
220.638
220.638
220.64
220.624
220.627
220.601
220.599
220.567
220.559
220.519
220.508
220.456
220.449
220.38
220.376
220.294
220.291
220.194
220.193
220.088
220.08
219.974
219.951
219.854
221.875
221.875
221.877
221.861
221.864
221.837
221.835
221.803
221.793
221.755
221.742
221.691
221.681
221.612
221.607
221.524
221.521
221.422
221.42
221.313
221.303
221.194
221.171
221.07
223.121
223.121
223.123
223.107
223.11
223.083
223.081
223.049
223.038
223.001
222.986
222.936
222.923
222.856
222.848
222.766
222.76
222.661
222.658
222.548
222.538
222.427
222.403
222.298
224.377
224.376
224.379
224.363
224.365
224.339
224.336
224.304
224.292
224.256
224.239
224.19
224.175
224.109
224.099
224.017
224.01
223.911
223.906
223.795
223.784
223.67
223.646
223.537
225.64
225.64
225.643
225.626
225.629
225.602
225.6
225.568
225.555
225.52
225.501
225.453
225.438
225.37
225.36
225.278
225.269
225.169
225.164
225.051
225.04
224.924
224.899
224.787
226.913
226.913
226.915
226.899
226.901
226.875
226.872
226.84
226.827
226.792
226.771
226.725
226.707
226.641
226.629
226.546
226.537
226.437
226.429
226.317
226.304
226.186
226.162
226.047
228.193
228.193
228.195
228.179
228.182
228.155
228.152
228.12
228.106
228.071
228.05
228.004
227.985
227.919
227.906
227.822
227.812
227.711
227.704
227.59
227.576
227.458
227.432
227.315
229.481
229.481
229.484
229.467
229.469
229.443
229.439
229.407
229.392
229.358
229.335
229.29
229.269
229.203
229.19
229.105
229.094
228.994
228.983
228.87
228.856
228.736
228.711
228.591
230.777
230.777
230.779
230.763
230.764
230.737
230.733
230.701
230.686
230.651
230.627
230.582
230.559
230.494
230.48
230.393
230.382
230.281
230.271
230.157
230.141
230.021
229.995
229.874
232.079
232.079
232.081
232.064
232.066
232.038
232.034
232.001
231.985
231.95
231.924
231.88
231.855
231.79
231.775
231.687
231.676
231.575
231.562
231.449
231.433
231.311
231.286
231.163
233.386
233.387
233.388
233.371
233.372
233.344
233.339
233.305
233.288
233.253
233.225
233.182
233.154
233.092
233.073
232.987
232.974
232.872
232.859
232.746
232.729
232.607
232.582
232.458
234.697
234.697
234.699
234.681
234.682
234.653
234.648
234.613
234.595
234.56
234.531
234.488
234.458
234.396
234.374
234.291
234.278
234.172
234.16
234.048
234.03
233.908
233.883
233.759
236.008
236.008
236.01
235.992
235.993
235.964
235.958
235.923
235.905
235.868
235.839
235.796
235.764
235.705
235.679
235.599
235.582
235.479
235.466
235.354
235.336
235.214
235.189
235.064
237.316
237.317
237.319
237.301
237.302
237.272
237.267
237.232
237.214
237.178
237.148
237.106
237.073
237.015
236.987
236.91
236.888
236.791
236.776
236.664
236.646
236.525
236.5
236.376
238.619
238.619
238.622
238.604
238.606
238.577
238.573
238.539
238.522
238.487
238.458
238.417
238.383
238.328
238.299
238.224
238.201
238.105
238.092
237.976
237.962
237.841
237.817
237.693
239.914
239.914
239.917
239.901
239.904
239.876
239.873
239.841
239.826
239.793
239.766
239.727
239.695
239.642
239.612
239.542
239.516
239.426
239.409
239.298
239.282
239.163
239.14
239.016
241.2
241.201
241.205
241.189
241.195
241.169
241.168
241.138
241.126
241.096
241.071
241.035
241.006
240.957
240.929
240.863
240.837
240.749
240.732
240.625
240.609
240.49
240.468
240.344
242.481
242.482
242.487
242.473
242.48
242.456
242.458
242.431
242.421
242.395
242.374
242.342
242.316
242.271
242.246
242.184
242.16
242.078
242.062
241.957
241.942
241.824
241.803
241.679
243.762
243.764
243.77
243.757
243.765
243.743
243.747
243.723
243.716
243.693
243.675
243.647
243.624
243.584
243.563
243.506
243.486
243.407
243.395
243.294
243.283
243.165
243.146
243.022
245.053
245.055
245.061
245.049
245.057
245.038
245.042
245.02
245.014
244.994
244.978
244.954
244.933
244.896
244.881
244.824
244.814
244.734
244.732
244.63
244.627
244.512
244.497
244.375
246.364
246.367
246.372
246.361
246.369
246.349
246.353
246.331
246.325
246.306
246.29
246.267
246.247
246.213
246.199
246.142
246.141
246.058
246.065
245.964
245.969
245.857
245.848
245.735
247.708
247.71
247.716
247.702
247.71
247.688
247.691
247.667
247.66
247.637
247.62
247.595
247.574
247.54
247.522
247.47
247.465
247.387
247.392
247.294
247.304
247.192
247.19
247.083
249.094
249.096
249.101
249.085
249.092
249.066
249.067
249.038
249.027
249
248.979
248.949
248.923
248.886
248.862
248.811
248.795
248.721
248.722
248.622
248.635
248.519
248.522
248.414
250.529
250.53
250.534
250.517
250.52
250.491
250.488
250.455
250.438
250.406
250.377
250.341
250.307
250.263
250.229
250.172
250.148
250.069
250.063
249.956
249.967
249.844
249.85
249.735
252.014
252.015
252.017
251.999
251.999
251.967
251.959
251.922
251.899
251.861
251.823
251.781
251.736
251.684
251.638
251.571
251.535
251.444
251.429
251.308
251.314
251.177
251.183
251.053
253.546
253.548
253.549
253.528
253.527
253.492
253.481
253.439
253.411
253.367
253.322
253.272
253.218
253.156
253.098
253.022
252.969
252.865
252.836
252.697
252.69
252.533
252.534
252.381
255.119
255.12
255.121
255.099
255.097
255.059
255.046
255
254.97
254.92
254.872
254.815
254.755
254.685
254.616
254.533
254.461
254.353
254.294
254.149
254.117
253.937
253.923
253.735
256.721
256.722
256.724
256.7
256.698
256.659
256.646
256.598
256.566
256.514
256.463
256.403
256.339
256.264
256.19
256.1
256.017
255.907
255.823
255.68
255.613
255.421
255.382
255.148
258.342
258.342
258.344
258.321
258.319
258.28
258.267
258.219
258.187
258.135
258.083
258.023
257.957
257.882
257.806
257.715
257.628
257.516
257.422
257.283
257.191
257.005
256.939
256.67
259.968
259.969
259.972
259.948
259.948
259.909
259.897
259.85
259.819
259.768
259.718
259.659
259.595
259.523
259.447
259.359
259.273
259.165
259.071
258.936
258.843
258.662
258.593
258.327
261.589
261.591
261.594
261.571
261.572
261.534
261.523
261.478
261.449
261.401
261.353
261.298
261.237
261.168
261.096
261.013
260.93
260.828
260.739
260.611
260.528
260.352
260.294
260.052
263.196
263.197
263.201
263.179
263.181
263.145
263.136
263.093
263.067
263.022
262.977
262.926
262.868
262.804
262.736
262.66
262.581
262.488
262.404
262.285
262.21
262.046
261.993
261.771
264.779
264.781
264.785
264.765
264.768
264.734
264.727
264.686
264.662
264.621
264.579
264.533
264.478
264.421
264.357
264.287
264.214
264.129
264.051
263.941
263.874
263.723
263.673
263.471
266.333
266.335
266.34
266.321
266.324
266.293
266.287
266.25
266.228
266.192
266.152
266.111
266.06
266.009
265.948
265.887
265.818
265.742
265.671
265.569
265.508
265.372
265.325
265.141
267.852
267.854
267.859
267.841
267.846
267.817
267.813
267.779
267.759
267.727
267.689
267.655
267.605
267.563
267.504
267.452
267.387
267.32
267.254
267.162
267.107
266.984
266.94
266.775
269.331
269.334
269.339
269.323
269.329
269.301
269.299
269.268
269.25
269.222
269.188
269.158
269.112
269.076
269.021
268.977
268.915
268.858
268.795
268.716
268.663
268.554
268.514
268.366
270.768
270.771
270.778
270.761
270.77
270.742
270.744
270.714
270.7
270.674
270.644
270.617
270.577
270.544
270.495
270.456
270.4
270.35
270.293
270.224
270.174
270.078
270.041
269.91
272.161
272.164
272.172
272.155
272.166
272.139
272.144
272.115
272.105
272.08
272.055
272.03
271.995
271.966
271.923
271.888
271.838
271.796
271.741
271.686
271.636
271.554
271.52
271.405
273.509
273.511
273.519
273.504
273.515
273.49
273.496
273.469
273.462
273.44
273.419
273.397
273.366
273.341
273.303
273.273
273.228
273.192
273.142
273.095
273.051
272.979
272.947
272.848
274.808
274.811
274.82
274.804
274.818
274.793
274.802
274.776
274.772
274.752
274.734
274.715
274.688
274.667
274.633
274.608
274.568
274.538
274.493
274.455
274.411
274.355
274.322
274.239
276.06
276.063
276.072
276.058
276.071
276.049
276.058
276.035
276.032
276.016
276
275.984
275.961
275.943
275.914
275.893
275.858
275.833
275.793
275.762
275.722
275.677
275.645
275.576
277.264
277.267
277.277
277.261
277.279
277.254
277.268
277.244
277.245
277.23
277.217
277.204
277.184
277.17
277.144
277.128
277.097
277.077
277.041
277.018
276.98
276.944
276.916
276.859
278.42
278.423
278.432
278.421
278.434
278.416
278.426
278.408
278.408
278.396
278.385
278.375
278.358
278.347
278.325
278.312
278.285
278.271
278.238
278.221
278.187
278.161
278.133
278.089
279.529
279.531
279.543
279.528
279.546
279.524
279.541
279.519
279.525
279.512
279.506
279.497
279.483
279.475
279.456
279.447
279.423
279.413
279.386
279.374
279.343
279.325
279.298
279.265
280.591
280.594
280.603
280.592
280.608
280.59
280.604
280.588
280.591
280.583
280.577
280.572
280.56
280.554
280.538
280.533
280.513
280.507
280.482
280.475
280.449
280.437
280.411
280.389
281.607
281.609
281.619
281.609
281.623
281.609
281.622
281.608
281.613
281.606
281.602
281.598
281.589
281.586
281.572
281.57
281.553
281.551
281.53
281.528
281.504
281.498
281.474
281.461
282.577
282.58
282.589
282.58
282.594
282.581
282.595
282.583
282.588
282.584
282.58
282.579
282.572
282.571
282.56
282.56
282.547
282.548
282.529
282.531
282.511
282.51
282.488
282.484
283.504
283.506
283.516
283.507
283.523
283.509
283.524
283.512
283.52
283.515
283.515
283.515
283.51
283.511
283.502
283.505
283.494
283.498
283.482
283.488
283.47
283.474
283.455
283.457
284.387
284.391
284.396
284.396
284.401
284.4
284.404
284.403
284.405
284.406
284.404
284.407
284.403
284.407
284.4
284.405
284.396
284.403
284.389
284.399
284.384
284.392
284.375
284.384
285.23
285.231
285.243
285.231
285.252
285.234
285.256
285.242
285.254
285.25
285.254
285.256
285.254
285.259
285.254
285.261
285.255
285.264
285.254
285.266
285.252
285.265
285.25
285.264
286.032
286.036
286.038
286.044
286.041
286.052
286.046
286.057
286.052
286.061
286.058
286.065
286.063
286.071
286.067
286.076
286.071
286.084
286.074
286.089
286.078
286.095
286.08
286.1
286.796
286.796
286.807
286.797
286.817
286.801
286.824
286.81
286.826
286.822
286.829
286.832
286.834
286.842
286.84
286.85
286.848
286.86
286.854
286.872
286.862
286.882
286.869
286.893
287.52
287.526
287.525
287.533
287.53
287.542
287.536
287.551
287.544
287.557
287.554
287.565
287.565
287.575
287.574
287.586
287.584
287.6
287.594
287.614
287.605
287.629
287.616
287.644
288.211
288.212
288.22
288.216
288.228
288.223
288.237
288.232
288.244
288.243
288.251
288.256
288.261
288.27
288.271
288.284
288.284
288.3
288.297
288.319
288.311
288.336
288.326
288.356
288.865
288.87
288.871
288.876
288.878
288.885
288.885
288.895
288.894
288.906
288.906
288.917
288.919
288.931
288.933
288.947
288.947
288.966
288.963
288.986
288.98
289.008
288.998
289.03
289.489
289.491
289.495
289.497
289.501
289.506
289.51
289.515
289.521
289.527
289.532
289.541
289.545
289.557
289.56
289.575
289.577
289.596
289.594
289.619
289.614
289.643
289.633
289.67
290.079
290.082
290.084
290.088
290.091
290.096
290.101
290.107
290.112
290.119
290.124
290.134
290.139
290.151
290.155
290.171
290.173
290.194
290.194
290.218
290.214
290.246
290.233
290.277
290.639
290.642
290.645
290.647
290.653
290.656
290.661
290.668
290.672
290.682
290.685
290.697
290.701
290.715
290.719
290.736
290.739
290.76
290.76
290.787
290.783
290.816
290.807
290.847
291.171
291.174
291.174
291.181
291.181
291.19
291.191
291.199
291.205
291.213
291.219
291.229
291.235
291.249
291.254
291.271
291.274
291.296
291.298
291.324
291.321
291.356
291.347
291.389
291.675
291.677
291.681
291.681
291.689
291.69
291.698
291.702
291.709
291.718
291.723
291.735
291.74
291.754
291.761
291.777
291.782
291.804
291.805
291.834
291.831
291.867
291.859
291.9
292.152
292.155
292.156
292.162
292.163
292.171
292.172
292.182
292.186
292.196
292.201
292.213
292.219
292.234
292.24
292.258
292.262
292.285
292.288
292.315
292.314
292.351
292.342
292.386
292.605
292.607
292.609
292.613
292.616
292.622
292.627
292.633
292.64
292.648
292.655
292.666
292.673
292.687
292.695
292.712
292.718
292.74
292.743
292.773
292.77
292.808
292.801
292.844
293.034
293.036
293.039
293.04
293.047
293.049
293.056
293.062
293.068
293.078
293.084
293.096
293.102
293.117
293.125
293.142
293.148
293.171
293.175
293.203
293.202
293.241
293.233
293.278
293.44
293.443
293.443
293.449
293.449
293.458
293.46
293.47
293.474
293.484
293.49
293.503
293.509
293.524
293.532
293.55
293.556
293.579
293.582
293.612
293.611
293.649
293.643
293.687
293.825
293.827
293.829
293.832
293.837
293.84
293.847
293.852
293.86
293.868
293.876
293.887
293.895
293.909
293.917
293.935
293.941
293.964
293.969
293.998
293.998
294.035
294.029
294.074
294.19
294.191
294.194
294.196
294.201
294.205
294.21
294.218
294.223
294.233
294.239
294.252
294.259
294.274
294.282
294.3
294.306
294.33
294.333
294.363
294.363
294.401
294.395
294.439
294.535
294.537
294.537
294.544
294.542
294.553
294.553
294.564
294.568
294.578
294.585
294.597
294.604
294.619
294.627
294.645
294.651
294.674
294.679
294.708
294.708
294.746
294.74
294.784
294.862
294.863
294.867
294.865
294.876
294.872
294.886
294.885
294.898
294.903
294.912
294.923
294.931
294.945
294.953
294.972
294.978
295.002
295.005
295.034
295.035
295.073
295.067
295.11
295.171
295.174
295.173
295.181
295.177
295.191
295.186
295.203
295.201
295.216
295.219
295.233
295.239
295.254
295.262
295.281
295.286
295.31
295.314
295.343
295.344
295.381
295.375
295.419
295.465
295.465
295.47
295.467
295.478
295.474
295.489
295.486
295.501
295.503
295.515
295.524
295.532
295.546
295.554
295.573
295.579
295.603
295.606
295.635
295.636
295.673
295.668
295.71
295.742
295.745
295.743
295.751
295.748
295.761
295.757
295.772
295.771
295.785
295.788
295.802
295.809
295.823
295.831
295.849
295.856
295.878
295.883
295.912
295.913
295.948
295.944
295.987
296.005
296.005
296.011
296.007
296.018
296.014
296.028
296.027
296.039
296.043
296.053
296.063
296.071
296.085
296.093
296.111
296.117
296.14
296.145
296.172
296.175
296.209
296.206
296.246
296.253
296.256
296.254
296.263
296.258
296.272
296.268
296.282
296.282
296.294
296.3
296.312
296.319
296.333
296.34
296.359
296.365
296.387
296.392
296.42
296.421
296.455
296.452
296.494
296.489
296.489
296.495
296.491
296.502
296.498
296.511
296.51
296.522
296.527
296.536
296.546
296.554
296.567
296.575
296.593
296.599
296.621
296.626
296.652
296.653
296.691
296.687
296.726
296.712
296.714
296.713
296.719
296.718
296.728
296.727
296.738
296.74
296.752
296.757
296.769
296.775
296.789
296.797
296.814
296.821
296.843
296.847
296.874
296.876
296.908
296.908
296.946
296.923
296.923
296.926
296.927
296.933
296.934
296.942
296.945
296.953
296.96
296.968
296.978
296.986
296.999
297.006
297.024
297.03
297.052
297.057
297.083
297.085
297.118
297.116
297.154
297.122
297.123
297.125
297.127
297.132
297.134
297.141
297.145
297.152
297.16
297.167
297.177
297.184
297.198
297.205
297.222
297.229
297.25
297.254
297.281
297.283
297.313
297.313
297.35
297.311
297.312
297.313
297.318
297.318
297.326
297.326
297.336
297.338
297.349
297.354
297.366
297.372
297.386
297.392
297.409
297.416
297.437
297.442
297.467
297.468
297.501
297.499
297.536
297.49
297.49
297.494
297.493
297.501
297.499
297.51
297.509
297.52
297.525
297.534
297.543
297.55
297.564
297.569
297.587
297.593
297.615
297.618
297.643
297.646
297.676
297.676
297.71
297.659
297.661
297.659
297.667
297.663
297.676
297.671
297.685
297.684
297.697
297.7
297.712
297.718
297.732
297.737
297.755
297.76
297.781
297.784
297.812
297.812
297.843
297.84
297.877
297.82
297.819
297.824
297.82
297.831
297.826
297.84
297.837
297.849
297.853
297.861
297.87
297.877
297.891
297.896
297.913
297.919
297.94
297.943
297.968
297.97
298
297.999
298.032
297.97
297.973
297.97
297.979
297.973
297.987
297.981
297.996
297.993
298.008
298.009
298.022
298.027
298.041
298.046
298.063
298.069
298.088
298.091
298.119
298.118
298.149
298.146
298.182
298.114
298.113
298.118
298.115
298.125
298.121
298.133
298.131
298.142
298.146
298.154
298.163
298.169
298.183
298.188
298.205
298.209
298.232
298.234
298.257
298.26
298.288
298.287
298.32
298.248
298.251
298.249
298.256
298.253
298.263
298.261
298.272
298.272
298.284
298.287
298.299
298.303
298.317
298.321
298.34
298.344
298.363
298.365
298.393
298.391
298.422
298.419
298.453
298.377
298.377
298.379
298.38
298.385
298.386
298.392
298.396
298.402
298.41
298.415
298.426
298.43
298.444
298.449
298.466
298.468
298.49
298.494
298.516
298.518
298.546
298.544
298.577
298.497
298.498
298.498
298.502
298.503
298.509
298.511
298.518
298.521
298.531
298.534
298.546
298.549
298.564
298.568
298.586
298.589
298.608
298.61
298.637
298.635
298.665
298.662
298.694
298.611
298.612
298.613
298.615
298.618
298.622
298.625
298.631
298.635
298.644
298.647
298.659
298.663
298.677
298.681
298.698
298.7
298.722
298.724
298.747
298.748
298.776
298.773
298.805
298.719
298.72
298.72
298.724
298.724
298.73
298.731
298.739
298.741
298.751
298.754
298.766
298.769
298.783
298.787
298.805
298.807
298.827
298.827
298.854
298.853
298.882
298.879
298.909
298.82
298.82
298.822
298.823
298.828
298.829
298.835
298.839
298.844
298.852
298.855
298.867
298.87
298.883
298.888
298.905
298.906
298.927
298.93
298.952
298.952
298.981
298.977
299.008
298.915
298.917
298.916
298.922
298.919
298.929
298.925
298.938
298.936
298.948
298.949
298.962
298.964
298.979
298.982
298.999
299.002
299.021
299.022
299.046
299.047
299.073
299.071
299.1
299.006
299.005
299.009
299.007
299.015
299.012
299.022
299.022
299.03
299.035
299.04
299.051
299.054
299.068
299.071
299.088
299.088
299.11
299.112
299.134
299.133
299.162
299.158
299.188
299.09
299.092
299.089
299.098
299.091
299.105
299.098
299.113
299.109
299.123
299.122
299.135
299.137
299.152
299.154
299.171
299.174
299.193
299.194
299.217
299.218
299.243
299.241
299.269
299.17
299.169
299.173
299.17
299.18
299.175
299.186
299.185
299.194
299.198
299.203
299.213
299.217
299.23
299.234
299.249
299.251
299.271
299.272
299.295
299.294
299.321
299.318
299.347
299.244
299.246
299.243
299.252
299.245
299.26
299.251
299.267
299.262
299.276
299.276
299.288
299.29
299.304
299.307
299.323
299.325
299.344
299.346
299.367
299.369
299.392
299.392
299.418
299.314
299.314
299.318
299.315
299.323
299.32
299.33
299.33
299.337
299.342
299.347
299.357
299.36
299.373
299.376
299.392
299.393
299.413
299.413
299.436
299.436
299.46
299.46