/*--------------------------------*- C++ -*----------------------------------*\
  =========                 |
  \\      /  F ield         | OpenFOAM: The Open Source CFD Toolbox
   \\    /   O peration     | Website:  https://openfoam.org
    \\  /    A nd           | Version:  10
     \\/     M anipulation  |
\*---------------------------------------------------------------------------*/
FoamFile
{
    format      ascii;
    class       volVectorField;
    location    "0.23";
    object      U;
}
// * * * * * * * * * * * * * * * * * * * * * * * * * * * * * * * * * * * * * //

dimensions      [0 1 -1 0 0 0 0];

internalField   nonuniform List<vector> 
4176
(
(497.487 -0.0143956 -3.90999e-09)
(497.473 0.0641377 1.25367e-09)
(497.448 0.000906863 -3.682e-10)
(497.399 0.0910125 6.69985e-11)
(497.345 0.0504006 1.06416e-10)
(497.27 0.0903233 -3.44013e-10)
(497.179 0.12514 -4.59682e-10)
(497.086 0.0613615 -6.8926e-11)
(496.953 0.224378 2.40346e-10)
(496.847 0.005733 3.28188e-10)
(496.671 0.343414 2.55585e-10)
(496.548 -0.0680623 3.57356e-10)
(496.337 0.468763 2.95092e-10)
(496.19 -0.138392 -3.06749e-11)
(495.955 0.566654 -2.38066e-10)
(495.772 -0.134463 -2.13743e-10)
(495.535 0.527404 -2.56822e-10)
(495.285 0.0248497 -1.01572e-10)
(495.072 0.333669 2.6573e-10)
(494.728 0.324126 2.12993e-10)
(494.574 -0.0180908 -7.80534e-11)
(494.096 0.773077 -1.6176e-10)
(494.066 -0.517438 3.0567e-11)
(493.443 1.44331 1.12231e-10)
(497.469 0.00468069 -3.91039e-09)
(497.454 0.114962 1.25411e-09)
(497.429 0.0759624 -3.68441e-10)
(497.378 0.203926 6.63701e-11)
(497.324 0.185657 1.06533e-10)
(497.246 0.265048 -3.43947e-10)
(497.155 0.321048 -4.60663e-10)
(497.058 0.296455 -6.89776e-11)
(496.923 0.481345 2.40947e-10)
(496.813 0.29886 3.28475e-10)
(496.634 0.66193 2.5533e-10)
(496.507 0.279762 3.5749e-10)
(496.292 0.849341 2.9362e-10)
(496.14 0.259478 -3.05908e-11)
(495.899 1.01134 -2.37974e-10)
(495.712 0.303212 -2.13407e-10)
(495.468 1.04114 -2.58072e-10)
(495.214 0.511874 -1.01649e-10)
(494.995 0.913224 2.6479e-10)
(494.645 0.856304 2.12627e-10)
(494.49 0.627358 -7.80392e-11)
(493.991 1.33218 -1.6412e-10)
(493.955 0.124108 3.13419e-11)
(493.268 1.99357 1.11808e-10)
(497.412 0.0230314 -3.91227e-09)
(497.397 0.161618 1.2531e-09)
(497.374 0.147142 -3.70491e-10)
(497.323 0.308267 6.74856e-11)
(497.271 0.31326 1.06288e-10)
(497.193 0.427234 -3.44875e-10)
(497.106 0.505171 -4.58404e-10)
(497.01 0.515686 -6.73904e-11)
(496.88 0.722068 2.42845e-10)
(496.771 0.573523 3.28844e-10)
(496.598 0.959712 2.54601e-10)
(496.472 0.607167 3.56975e-10)
(496.262 1.20514 2.95439e-10)
(496.115 0.635066 -3.04757e-11)
(495.876 1.42755 -2.38334e-10)
(495.696 0.714955 -2.12383e-10)
(495.453 1.52162 -2.60942e-10)
(495.207 0.967121 -1.03235e-10)
(494.992 1.45603 2.65567e-10)
(494.651 1.34498 2.12267e-10)
(494.505 1.2466 -7.90573e-11)
(494.015 1.8833 -1.61546e-10)
(493.98 0.83772 3.16086e-11)
(493.27 2.60974 1.12707e-10)
(497.308 0.0417669 -3.91203e-09)
(497.293 0.209124 1.25683e-09)
(497.269 0.21964 -3.71499e-10)
(497.219 0.414583 7.06537e-11)
(497.167 0.443228 1.05631e-10)
(497.089 0.592586 -3.49427e-10)
(497.002 0.692729 -4.5878e-10)
(496.906 0.739316 -7.0159e-11)
(496.776 0.967284 2.35972e-10)
(496.667 0.853835 3.32401e-10)
(496.493 1.26305 2.55766e-10)
(496.369 0.941525 3.55592e-10)
(496.156 1.56782 2.97194e-10)
(496.011 1.01927 -3.19895e-11)
(495.769 1.85243 -2.4558e-10)
(495.592 1.13644 -2.13818e-10)
(495.345 2.01605 -2.58676e-10)
(495.096 1.42765 -1.03581e-10)
(494.89 2.00815 2.67957e-10)
(494.539 1.84184 2.11719e-10)
(494.397 1.85718 -8.1929e-11)
(493.914 2.42117 -1.62453e-10)
(493.884 1.52473 2.98061e-11)
(493.204 3.20649 1.03166e-10)
(497.156 0.0600986 -3.91413e-09)
(497.142 0.255644 1.263e-09)
(497.118 0.290558 -3.67565e-10)
(497.068 0.518763 7.07599e-11)
(497.017 0.57036 1.09008e-10)
(496.94 0.754747 -3.44285e-10)
(496.854 0.8762 -4.61183e-10)
(496.759 0.958861 -6.82595e-11)
(496.63 1.20716 2.41381e-10)
(496.523 1.12932 3.30435e-10)
(496.35 1.55984 2.56178e-10)
(496.228 1.27032 3.58781e-10)
(496.017 1.92309 2.94026e-10)
(495.875 1.39702 -3.29582e-11)
(495.632 2.27016 -2.43768e-10)
(495.46 1.55113 -2.16521e-10)
(495.209 2.51138 -2.59909e-10)
(494.965 1.87083 -1.02782e-10)
(494.763 2.55319 2.62593e-10)
(494.409 2.33974 2.17552e-10)
(494.27 2.45163 -7.42423e-11)
(493.792 2.94697 -1.5959e-10)
(493.762 2.16736 3.33732e-11)
(493.102 3.76438 1.13918e-10)
(496.955 0.0784219 -3.92695e-09)
(496.941 0.301868 1.26068e-09)
(496.918 0.361322 -3.66e-10)
(496.868 0.622356 6.62034e-11)
(496.818 0.697186 9.7959e-11)
(496.741 0.916052 -3.49568e-10)
(496.656 1.05924 -4.59189e-10)
(496.561 1.17736 -7.23956e-11)
(496.434 1.44646 2.41902e-10)
(496.326 1.40372 3.3599e-10)
(496.156 1.85575 2.56685e-10)
(496.034 1.59829 3.53342e-10)
(495.824 2.27674 2.91564e-10)
(495.683 1.77467 -3.05573e-11)
(495.442 2.68459 -2.46926e-10)
(495.273 1.97008 -2.14134e-10)
(495.017 3.00203 -2.49543e-10)
(494.786 2.31373 -9.9903e-11)
(494.57 3.10271 2.72514e-10)
(494.228 2.83656 2.1975e-10)
(494.083 3.04782 -7.85572e-11)
(493.61 3.47493 -1.70422e-10)
(493.574 2.81426 3.0102e-11)
(492.913 4.32131 1.1412e-10)
(496.707 0.0965673 -3.92626e-09)
(496.693 0.347427 1.25755e-09)
(496.67 0.431293 -3.81942e-10)
(496.62 0.724509 6.63899e-11)
(496.571 0.822555 1.12749e-10)
(496.494 1.07514 -3.48835e-10)
(496.411 1.24017 -4.71023e-10)
(496.315 1.39292 -6.80726e-11)
(496.191 1.68302 2.48411e-10)
(496.083 1.67462 3.3135e-10)
(495.915 2.14822 2.54138e-10)
(495.794 1.92246 3.64653e-10)
(495.587 2.626 3.0758e-10)
(495.447 2.14866 -2.86503e-11)
(495.207 3.09293 -2.42646e-10)
(495.042 2.38738 -2.11048e-10)
(494.784 3.48166 -2.59201e-10)
(494.564 2.75843 -1.05533e-10)
(494.336 3.65014 2.67116e-10)
(494.009 3.32149 2.17343e-10)
(493.858 3.64289 -8.00623e-11)
(493.391 4.00244 -1.70625e-10)
(493.351 3.47087 3.23818e-11)
(492.692 4.88356 1.19127e-10)
(496.409 0.114575 -3.94167e-09)
(496.395 0.392519 1.26764e-09)
(496.373 0.50064 -3.61588e-10)
(496.323 0.82564 6.99661e-11)
(496.275 0.946754 1.00027e-10)
(496.198 1.23263 -3.46138e-10)
(496.116 1.41936 -4.54978e-10)
(496.022 1.60633 -6.95504e-11)
(495.898 1.91724 2.30209e-10)
(495.792 1.94292 3.29019e-10)
(495.625 2.43775 2.65215e-10)
(495.505 2.24373 3.5934e-10)
(495.3 2.97165 2.82243e-10)
(495.162 2.51969 -3.73247e-11)
(494.923 3.49675 -2.35766e-10)
(494.762 2.80217 -2.19349e-10)
(494.503 3.9539 -2.55784e-10)
(494.291 3.20072 -8.89474e-11)
(494.058 4.19291 2.71073e-10)
(493.741 3.80194 2.02684e-10)
(493.585 4.23614 -8.03077e-11)
(493.126 4.52516 -1.54609e-10)
(493.082 4.12215 2.98229e-11)
(492.43 5.43859 9.58801e-11)
(496.064 0.132401 -3.95139e-09)
(496.05 0.437055 1.25399e-09)
(496.028 0.569203 -3.83541e-10)
(495.978 0.925543 5.78615e-11)
(495.93 1.06949 1.00039e-10)
(495.855 1.38818 -3.54711e-10)
(495.774 1.59637 -4.70763e-10)
(495.68 1.81708 -7.29327e-11)
(495.558 2.14854 2.36781e-10)
(495.453 2.20792 3.26087e-10)
(495.288 2.72361 2.53624e-10)
(495.17 2.56124 3.58115e-10)
(494.966 3.31284 2.90839e-10)
(494.831 2.88671 -3.60792e-11)
(494.593 3.89515 -2.42618e-10)
(494.436 3.21313 -2.16501e-10)
(494.176 4.41764 -2.60282e-10)
(493.972 3.64004 -9.99877e-11)
(493.734 4.72887 2.67744e-10)
(493.429 4.27566 2.0962e-10)
(493.267 4.82694 -8.23694e-11)
(492.816 5.04324 -1.6579e-10)
(492.769 4.76897 3.154e-11)
(492.126 5.98701 1.12201e-10)
(495.67 0.150043 -3.93437e-09)
(495.656 0.481045 1.28265e-09)
(495.634 0.63698 -3.64814e-10)
(495.585 1.02424 8.11434e-11)
(495.538 1.19077 1.18714e-10)
(495.463 1.54183 -3.37912e-10)
(495.383 1.7712 -4.54297e-10)
(495.29 2.02522 -5.57666e-11)
(495.169 2.37689 2.55166e-10)
(495.065 2.4696 3.42955e-10)
(494.902 3.0057 2.72152e-10)
(494.786 2.87485 3.74301e-10)
(494.584 3.64944 3.09611e-10)
(494.451 3.2495 -2.3448e-11)
(494.215 4.28801 -2.29125e-10)
(494.062 3.61995 -2.06002e-10)
(493.802 4.87324 -2.46629e-10)
(493.606 4.07558 -8.90232e-11)
(493.363 5.25729 2.81743e-10)
(493.07 4.74298 2.21262e-10)
(492.902 5.41331 -7.03372e-11)
(492.463 5.55488 -1.5373e-10)
(492.411 5.40941 4.09594e-11)
(491.778 6.52707 1.21328e-10)
(495.227 0.167475 -3.95415e-09)
(495.213 0.524436 1.27126e-09)
(495.192 0.703873 -3.74537e-10)
(495.143 1.12161 7.37916e-11)
(495.096 1.31044 1.12042e-10)
(495.022 1.69342 -3.46133e-10)
(494.943 1.94365 -4.59878e-10)
(494.851 2.23052 -5.76996e-11)
(494.733 2.60202 2.5351e-10)
(494.63 2.72766 3.41416e-10)
(494.469 3.28368 2.72695e-10)
(494.354 3.18414 3.77138e-10)
(494.154 3.98098 3.12478e-10)
(494.024 3.60746 -2.17798e-11)
(493.789 4.67484 -2.24641e-10)
(493.64 4.02191 -2.00215e-10)
(493.381 5.32061 -2.39343e-10)
(493.193 4.50685 -8.27996e-11)
(492.946 5.77737 2.92317e-10)
(492.665 5.20464 2.32076e-10)
(492.491 5.99225 -8.21155e-11)
(492.064 6.05771 -1.87733e-10)
(492.008 6.04418 1.17341e-11)
(491.386 7.05836 9.01726e-11)
(494.736 0.184674 -3.96156e-09)
(494.722 0.567183 1.27401e-09)
(494.701 0.769807 -3.77886e-10)
(494.653 1.21758 6.85103e-11)
(494.607 1.42838 1.07047e-10)
(494.533 1.84282 -3.52403e-10)
(494.456 2.11357 -4.68465e-10)
(494.365 2.43286 -6.77647e-11)
(494.248 2.82378 2.43754e-10)
(494.146 2.98195 3.32162e-10)
(493.987 3.55734 2.62442e-10)
(493.875 3.48885 3.68212e-10)
(493.677 4.30719 3.01749e-10)
(493.55 3.96019 -3.15602e-11)
(493.317 5.05528 -2.39436e-10)
(493.172 4.41842 -2.14139e-10)
(492.913 5.75977 -2.56653e-10)
(492.732 4.93347 -9.61517e-11)
(492.482 6.28847 2.73995e-10)
(492.213 5.65896 2.13668e-10)
(492.034 6.56354 -7.7279e-11)
(491.62 6.55175 -1.58521e-10)
(491.56 6.67121 3.7694e-11)
(490.949 7.58022 1.16655e-10)
(494.196 0.201613 -3.96967e-09)
(494.182 0.609229 1.27365e-09)
(494.161 0.834683 -3.84204e-10)
(494.114 1.312 6.27577e-11)
(494.069 1.54442 9.882e-11)
(493.996 1.98987 -3.65076e-10)
(493.92 2.28077 -4.83488e-10)
(493.83 2.63201 -8.44576e-11)
(493.714 3.04194 2.27108e-10)
(493.615 3.23222 3.13733e-10)
(493.458 3.82644 2.36476e-10)
(493.347 3.78869 3.42461e-10)
(493.152 4.62774 2.69066e-10)
(493.028 4.30727 -3.72197e-11)
(492.797 5.42886 -2.15767e-10)
(492.656 4.80878 -1.97004e-10)
(492.399 6.19058 -2.38716e-10)
(492.224 5.35504 -8.37227e-11)
(491.972 6.78993 2.86687e-10)
(491.715 6.10557 2.24055e-10)
(491.531 7.12606 -6.92303e-11)
(491.129 7.03582 -1.5345e-10)
(491.067 7.28959 4.30395e-11)
(490.467 8.0922 1.19818e-10)
(493.607 0.218268 -3.96965e-09)
(493.593 0.650522 1.29811e-09)
(493.573 0.898408 -3.85526e-10)
(493.526 1.40476 4.3388e-11)
(493.482 1.6584 9.5909e-11)
(493.41 2.13435 -3.56613e-10)
(493.335 2.44501 -4.62998e-10)
(493.246 2.82775 -4.71891e-11)
(493.133 3.25624 2.46816e-10)
(493.035 3.47822 3.14575e-10)
(492.88 4.0907 2.49826e-10)
(492.772 4.08338 3.66318e-10)
(492.578 4.94236 3.11563e-10)
(492.458 4.64833 -1.8142e-11)
(492.229 5.79524 -2.49138e-10)
(492.093 5.19248 -2.38148e-10)
(491.837 6.61265 -2.75274e-10)
(491.669 5.77098 -1.02317e-10)
(491.416 7.28129 2.81117e-10)
(491.17 6.54394 2.29809e-10)
(490.982 7.67918 -8.16973e-11)
(490.593 7.50895 -1.82406e-10)
(490.528 7.89791 2.62347e-11)
(489.941 8.59374 1.17082e-10)
(492.969 0.234615 -3.99234e-09)
(492.956 0.691012 1.25965e-09)
(492.936 0.960894 -3.77181e-10)
(492.889 1.49574 1.00184e-10)
(492.846 1.77016 1.2168e-10)
(492.775 2.27609 -3.54274e-10)
(492.701 2.60606 -4.83672e-10)
(492.614 3.0198 -9.30769e-11)
(492.503 3.46639 2.44438e-10)
(492.407 3.71964 3.57177e-10)
(492.254 4.34983 2.70977e-10)
(492.148 4.3726 3.60978e-10)
(491.957 5.25073 2.77405e-10)
(491.84 4.98304 -3.98772e-11)
(491.614 6.15408 -2.25275e-10)
(491.482 5.56905 -2.09236e-10)
(491.228 7.02552 -2.65223e-10)
(491.067 6.18057 -1.13663e-10)
(490.813 7.76194 2.40653e-10)
(490.578 6.97375 2.00757e-10)
(490.387 8.22254 -6.88613e-11)
(490.011 7.97032 -1.58249e-10)
(489.943 8.49492 2.64402e-11)
(489.37 9.08432 9.17958e-11)
(492.282 0.250633 -3.98548e-09)
(492.269 0.730652 1.3111e-09)
(492.249 1.02206 -3.84773e-10)
(492.203 1.58482 4.06192e-11)
(492.161 1.87954 9.43875e-11)
(492.091 2.41487 -3.55394e-10)
(492.019 2.76365 -4.56398e-10)
(491.934 3.20787 -3.97212e-11)
(491.824 3.67204 2.49027e-10)
(491.73 3.95611 3.16894e-10)
(491.58 4.60345 2.57149e-10)
(491.476 4.65598 3.75221e-10)
(491.288 5.55252 3.22097e-10)
(491.174 5.31102 -4.35366e-11)
(490.951 6.50506 -2.81986e-10)
(490.824 5.93807 -2.34843e-10)
(490.572 7.42883 -2.6575e-10)
(490.418 6.58298 -8.87061e-11)
(490.163 8.2311 2.96843e-10)
(489.94 7.39476 2.07328e-10)
(489.745 8.75544 -1.0796e-10)
(489.383 8.41959 -1.71576e-10)
(489.312 9.08004 3.98647e-11)
(488.753 9.56323 1.29395e-10)
(491.546 0.266301 -4.00882e-09)
(491.532 0.769397 1.27577e-09)
(491.513 1.08183 -4.0384e-10)
(491.467 1.6719 3.69658e-11)
(491.427 1.98637 1.05164e-10)
(491.358 2.5505 -3.29528e-10)
(491.287 2.91755 -4.5359e-10)
(491.204 3.39167 -5.81016e-11)
(491.096 3.87286 2.46394e-10)
(491.004 4.18724 3.28854e-10)
(490.857 4.85113 2.46359e-10)
(490.756 4.93307 3.44163e-10)
(490.571 5.84729 3.02976e-10)
(490.461 5.63186 -1.30793e-11)
(490.24 6.84783 -2.31678e-10)
(490.118 6.29913 -2.11711e-10)
(489.869 7.82233 -2.62333e-10)
(489.721 6.97737 -1.05062e-10)
(489.467 8.68797 2.54911e-10)
(489.255 7.8066 1.84237e-10)
(489.056 9.27639 -1.19715e-10)
(488.709 8.85746 -1.68465e-10)
(488.634 9.65371 5.7842e-11)
(488.09 10.0292 1.262e-10)
(490.759 0.281593 -4.01013e-09)
(490.746 0.807192 1.30274e-09)
(490.727 1.14011 -3.70889e-10)
(490.682 1.75684 9.17426e-11)
(490.643 2.0905 1.28642e-10)
(490.575 2.68279 -3.3474e-10)
(490.507 3.0675 -4.46725e-10)
(490.424 3.5709 -3.38221e-11)
(490.319 4.0685 2.87577e-10)
(490.23 4.41265 3.41497e-10)
(490.085 5.09246 2.30794e-10)
(489.988 5.20339 3.41269e-10)
(489.806 6.13458 2.70492e-10)
(489.699 5.94506 -6.5039e-11)
(489.482 7.18195 -2.74137e-10)
(489.364 6.65182 -2.37229e-10)
(489.118 8.20576 -2.79592e-10)
(488.977 7.363 -1.08444e-10)
(488.723 9.13187 2.68342e-10)
(488.523 8.20899 2.12721e-10)
(488.322 9.78497 -7.63309e-11)
(487.989 9.28348 -1.54271e-10)
(487.91 10.2151 4.67605e-11)
(487.382 10.4817 1.30311e-10)
(489.923 0.29648 -4.02612e-09)
(489.91 0.843973 1.29206e-09)
(489.892 1.1968 -3.9234e-10)
(489.848 1.8395 6.56098e-11)
(489.809 2.19175 9.60804e-11)
(489.743 2.81151 -3.78822e-10)
(489.676 3.21325 -4.9358e-10)
(489.596 3.74527 -8.37644e-11)
(489.493 4.25862 2.29721e-10)
(489.406 4.63195 3.1798e-10)
(489.265 5.32698 2.44292e-10)
(489.17 5.46646 3.46266e-10)
(488.992 6.41386 2.66664e-10)
(488.889 6.25004 -7.34683e-11)
(488.675 7.5069 -2.92601e-10)
(488.563 6.99557 -2.60453e-10)
(488.32 8.57868 -2.67219e-10)
(488.185 7.73935 -6.7475e-11)
(487.933 9.56237 3.08611e-10)
(487.745 8.60153 2.39127e-10)
(487.54 10.2807 -5.56858e-11)
(487.223 9.69733 -1.43174e-10)
(487.139 10.7636 5.5033e-11)
(486.628 10.9203 1.34616e-10)
(489.037 0.310928 -4.05267e-09)
(489.023 0.879663 1.30622e-09)
(489.006 1.25177 -3.64158e-10)
(488.963 1.91973 7.0647e-11)
(488.925 2.28991 1.22057e-10)
(488.861 2.93644 -3.3047e-10)
(488.796 3.35453 -4.72934e-10)
(488.718 3.91449 -8.77987e-11)
(488.617 4.44288 2.4844e-10)
(488.533 4.84476 3.57797e-10)
(488.395 5.55429 2.58532e-10)
(488.304 5.7218 3.76771e-10)
(488.129 6.68462 3.17105e-10)
(488.031 6.54624 -5.37073e-11)
(487.821 7.82211 -2.47994e-10)
(487.713 7.32976 -2.01146e-10)
(487.474 8.94054 -2.72482e-10)
(487.346 8.10586 -1.29833e-10)
(487.096 9.97905 2.59436e-10)
(486.919 8.98378 2.12254e-10)
(486.712 10.763 -1.09216e-10)
(486.41 10.0987 -1.71395e-10)
(486.322 11.2985 4.2696e-11)
(485.827 11.3445 9.80802e-11)
(488.1 0.324897 -4.04319e-09)
(488.087 0.914171 1.32102e-09)
(488.07 1.30488 -3.65579e-10)
(488.028 1.99734 1.0529e-10)
(487.992 2.38476 1.40475e-10)
(487.928 3.05732 -3.69513e-10)
(487.866 3.49107 -5.19984e-10)
(487.79 4.07827 -9.66899e-11)
(487.692 4.62098 2.31084e-10)
(487.611 5.05075 3.27453e-10)
(487.476 5.77399 2.59341e-10)
(487.388 5.96898 3.73441e-10)
(487.217 6.94638 3.08342e-10)
(487.123 6.83309 -2.86025e-11)
(486.917 8.12697 -2.30008e-10)
(486.816 7.65372 -1.97467e-10)
(486.58 9.29076 -2.34753e-10)
(486.46 8.46183 -1.05219e-10)
(486.212 10.3816 2.31775e-10)
(486.045 9.35539 1.80001e-10)
(485.836 11.2312 -1.09734e-10)
(485.55 10.4873 -1.84268e-10)
(485.458 11.8194 1.6319e-11)
(484.981 11.7538 1.06996e-10)
(487.112 0.338347 -4.07352e-09)
(487.099 0.947405 1.27699e-09)
(487.084 1.35598 -3.90217e-10)
(487.042 2.07212 1.05846e-10)
(487.007 2.47606 1.17243e-10)
(486.946 3.17388 -3.70931e-10)
(486.885 3.62255 -4.97558e-10)
(486.812 4.23628 -5.29677e-11)
(486.717 4.79255 2.95103e-10)
(486.639 5.24956 3.66411e-10)
(486.507 5.98571 2.74845e-10)
(486.423 6.2076 3.60834e-10)
(486.256 7.1987 2.64664e-10)
(486.167 7.11008 -5.171e-11)
(485.965 8.42096 -2.35945e-10)
(485.869 7.96678 -2.1986e-10)
(485.638 9.62869 -2.80245e-10)
(485.525 8.80645 -1.26687e-10)
(485.28 10.7695 2.77479e-10)
(485.124 9.716 2.35696e-10)
(484.914 11.6846 -7.62266e-11)
(484.643 10.8626 -1.76056e-10)
(484.547 12.3257 2.57496e-12)
(484.088 12.148 1.11825e-10)
(486.074 0.351239 -4.08872e-09)
(486.061 0.97928 1.28165e-09)
(486.046 1.40494 -3.91809e-10)
(486.006 2.1439 1.11694e-10)
(485.973 2.56356 1.27429e-10)
(485.913 3.28584 -3.67005e-10)
(485.854 3.74868 -4.98925e-10)
(485.783 4.3882 -1.02748e-10)
(485.692 4.95726 2.46371e-10)
(485.616 5.44084 3.72645e-10)
(485.489 6.18909 2.85915e-10)
(485.409 6.43728 3.71632e-10)
(485.246 7.44116 2.75532e-10)
(485.161 7.37678 -4.31008e-11)
(484.964 8.70357 -2.26542e-10)
(484.874 8.26836 -2.15839e-10)
(484.647 9.9537 -2.75735e-10)
(484.542 9.13886 -1.17684e-10)
(484.3 11.1427 2.88756e-10)
(484.155 10.0652 2.45062e-10)
(483.944 12.1219 -6.65044e-11)
(483.69 11.2242 -1.67547e-10)
(483.589 12.8169 1.73947e-11)
(483.149 12.5265 8.47141e-11)
(484.985 0.363544 -4.10909e-09)
(484.972 1.00972 1.32661e-09)
(484.958 1.45163 -3.68089e-10)
(484.918 2.21249 6.84198e-11)
(484.887 2.64706 7.18404e-11)
(484.829 3.39294 -3.8455e-10)
(484.773 3.86914 -4.74642e-10)
(484.705 4.53367 -8.67488e-11)
(484.616 5.11474 2.52713e-10)
(484.544 5.62421 3.63883e-10)
(484.42 6.38373 2.60732e-10)
(484.345 6.65763 3.8782e-10)
(484.186 7.67338 3.34519e-10)
(484.107 7.63277 -4.86515e-11)
(483.914 8.97437 -2.96883e-10)
(483.83 8.55795 -2.40206e-10)
(483.607 10.2653 -2.60292e-10)
(483.51 9.45837 -1.12958e-10)
(483.272 11.5004 2.84386e-10)
(483.138 10.4024 2.31748e-10)
(482.926 12.5424 -9.32284e-11)
(482.689 11.5711 -1.54e-10)
(482.585 13.2919 6.84777e-11)
(482.164 12.8888 1.18328e-10)
(483.844 0.375237 -4.09125e-09)
(483.832 1.03868 1.35514e-09)
(483.819 1.49596 -3.5419e-10)
(483.78 2.27778 8.00319e-11)
(483.75 2.72638 7.71917e-11)
(483.694 3.49496 -3.86358e-10)
(483.641 3.98365 -4.81342e-10)
(483.575 4.67239 -4.31843e-11)
(483.49 5.26462 2.91743e-10)
(483.422 5.79928 3.44402e-10)
(483.302 6.56923 2.34481e-10)
(483.23 6.86826 3.58129e-10)
(483.076 7.89496 2.96998e-10)
(483.002 7.87765 -3.93273e-11)
(482.814 9.23298 -2.37293e-10)
(482.737 8.83514 -1.91456e-10)
(482.519 10.563 -2.71849e-10)
(482.429 9.76445 -1.32188e-10)
(482.196 11.8423 2.57738e-10)
(482.072 10.7269 2.03649e-10)
(481.861 12.9453 -7.7386e-11)
(481.64 11.9025 -1.44717e-10)
(481.533 13.7496 7.41727e-11)
(481.131 13.2344 1.18691e-10)
(482.653 0.386304 -4.09956e-09)
(482.641 1.06612 1.32944e-09)
(482.628 1.53788 -4.14945e-10)
(482.591 2.33967 9.22664e-11)
(482.563 2.80138 1.0425e-10)
(482.509 3.59171 -3.93746e-10)
(482.458 4.09199 -4.66354e-10)
(482.395 4.80408 -6.49235e-11)
(482.313 5.40657 2.32224e-10)
(482.249 5.96568 3.62262e-10)
(482.133 6.74518 2.74595e-10)
(482.066 7.06874 3.59447e-10)
(481.917 8.10545 3.20283e-10)
(481.848 8.11102 -5.04398e-11)
(481.665 9.47898 -2.89818e-10)
(481.594 9.09951 -2.22582e-10)
(481.381 10.8464 -2.83737e-10)
(481.299 10.0566 -1.22181e-10)
(481.07 12.1678 2.87619e-10)
(480.958 11.038 1.99138e-10)
(480.747 13.3301 -1.1762e-10)
(480.542 12.2177 -1.64904e-10)
(480.433 14.1885 1.44898e-11)
(480.052 13.5628 8.38086e-11)
(481.41 0.396734 -4.17209e-09)
(481.398 1.09201 1.30926e-09)
(481.386 1.57734 -4.1673e-10)
(481.35 2.39809 6.2929e-11)
(481.324 2.87196 1.04634e-10)
(481.272 3.68307 -3.72268e-10)
(481.224 4.19397 -4.79074e-10)
(481.164 4.92849 -4.71277e-11)
(481.086 5.54029 2.79281e-10)
(481.025 6.12306 3.75069e-10)
(480.913 6.91117 3.10344e-10)
(480.851 7.25864 3.66371e-10)
(480.707 8.30443 2.91965e-10)
(480.643 8.33244 -5.67299e-11)
(480.466 9.71196 -2.67796e-10)
(480.401 9.35067 -2.28424e-10)
(480.194 11.1152 -2.66874e-10)
(480.12 10.3345 -8.60063e-11)
(479.896 12.4766 3.0069e-10)
(479.794 11.335 2.29953e-10)
(479.585 13.6961 -1.18298e-10)
(479.397 12.5162 -1.90751e-10)
(479.285 14.6083 1.50005e-11)
(478.923 13.8737 9.98189e-11)
(480.116 0.406517 -4.14539e-09)
(480.105 1.11633 1.36704e-09)
(480.093 1.6143 -3.61442e-10)
(480.058 2.45299 7.57147e-11)
(480.034 2.93806 7.05654e-11)
(479.984 3.76893 -4.04017e-10)
(479.939 4.28947 -4.97892e-10)
(479.882 5.04547 -5.26943e-11)
(479.807 5.66557 2.80732e-10)
(479.75 6.27116 3.88249e-10)
(479.643 7.06686 2.7614e-10)
(479.585 7.43757 3.44975e-10)
(479.446 8.49144 2.80737e-10)
(479.388 8.54144 -6.30742e-11)
(479.216 9.93148 -2.6318e-10)
(479.158 9.58816 -2.12835e-10)
(478.957 11.369 -2.37565e-10)
(478.891 10.5975 -4.86871e-11)
(478.672 12.7685 2.90224e-10)
(478.58 11.617 1.78195e-10)
(478.374 14.0421 -1.06816e-10)
(478.203 12.7983 -1.70218e-10)
(478.089 15.01 5.04356e-11)
(477.747 14.1677 1.48132e-10)
(478.771 0.415639 -4.14724e-09)
(478.76 1.13905 1.33974e-09)
(478.749 1.64871 -4.38868e-10)
(478.715 2.5043 6.97742e-11)
(478.693 2.9996 1.41348e-10)
(478.645 3.84922 -3.68695e-10)
(478.602 4.37838 -5.11461e-10)
(478.548 5.15489 -5.22174e-11)
(478.477 5.78225 2.4629e-10)
(478.424 6.40976 3.12507e-10)
(478.321 7.212 2.77244e-10)
(478.269 7.60521 4.16323e-10)
(478.135 8.6661 3.0615e-10)
(478.083 8.73758 -7.5316e-11)
(477.917 10.1371 -2.58362e-10)
(477.866 9.81151 -1.91096e-10)
(477.67 11.6074 -2.62948e-10)
(477.612 10.8454 -1.14002e-10)
(477.399 13.0431 3.04365e-10)
(477.317 11.8832 2.05398e-10)
(477.114 14.3671 -1.26093e-10)
(476.96 13.0639 -1.76039e-10)
(476.843 15.3925 6.2766e-11)
(476.522 14.4437 1.21449e-10)
(477.374 0.424084 -4.22277e-09)
(477.363 1.16014 1.31801e-09)
(477.353 1.68053 -4.2855e-10)
(477.321 2.55196 5.72897e-11)
(477.3 3.0565 9.3645e-11)
(477.254 3.92384 -3.95644e-10)
(477.214 4.46062 -5.01083e-10)
(477.163 5.25665 -6.42035e-11)
(477.096 5.89021 2.60178e-10)
(477.047 6.53874 3.50482e-10)
(476.949 7.3464 2.84554e-10)
(476.901 7.76132 4.00001e-10)
(476.772 8.82808 3.19731e-10)
(476.727 8.92048 -4.11036e-11)
(476.566 10.3282 -2.53241e-10)
(476.522 10.0202 -2.14516e-10)
(476.332 11.8298 -2.57089e-10)
(476.284 11.0777 -8.01824e-11)
(476.075 13.3002 3.12439e-10)
(476.005 12.1333 2.38991e-10)
(475.805 14.6704 -5.69554e-11)
(475.667 13.3128 -1.98536e-10)
(475.548 15.7544 1.0299e-12)
(475.249 14.7001 9.39947e-11)
(475.926 0.431837 -4.16347e-09)
(475.915 1.17955 1.38696e-09)
(475.906 1.70969 -3.88094e-10)
(475.875 2.59589 9.74563e-11)
(475.856 3.10869 1.24702e-10)
(475.812 3.99272 -3.71635e-10)
(475.775 4.5361 -4.84121e-10)
(475.727 5.35069 -5.10226e-11)
(475.664 5.98938 2.68126e-10)
(475.618 6.65802 3.52067e-10)
(475.525 7.46995 2.79356e-10)
(475.482 7.90579 3.83191e-10)
(475.359 8.97717 2.95089e-10)
(475.319 9.08987 -6.59252e-11)
(475.164 10.5046 -2.93243e-10)
(475.128 10.2138 -2.62102e-10)
(474.944 12.0359 -3.10037e-10)
(474.904 11.2937 -6.84419e-11)
(474.702 13.5392 3.14464e-10)
(474.642 12.3669 2.28513e-10)
(474.446 14.9517 -7.00715e-11)
(474.325 13.5441 -1.59899e-10)
(474.203 16.095 3.94099e-11)
(473.927 14.9369 1.22857e-10)
(474.426 0.438883 -4.19705e-09)
(474.415 1.19726 1.36453e-09)
(474.407 1.73616 -4.27263e-10)
(474.377 2.63603 9.76212e-11)
(474.36 3.15607 1.1265e-10)
(474.319 4.05575 -4.00025e-10)
(474.284 4.60472 -4.73161e-10)
(474.239 5.4369 -5.69132e-11)
(474.18 6.07967 2.50417e-10)
(474.138 6.76755 3.79289e-10)
(474.049 7.58259 2.87003e-10)
(474.012 8.03856 3.78469e-10)
(473.894 9.11327 3.35021e-10)
(473.86 9.24562 -4.83094e-11)
(473.711 10.6659 -2.88261e-10)
(473.683 10.392 -2.14948e-10)
(473.505 12.225 -2.77906e-10)
(473.474 11.493 -1.15099e-10)
(473.277 13.7597 3.1623e-10)
(473.228 12.5833 2.17536e-10)
(473.037 15.2114 -1.10407e-10)
(472.931 13.7581 -1.48783e-10)
(472.809 16.4135 4.016e-11)
(472.554 15.1538 1.00432e-10)
(472.874 0.445214 -4.26506e-09)
(472.864 1.21325 1.37016e-09)
(472.857 1.7599 -3.91197e-10)
(472.828 2.67233 5.72353e-11)
(472.812 3.1986 1.19352e-10)
(472.773 4.11288 -3.54734e-10)
(472.742 4.66641 -5.13614e-10)
(472.7 5.51521 -4.98511e-11)
(472.644 6.16101 2.97655e-10)
(472.607 6.86725 3.42056e-10)
(472.523 7.68427 2.94687e-10)
(472.49 8.15961 4.3102e-10)
(472.377 9.23637 3.02911e-10)
(472.35 9.38771 -4.28871e-11)
(472.207 10.8121 -2.36011e-10)
(472.186 10.5545 -2.46185e-10)
(472.014 12.3968 -2.72152e-10)
(471.992 11.6749 -6.70881e-11)
(471.802 13.9609 2.84023e-10)
(471.764 12.7815 2.23982e-10)
(471.578 15.4494 -5.69186e-11)
(471.487 13.9553 -1.78421e-10)
(471.363 16.7088 4.72453e-11)
(471.132 15.3501 1.48011e-10)
(471.271 0.450829 -4.24487e-09)
(471.26 1.22752 1.41341e-09)
(471.254 1.78091 -3.60831e-10)
(471.227 2.70479 9.27382e-11)
(471.213 3.23626 8.1009e-11)
(471.176 4.16405 -3.97751e-10)
(471.148 4.72111 -4.82636e-10)
(471.109 5.58554 -2.24796e-11)
(471.057 6.2333 3.25951e-10)
(471.024 6.95704 3.76905e-10)
(470.944 7.77491 2.55596e-10)
(470.917 8.26889 3.87525e-10)
(470.809 9.34641 3.30884e-10)
(470.788 9.51616 -1.81868e-11)
(470.651 10.9432 -2.16853e-10)
(470.637 10.7015 -2.28401e-10)
(470.472 12.5513 -3.21514e-10)
(470.459 11.8392 -1.09616e-10)
(470.275 14.1426 2.99539e-10)
(470.248 12.9609 2.36776e-10)
(470.068 15.6655 -3.66986e-11)
(469.992 14.1358 -1.67419e-10)
(469.867 16.9803 -7.05082e-12)
(469.659 15.5251 1.00749e-10)
(469.615 0.455735 -4.32208e-09)
(469.605 1.24008 1.34476e-09)
(469.6 1.79921 -4.47321e-10)
(469.574 2.73343 4.39145e-11)
(469.562 3.26906 8.12348e-11)
(469.527 4.20929 -4.20659e-10)
(469.502 4.76881 -5.31061e-10)
(469.466 5.64787 -9.03203e-11)
(469.418 6.29649 2.40272e-10)
(469.389 7.03684 3.31496e-10)
(469.314 7.85441 2.5673e-10)
(469.291 8.36631 3.69382e-10)
(469.189 9.44335 2.84026e-10)
(469.174 9.63096 -8.37198e-11)
(469.043 11.0591 -3.08075e-10)
(469.036 10.8329 -2.67291e-10)
(468.878 12.6884 -3.15634e-10)
(468.874 11.986 -1.28104e-10)
(468.696 14.3045 2.59317e-10)
(468.68 13.1209 1.82664e-10)
(468.506 15.859 -1.28264e-10)
(468.445 14.2989 -2.04345e-10)
(468.32 17.2276 1.85687e-13)
(468.135 15.6788 8.92284e-11)
(467.908 0.459945 -4.27484e-09)
(467.898 1.25097 1.38973e-09)
(467.894 1.81485 -4.36441e-10)
(467.869 2.75829 1.08814e-10)
(467.859 3.29706 1.21664e-10)
(467.826 4.24865 -4.0169e-10)
(467.804 4.80956 -4.65422e-10)
(467.771 5.70221 -4.1293e-11)
(467.726 6.35057 2.69126e-10)
(467.701 7.10661 4.08193e-10)
(467.631 7.9227 3.13169e-10)
(467.614 8.45179 3.97854e-10)
(467.517 9.52705 3.61446e-10)
(467.508 9.73202 -3.20953e-11)
(467.383 11.1598 -2.74466e-10)
(467.384 10.9488 -2.55262e-10)
(467.231 12.8083 -3.23822e-10)
(467.236 12.1153 -9.01735e-11)
(467.065 14.4468 2.82655e-10)
(467.06 13.2613 1.83359e-10)
(466.892 16.0295 -7.90832e-11)
(466.845 14.4436 -1.80592e-10)
(466.722 17.4496 5.04907e-13)
(466.559 15.8108 1.32978e-10)
(466.149 0.46347 -4.28646e-09)
(466.14 1.2602 1.4041e-09)
(466.136 1.82787 -4.32097e-10)
(466.112 2.77944 1.16746e-10)
(466.104 3.32035 1.28813e-10)
(466.073 4.2822 -3.96826e-10)
(466.053 4.84342 -4.60334e-10)
(466.024 5.74863 -3.36467e-11)
(465.983 6.39558 2.7751e-10)
(465.962 7.16637 3.47961e-10)
(465.896 7.97973 2.51793e-10)
(465.884 8.52524 4.13182e-10)
(465.793 9.59739 3.06382e-10)
(465.79 9.81921 -8.60918e-11)
(465.671 11.2452 -2.61892e-10)
(465.679 11.0492 -2.43176e-10)
(465.533 12.9109 -3.10976e-10)
(465.547 12.2274 -7.71148e-11)
(465.382 14.5696 2.9924e-10)
(465.388 13.3825 1.96584e-10)
(465.225 16.1776 -6.55606e-11)
(465.193 14.5685 -1.6918e-10)
(465.072 17.6447 2.19649e-11)
(464.933 15.9214 1.52493e-10)
(464.338 0.46632 -4.32417e-09)
(464.328 1.26781 1.45755e-09)
(464.326 1.83832 -4.07023e-10)
(464.303 2.79693 5.85322e-11)
(464.297 3.33898 1.28919e-10)
(464.268 4.31003 -3.41196e-10)
(464.251 4.87051 -4.89678e-10)
(464.224 5.78722 -8.27451e-11)
(464.187 6.43161 2.86097e-10)
(464.17 7.21617 4.12654e-10)
(464.109 8.02555 3.02385e-10)
(464.102 8.58665 3.80542e-10)
(464.016 9.65429 3.28713e-10)
(464.02 9.89239 -1.28326e-11)
(463.906 11.315 -2.77426e-10)
(463.922 11.1338 -2.7051e-10)
(463.782 12.9961 -2.83303e-10)
(463.806 12.3223 -6.38599e-11)
(463.647 14.6732 3.0155e-10)
(463.664 13.4848 1.84604e-10)
(463.507 16.304 -9.55968e-11)
(463.488 14.6726 -1.51067e-10)
(463.371 17.8113 2.96778e-11)
(463.254 16.0102 8.42058e-11)
(462.474 0.468502 -4.37118e-09)
(462.465 1.27381 1.39368e-09)
(462.463 1.84622 -4.42883e-10)
(462.441 2.8108 4.39264e-11)
(462.437 3.35301 6.71898e-11)
(462.41 4.33219 -4.5244e-10)
(462.396 4.89089 -4.9868e-10)
(462.372 5.81808 1.09512e-11)
(462.339 6.45877 3.37196e-10)
(462.326 7.25614 4.21713e-10)
(462.269 8.06024 3.32259e-10)
(462.267 8.63609 4.3083e-10)
(462.186 9.69774 3.37057e-10)
(462.197 9.9515 -4.75234e-11)
(462.089 11.3691 -2.86033e-10)
(462.113 11.2025 -2.58118e-10)
(461.979 13.0635 -3.1368e-10)
(462.012 12.3995 -1.29165e-10)
(461.859 14.7572 2.51982e-10)
(461.888 13.5683 1.65904e-10)
(461.736 16.4088 -8.93518e-11)
(461.731 14.7568 -1.19754e-10)
(461.617 17.9495 8.93107e-11)
(461.522 16.0766 1.60835e-10)
(460.558 0.470016 -4.41884e-09)
(460.549 1.2782 1.40822e-09)
(460.548 1.85159 -4.10837e-10)
(460.527 2.82106 3.69435e-11)
(460.524 3.36247 8.78568e-11)
(460.5 4.34873 -4.03034e-10)
(460.488 4.90461 -4.93705e-10)
(460.467 5.84127 -2.44198e-11)
(460.438 6.47712 2.54003e-10)
(460.428 7.28636 3.66634e-10)
(460.376 8.0839 3.12308e-10)
(460.379 8.67367 3.69645e-10)
(460.304 9.72783 3.01864e-10)
(460.32 9.99662 -5.51666e-11)
(460.219 11.4075 -2.65705e-10)
(460.25 11.2551 -2.11849e-10)
(460.123 13.1129 -3.07365e-10)
(460.165 12.4588 -9.60551e-11)
(460.019 14.8212 3.20737e-10)
(460.059 13.6324 1.79315e-10)
(459.912 16.4919 -1.2052e-10)
(459.921 14.8213 -1.78019e-10)
(459.811 18.0603 5.23421e-11)
(459.737 16.1212 1.48618e-10)
(458.589 0.470859 -4.36869e-09)
(458.58 1.28097 1.43889e-09)
(458.58 1.85441 -4.33637e-10)
(458.56 2.8277 5.23478e-11)
(458.559 3.36735 7.41081e-11)
(458.537 4.35964 -3.8291e-10)