/*--------------------------------*- C++ -*----------------------------------*\
  =========                 |
  \\      /  F ield         | OpenFOAM: The Open Source CFD Toolbox
   \\    /   O peration     | Website:  https://openfoam.org
    \\  /    A nd           | Version:  10
     \\/     M anipulation  |
\*---------------------------------------------------------------------------*/
FoamFile
{
    format      ascii;
    class       volScalarField;
    location    "0.26";
    object      Ma;
}
// * * * * * * * * * * * * * * * * * * * * * * * * * * * * * * * * * * * * * //

dimensions      [0 0 0 0 0 0 0];

internalField   nonuniform List<scalar> 
4176
(
1.84513
1.84506
1.84486
1.84462
1.8442
1.84383
1.84318
1.84267
1.84179
1.84116
1.84005
1.83929
1.83799
1.83707
1.83562
1.83448
1.83302
1.83147
1.83016
1.82804
1.8271
1.82416
1.82399
1.82018
1.84502
1.84494
1.84474
1.84449
1.84407
1.84368
1.84302
1.84249
1.84161
1.84094
1.83983
1.83904
1.83771
1.83677
1.83527
1.83411
1.83262
1.83104
1.82969
1.82753
1.82658
1.82352
1.8233
1.81912
1.84466
1.84459
1.84439
1.84415
1.84374
1.84335
1.84273
1.84219
1.84134
1.84068
1.83961
1.83882
1.83753
1.83661
1.83514
1.83402
1.83253
1.831
1.82968
1.82758
1.82668
1.82368
1.82346
1.81915
1.84401
1.84394
1.84374
1.8435
1.8431
1.8427
1.84208
1.84155
1.8407
1.84004
1.83896
1.83819
1.83688
1.83597
1.83448
1.83337
1.83187
1.83032
1.82906
1.82689
1.82603
1.82307
1.82288
1.81877
1.84307
1.84299
1.8428
1.84256
1.84216
1.84177
1.84116
1.84064
1.83979
1.83915
1.83807
1.83731
1.83602
1.83513
1.83365
1.83257
1.83104
1.82952
1.82829
1.82611
1.82526
1.82234
1.82214
1.81816
1.84182
1.84174
1.84156
1.84132
1.84092
1.84054
1.83993
1.83941
1.83858
1.83793
1.83687
1.83611
1.83483
1.83395
1.83248
1.83142
1.82987
1.82842
1.82712
1.82501
1.82413
1.82124
1.82101
1.81703
1.84027
1.84019
1.84001
1.83977
1.83938
1.839
1.8384
1.83789
1.83707
1.83643
1.83539
1.83463
1.83337
1.8325
1.83104
1.83
1.82845
1.82707
1.8257
1.82367
1.82277
1.81993
1.81967
1.81571
1.83842
1.83835
1.83816
1.83793
1.83755
1.83717
1.83658
1.83607
1.83526
1.83463
1.8336
1.83285
1.83161
1.83075
1.8293
1.82828
1.82674
1.8254
1.82401
1.82205
1.82111
1.81832
1.81805
1.81415
1.83628
1.8362
1.83602
1.83579
1.83541
1.83504
1.83445
1.83395
1.83316
1.83253
1.83152
1.83079
1.82956
1.82871
1.82728
1.82629
1.82475
1.82346
1.82205
1.82016
1.8192
1.81646
1.81616
1.81233
1.83383
1.83376
1.83358
1.83335
1.83298
1.83261
1.83204
1.83154
1.83076
1.83014
1.82915
1.82843
1.82721
1.82638
1.82497
1.824
1.82247
1.82123
1.8198
1.81798
1.817
1.81432
1.81401
1.81024
1.83109
1.83102
1.83084
1.83062
1.83025
1.82989
1.82933
1.82884
1.82807
1.82746
1.82648
1.82578
1.82458
1.82377
1.82238
1.82143
1.81991
1.81871
1.81728
1.81553
1.81453
1.81193
1.8116
1.8079
1.82806
1.82799
1.82781
1.82759
1.82723
1.82688
1.82632
1.82584
1.82509
1.82449
1.82353
1.82284
1.82166
1.82087
1.8195
1.81857
1.81708
1.81592
1.81448
1.8128
1.81177
1.80926
1.80891
1.80529
1.82473
1.82466
1.82449
1.82427
1.82392
1.82357
1.82302
1.82256
1.82181
1.82123
1.82029
1.81961
1.81845
1.81768
1.81633
1.81543
1.81396
1.81284
1.81141
1.80979
1.80876
1.80631
1.80596
1.80241
1.82111
1.82104
1.82087
1.82066
1.82031
1.81997
1.81944
1.81898
1.81825
1.81768
1.81676
1.8161
1.81496
1.81421
1.81289
1.81202
1.81056
1.80948
1.80806
1.8065
1.80546
1.80309
1.80275
1.79927
1.81719
1.81712
1.81696
1.81675
1.81641
1.81608
1.81556
1.81511
1.8144
1.81385
1.81294
1.8123
1.81119
1.81046
1.80916
1.80832
1.80689
1.80584
1.80443
1.80294
1.8019
1.79961
1.79926
1.79587
1.81299
1.81292
1.81276
1.81256
1.81223
1.8119
1.81139
1.81096
1.81026
1.80973
1.80884
1.80822
1.80713
1.80642
1.80515
1.80434
1.80294
1.80193
1.80054
1.79911
1.79807
1.79585
1.79551
1.7922
1.8085
1.80843
1.80827
1.80808
1.80775
1.80744
1.80694
1.80652
1.80584
1.80532
1.80446
1.80385
1.80279
1.80211
1.80086
1.80008
1.79871
1.79774
1.79637
1.79501
1.79397
1.79184
1.79148
1.78827
1.80371
1.80365
1.8035
1.8033
1.80299
1.80268
1.8022
1.80179
1.80113
1.80063
1.79979
1.79921
1.79817
1.79752
1.7963
1.79555
1.79421
1.79328
1.79194
1.79064
1.7896
1.78755
1.7872
1.78408
1.79864
1.79858
1.79843
1.79824
1.79794
1.79765
1.79718
1.79678
1.79614
1.79566
1.79484
1.79429
1.79328
1.79265
1.79147
1.79075
1.78944
1.78855
1.78723
1.786
1.78497
1.783
1.78265
1.77962
1.79329
1.79322
1.79308
1.7929
1.7926
1.79232
1.79187
1.79149
1.79087
1.79041
1.78961
1.78908
1.78811
1.78751
1.78636
1.78567
1.7844
1.78355
1.78226
1.78109
1.78007
1.77819
1.77783
1.7749
1.78765
1.78758
1.78745
1.78727
1.78699
1.78672
1.78628
1.78592
1.78532
1.78488
1.78411
1.7836
1.78266
1.78209
1.78097
1.78032
1.77909
1.77828
1.77703
1.77591
1.77491
1.77311
1.77276
1.76992
1.78172
1.78166
1.78153
1.78137
1.78109
1.78083
1.78041
1.78007
1.77949
1.77907
1.77833
1.77785
1.77693
1.7764
1.77532
1.7747
1.77351
1.77274
1.77153
1.77047
1.76948
1.76778
1.76743
1.76469
1.77552
1.77546
1.77533
1.77518
1.77491
1.77467
1.77426
1.77394
1.77338
1.77299
1.77227
1.77182
1.77094
1.77043
1.76939
1.76881
1.76766
1.76694
1.76576
1.76477
1.7638
1.76218
1.76183
1.7592
1.76904
1.76898
1.76886
1.76871
1.76846
1.76823
1.76784
1.76753
1.767
1.76663
1.76594
1.76552
1.76467
1.7642
1.7632
1.76266
1.76154
1.76087
1.75974
1.7588
1.75786
1.75632
1.75599
1.75345
1.76228
1.76223
1.76211
1.76197
1.76173
1.76151
1.76114
1.76086
1.76035
1.76
1.75935
1.75895
1.75814
1.7577
1.75674
1.75624
1.75517
1.75454
1.75345
1.75257
1.75166
1.75021
1.74988
1.74746
1.75526
1.7552
1.75509
1.75496
1.75473
1.75453
1.75418
1.75391
1.75343
1.75311
1.75248
1.75212
1.75134
1.75094
1.75001
1.74956
1.74853
1.74795
1.7469
1.74608
1.74519
1.74383
1.74352
1.74121
1.74796
1.74791
1.74781
1.74768
1.74747
1.74728
1.74694
1.7467
1.74624
1.74595
1.74535
1.74502
1.74428
1.74391
1.74303
1.74261
1.74162
1.74109
1.74009
1.73933
1.73848
1.7372
1.73691
1.7347
1.74041
1.74036
1.74026
1.74014
1.73994
1.73976
1.73945
1.73922
1.73879
1.73852
1.73795
1.73766
1.73695
1.73662
1.73578
1.7354
1.73446
1.73398
1.73302
1.73233
1.73151
1.73032
1.73004
1.72794
1.73259
1.73254
1.73245
1.73234
1.73215
1.73199
1.73169
1.73149
1.73107
1.73084
1.7303
1.73004
1.72936
1.72907
1.72827
1.72794
1.72705
1.72661
1.7257
1.72506
1.72429
1.72319
1.72293
1.72092
1.72451
1.72446
1.72438
1.72428
1.7241
1.72395
1.72367
1.72349
1.7231
1.72289
1.72239
1.72216
1.72152
1.72127
1.72051
1.72022
1.71937
1.71899
1.71813
1.71755
1.71681
1.7158
1.71556
1.71366
1.71618
1.71613
1.71605
1.71596
1.7158
1.71567
1.7154
1.71524
1.71488
1.7147
1.71422
1.71402
1.71342
1.71321
1.71249
1.71225
1.71145
1.71112
1.7103
1.70978
1.70909
1.70816
1.70793
1.70615
1.7076
1.70756
1.70748
1.7074
1.70724
1.70713
1.70689
1.70674
1.70641
1.70625
1.7058
1.70564
1.70507
1.7049
1.70422
1.70403
1.70327
1.70299
1.70222
1.70176
1.70111
1.70027
1.70006
1.6984
1.69877
1.69873
1.69866
1.69859
1.69845
1.69834
1.69812
1.698
1.69769
1.69755
1.69714
1.697
1.69648
1.69634
1.69571
1.69555
1.69484
1.69461
1.6939
1.6935
1.6929
1.69213
1.69194
1.69039
1.68971
1.68967
1.6896
1.68954
1.68941
1.68932
1.68911
1.68901
1.68872
1.68862
1.68823
1.68813
1.68763
1.68754
1.68694
1.68683
1.68617
1.68599
1.68532
1.68498
1.68443
1.68374
1.68357
1.68214
1.6804
1.68036
1.68031
1.68025
1.68013
1.68005
1.67987
1.67979
1.67952
1.67944
1.67908
1.67901
1.67855
1.67849
1.67794
1.67787
1.67725
1.67712
1.6765
1.67622
1.67572
1.67511
1.67497
1.67364
1.67086
1.67083
1.67077
1.67072
1.67061
1.67055
1.67038
1.67032
1.67008
1.67002
1.6697
1.66966
1.66923
1.66921
1.66869
1.66867
1.66809
1.66802
1.66744
1.66722
1.66676
1.66623
1.66612
1.66491
1.66109
1.66106
1.66101
1.66097
1.66087
1.66082
1.66067
1.66063
1.66041
1.66038
1.66008
1.66007
1.65968
1.65969
1.65921
1.65923
1.65869
1.65867
1.65813
1.65798
1.65757
1.65711
1.65703
1.65593
1.6511
1.65107
1.65103
1.65099
1.6509
1.65087
1.65073
1.6507
1.65051
1.6505
1.65023
1.65025
1.64989
1.64994
1.6495
1.64957
1.64907
1.64909
1.6486
1.6485
1.64813
1.64774
1.64771
1.64672
1.64088
1.64085
1.64082
1.64078
1.64071
1.64069
1.64057
1.64056
1.64038
1.6404
1.64015
1.6402
1.63987
1.63996
1.63956
1.63967
1.63921
1.63929
1.63883
1.6388
1.63847
1.63815
1.63815
1.63727
1.63045
1.63042
1.63039
1.63036
1.6303
1.63029
1.63018
1.63019
1.63003
1.63007
1.62985
1.62993
1.62964
1.62976
1.62939
1.62954
1.62912
1.62925
1.62884
1.62886
1.62858
1.62832
1.62836
1.62759
1.6198
1.61977
1.61974
1.61972
1.61967
1.61967
1.61958
1.6196
1.61947
1.61953
1.61933
1.61944
1.61918
1.61933
1.619
1.61919
1.61881
1.61899
1.61862
1.6187
1.61846
1.61828
1.61835
1.61767
1.60894
1.60891
1.60888
1.60887
1.60883
1.60884
1.60876
1.60881
1.60869
1.60877
1.6086
1.60874
1.6085
1.60869
1.60839
1.60863
1.60828
1.60851
1.60818
1.60832
1.60812
1.60801
1.60812
1.60752
1.59786
1.59784
1.59782
1.59781
1.59778
1.5978
1.59774
1.5978
1.5977
1.5978
1.59766
1.59782
1.59761
1.59784
1.59757
1.59784
1.59753
1.59781
1.59751
1.59772
1.59755
1.59752
1.59766
1.59716
1.58659
1.58656
1.58655
1.58655
1.58652
1.58655
1.58651
1.58658
1.58651
1.58663
1.58651
1.5867
1.58652
1.58678
1.58653
1.58685
1.58657
1.5869
1.58664
1.58691
1.58677
1.58682
1.58697
1.58658
1.57511
1.57508
1.57507
1.57508
1.57506
1.57511
1.57508
1.57516
1.57511
1.57525
1.57516
1.57537
1.57522
1.57551
1.5753
1.57565
1.5754
1.57579
1.57555
1.57588
1.57577
1.5759
1.57607
1.57578
1.56343
1.56341
1.5634
1.56341
1.56341
1.56346
1.56344
1.56355
1.56351
1.56367
1.5636
1.56384
1.56372
1.56404
1.56386
1.56425
1.56403
1.56447
1.56426
1.56465
1.56456
1.56477
1.56496
1.56476
1.55156
1.55154
1.55153
1.55155
1.55155
1.55162
1.55162
1.55174
1.55172
1.5519
1.55185
1.55212
1.55202
1.55237
1.55222
1.55266
1.55247
1.55295
1.55277
1.55323
1.55315
1.55344
1.55364
1.55355
1.5395
1.53948
1.53948
1.5395
1.53951
1.53959
1.5396
1.53974
1.53974
1.53994
1.53991
1.5402
1.54013
1.54051
1.54039
1.54087
1.54071
1.54124
1.54108
1.5416
1.54154
1.54191
1.54211
1.54213
1.52725
1.52723
1.52724
1.52727
1.52729
1.52738
1.5274
1.52755
1.52757
1.52779
1.52779
1.5281
1.52806
1.52847
1.52838
1.52889
1.52875
1.52933
1.5292
1.52979
1.52974
1.5302
1.53039
1.53052
1.51483
1.51481
1.51482
1.51486
1.51489
1.51498
1.51502
1.51518
1.51522
1.51546
1.51548
1.51582
1.5158
1.51624
1.51617
1.51672
1.51661
1.51725
1.51712
1.51778
1.51774
1.5183
1.51847
1.5187
1.50224
1.50222
1.50223
1.50227
1.50231
1.50241
1.50247
1.50264
1.5027
1.50296
1.50299
1.50335
1.50336
1.50383
1.50379
1.50438
1.50429
1.50498
1.50487
1.50559
1.50555
1.5062
1.50638
1.5067
1.48947
1.48946
1.48947
1.48952
1.48957
1.48968
1.48974
1.48993
1.49
1.49028
1.49034
1.49072
1.49075
1.49125
1.49123
1.49186
1.49179
1.49253
1.49243
1.49323
1.49318
1.49392
1.4941
1.49451
1.47655
1.47654
1.47656
1.47661
1.47666
1.47678
1.47686
1.47706
1.47715
1.47744
1.47752
1.47792
1.47797
1.47851
1.4785
1.47917
1.47911
1.47991
1.47981
1.4807
1.48063
1.48145
1.48164
1.48214
1.46348
1.46346
1.46349
1.46354
1.4636
1.46373
1.46382
1.46403
1.46413
1.46444
1.46453
1.46497
1.46502
1.4656
1.4656
1.46632
1.46626
1.46713
1.46702
1.46797
1.46793
1.46881
1.46901
1.46958
1.45026
1.45025
1.45027
1.45033
1.4504
1.45053
1.45063
1.45086
1.45097
1.4513
1.4514
1.45186
1.45192
1.45254
1.45254
1.45332
1.45324
1.45418
1.45407
1.45508
1.45505
1.45599
1.4562
1.45685
1.4369
1.43689
1.43692
1.43698
1.43705
1.43719
1.4373
1.43754
1.43766
1.43801
1.43812
1.43861
1.43867
1.43933
1.43932
1.44016
1.44008
1.44106
1.44097
1.44203
1.44201
1.443
1.44323
1.44395
1.42341
1.4234
1.42343
1.42349
1.42358
1.42372
1.42384
1.42408
1.42421
1.42458
1.42469
1.42522
1.42527
1.42598
1.42596
1.42684
1.42678
1.42779
1.42772
1.42881
1.42882
1.42986
1.43009
1.43089
1.4098
1.40978
1.40982
1.40988
1.40997
1.41012
1.41025
1.4105
1.41063
1.41103
1.41113
1.41169
1.41174
1.41248
1.41247
1.41337
1.41333
1.41437
1.41432
1.41544
1.41547
1.41655
1.4168
1.41766
1.39607
1.39605
1.3961
1.39616
1.39626
1.3964
1.39654
1.3968
1.39693
1.39735
1.39745
1.39803
1.39809
1.39884
1.39886
1.39977
1.39975
1.40081
1.40078
1.40193
1.40197
1.4031
1.40335
1.40428
1.38223
1.38221
1.38226
1.38232
1.38243
1.38257
1.38272
1.38298
1.38312
1.38354
1.38366
1.38424
1.38432
1.38508
1.38511
1.38604
1.38603
1.38711
1.38711
1.38828
1.38834
1.3895
1.38976
1.39075
1.36829
1.36827
1.36831
1.36838
1.36848
1.36863
1.36879
1.36904
1.36921
1.36962
1.36975
1.37034
1.37043
1.37119
1.37124
1.37218
1.37219
1.37329
1.3733
1.37449
1.37457
1.37577
1.37603
1.37707
1.35424
1.35423
1.35427
1.35434
1.35444
1.35459
1.35476
1.355
1.35519
1.35558
1.35574
1.35632
1.35643
1.3572
1.35726
1.35821
1.35824
1.35934
1.35937
1.36058
1.36067
1.3619
1.36217
1.36326
1.3401
1.34009
1.34013
1.3402
1.3403
1.34045
1.34062
1.34086
1.34107
1.34144
1.34164
1.34219
1.34233
1.34309
1.34317
1.34412
1.34417
1.34528
1.34532
1.34655
1.34665
1.34791
1.34819
1.34932
1.32587
1.32585
1.3259
1.32596
1.32607
1.32622
1.32639
1.32663
1.32685
1.32721
1.32743
1.32797
1.32813
1.32888
1.32898
1.32993
1.32999
1.33111
1.33117
1.33241
1.33253
1.33381
1.33409
1.33526
1.31155
1.31153
1.31157
1.31164
1.31175
1.3119
1.31207
1.31231
1.31254
1.31289
1.31312
1.31365
1.31383
1.31458
1.3147
1.31564
1.31572
1.31685
1.31691
1.31817
1.31829
1.3196
1.31988
1.32109
1.29714
1.29712
1.29716
1.29722
1.29733
1.29748
1.29766
1.2979
1.29813
1.29848
1.29872
1.29925
1.29944
1.30018
1.30032
1.30127
1.30135
1.30249
1.30257
1.30384
1.30397
1.30529
1.30557
1.30682
1.28263
1.28261
1.28265
1.28272
1.28283
1.28298
1.28316
1.2834
1.28364
1.28398
1.28424
1.28476
1.28497
1.28571
1.28585
1.28681
1.2869
1.28805
1.28813
1.28941
1.28955
1.29089
1.29117
1.29245
1.26804
1.26802
1.26806
1.26813
1.26824
1.26839
1.26857
1.26881
1.26906
1.26941
1.26968
1.27019
1.27042
1.27116
1.27131
1.27227
1.27238
1.27353
1.27362
1.27491
1.27506
1.27641
1.27669
1.27799
1.25335
1.25333
1.25338
1.25344
1.25356
1.25372
1.25391
1.25415
1.25441
1.25475
1.25504
1.25555
1.2558
1.25653
1.2567
1.25767
1.25778
1.25893
1.25904
1.26033
1.26049
1.26185
1.26214
1.26346
1.23859
1.23857
1.23862
1.23868
1.23881
1.23897
1.23916
1.23941
1.23968
1.24003
1.24034
1.24083
1.24111
1.24183
1.24202
1.243
1.24311
1.24428
1.24439
1.24569
1.24585
1.24722
1.24751
1.24885
1.22375
1.22373
1.22378
1.22386
1.22398
1.22415
1.22435
1.22461
1.22489
1.22524
1.22557
1.22606
1.22637
1.22707
1.2273
1.22825
1.22839
1.22956
1.22968
1.23098
1.23114
1.23252
1.23281
1.23416
1.20887
1.20885
1.2089
1.20898
1.20911
1.20928
1.20949
1.20976
1.21004
1.2104
1.21074
1.21123
1.21157
1.21225
1.21252
1.21345
1.21361
1.21478
1.2149
1.2162
1.21637
1.21775
1.21804
1.2194
1.19396
1.19394
1.19399
1.19407
1.19421
1.19438
1.1946
1.19487
1.19516
1.19552
1.19587
1.19636
1.19672
1.19739
1.19768
1.19859
1.19878
1.19993
1.20007
1.20136
1.20154
1.20292
1.2032
1.20456
1.17906
1.17904
1.17909
1.17917
1.1793
1.17948
1.17969
1.17996
1.18025
1.18061
1.18097
1.18145
1.18182
1.18247
1.18279
1.18367
1.1839
1.18501
1.18516
1.18645
1.18663
1.188
1.18828
1.18965
1.16421
1.16419
1.16423
1.16431
1.16443
1.1646
1.1648
1.16506
1.16534
1.16569
1.16604
1.1665
1.16688
1.1675
1.16785
1.16868
1.16894
1.17002
1.17019
1.17147
1.17165
1.17301
1.17328
1.17464
1.14942
1.14939
1.14943
1.1495
1.1496
1.14976
1.14994
1.15018
1.15044
1.15077
1.1511
1.15154
1.1519
1.15249
1.15284
1.15364
1.15392
1.15495
1.15515
1.1564
1.15657
1.15793
1.15818
1.15955
1.13469
1.13466
1.13469
1.13474
1.13483
1.13496
1.13512
1.13533
1.13556
1.13586
1.13616
1.13656
1.13689
1.13745
1.13778
1.13853
1.13881
1.1398
1.14001
1.14122
1.14139
1.14275
1.14299
1.14436
1.11999
1.11996
1.11997
1.12001
1.12008
1.12019
1.12032
1.1205
1.12069
1.12095
1.12121
1.12157
1.12187
1.12238
1.12267
1.12337
1.12363
1.12457
1.12476
1.12595
1.1261
1.12746
1.12769
1.12906
1.10525
1.10521
1.10522
1.10524
1.1053
1.10538
1.10549
1.10564
1.1058
1.10602
1.10625
1.10656
1.10682
1.10728
1.10752
1.10818
1.10839
1.10928
1.10943
1.11058
1.1107
1.11205
1.11225
1.11364
1.09036
1.09031
1.09032
1.09032
1.09038
1.09044
1.09055
1.09067
1.09083
1.09101
1.09121
1.09149
1.09172
1.09214
1.09232
1.09298
1.09307
1.094
1.09402
1.09518
1.0952
1.09653
1.09669
1.09805
1.07518
1.07512
1.07514
1.07514
1.0752
1.07526
1.07538
1.07549
1.07565
1.07583
1.07603
1.07629
1.07651
1.0769
1.07707
1.07772
1.07773
1.07868
1.0786
1.07976
1.07969
1.08098
1.08107
1.08233
1.05957
1.05952
1.05953
1.05956
1.05962
1.05971
1.05983
1.05998
1.06015
1.06036
1.06058
1.06086
1.06111
1.06149
1.0617
1.06231
1.06236
1.06327
1.06318
1.06433
1.0642
1.06549
1.0655
1.0667
1.0434
1.04336
1.04338
1.04343
1.04352
1.04364
1.04379
1.04399
1.04421
1.04447
1.04474
1.04507
1.04538
1.0458
1.0461
1.04669
1.04685
1.04772
1.04769
1.04886
1.0487
1.05004
1.04999
1.0512
1.0266
1.02656
1.0266
1.02666
1.02678
1.02694
1.02715
1.0274
1.02768
1.02801
1.02837
1.02878
1.02918
1.02968
1.03009
1.03075
1.03103
1.03195
1.032
1.03326
1.03311
1.03454
1.03446
1.03577
1.00912
1.00907
1.00913
1.00921
1.00937
1.00956
1.00983
1.01013
1.0105
1.01089
1.01135
1.01184
1.01237
1.01298
1.01352
1.0143
1.01472
1.01579
1.01595
1.01737
1.01729
1.01889
1.01881
1.02029
0.99097
0.990925
0.990998
0.991097
0.99128
0.991513
0.991817
0.99217
0.992602
0.993064
0.993616
0.994198
0.994843
0.995565
0.996257
0.997154
0.997771
0.999002
0.999346
1.00097
1.00104
1.00289
1.00287
1.00463
0.972229
0.97219
0.972261
0.972383
0.972575
0.972842
0.973167
0.973569
0.974031
0.974567
0.975163
0.975839
0.976555
0.977382
0.978198
0.979195
0.980043
0.981329
0.98201
0.98373
0.984106
0.986242
0.986388
0.988582
0.952997
0.952961
0.953031
0.953162
0.953361
0.953642
0.953982
0.954405
0.954892
0.955458
0.95609
0.956809
0.957577
0.958464
0.959359
0.960431
0.961424
0.962743
0.963737
0.965445
0.96624
0.968524
0.968975
0.971733
0.933395
0.933361
0.933427
0.933559
0.933759
0.93404
0.934383
0.93481
0.935303
0.935875
0.936518
0.937247
0.938035
0.938936
0.939864
0.940958
0.942008
0.943348
0.944475
0.946151
0.94725
0.949491
0.950268
0.953473
0.913552
0.913515
0.913577
0.913704
0.913898
0.914171
0.914507
0.914923
0.915409
0.915966
0.916602
0.917314
0.918095
0.918976
0.919898
0.920968
0.922016
0.923331
0.924453
0.926104
0.927212
0.929406
0.930232
0.933433
0.893589
0.893547
0.893604
0.893722
0.893906
0.894165
0.894487
0.894882
0.89535
0.89588
0.896496
0.897172
0.897929
0.898766
0.899659
0.900676
0.901692
0.902939
0.904012
0.905602
0.9066
0.908747
0.909442
0.912381
0.87361
0.873563
0.873613
0.87372
0.873891
0.874132
0.874436
0.874804
0.875249
0.875744
0.87633
0.876961
0.877683
0.878465
0.879316
0.880265
0.881232
0.882397
0.883408
0.884899
0.885818
0.88784
0.888477
0.891198
0.853707
0.853653
0.853698
0.85379
0.853949
0.854167
0.854452
0.854789
0.855208
0.855661
0.856217
0.856794
0.85748
0.858195
0.859002
0.859875
0.860788
0.861855
0.862812
0.864191
0.865042
0.866913
0.867509
0.870023
0.833952
0.833891
0.833935
0.834007
0.834159
0.834348
0.834618
0.834915
0.835315
0.835715
0.836248
0.836757
0.837416
0.838051
0.838822
0.839606
0.840468
0.841437
0.84233
0.843603
0.844388
0.846104
0.846667
0.848973
0.814408
0.814341
0.814384
0.814434
0.814581
0.814737
0.814997
0.815248
0.815636
0.815972
0.816493
0.816921
0.817567
0.818103
0.818858
0.81953
0.820361
0.82122
0.822055
0.823217
0.823949
0.825503
0.826037
0.828135
0.795124
0.795054
0.795089
0.795129
0.795257
0.795396
0.795629
0.795853
0.796208
0.796504
0.796989
0.79736
0.79797
0.798429
0.79915
0.799724
0.800519
0.80127
0.802058
0.803097
0.803782
0.805175
0.805685
0.807577
0.776141
0.776069
0.776092
0.776129
0.77623
0.776363
0.776557
0.77677
0.777073
0.777353
0.777776
0.778123
0.778663
0.779084
0.779733
0.780249
0.780979
0.781633
0.782388
0.783285
0.783938
0.785169
0.785658
0.787348
0.757489
0.757415
0.757429
0.757459
0.75754
0.75766
0.757824
0.758018
0.75828
0.758536
0.758905
0.759224
0.759698
0.760083
0.76066
0.761123
0.761786
0.762357
0.763068
0.763818
0.764452
0.765529
0.765996
0.767489
0.739193
0.739119
0.739123
0.739147
0.739211
0.739315
0.739454
0.739625
0.739853
0.740079
0.740404
0.740686
0.741107
0.741447
0.741963
0.742368
0.74297
0.743459
0.74412
0.744744
0.745361
0.746279
0.746727
0.748028
0.721274
0.7212
0.721197
0.721212
0.721262
0.721348
0.721466
0.721612
0.721811
0.722005
0.722291
0.722534
0.722907
0.7232
0.723661
0.724007
0.72455
0.724962
0.725571
0.726083
0.726684
0.72744
0.727874
0.728987
0.703747
0.703673
0.703663
0.703672
0.703704
0.703781
0.703873
0.703999
0.704167
0.704332
0.704581
0.704786
0.705114
0.70536
0.70577
0.706058
0.706547
0.706885
0.707438
0.707854
0.708427
0.709029
0.709454
0.710385
0.686626
0.68655
0.686537
0.686533
0.686561
0.686612
0.686695
0.68679
0.686938
0.687069
0.687286
0.687453
0.68774
0.68794
0.688303
0.688534
0.688972
0.68924
0.689744
0.690067
0.690603
0.691063
0.69148
0.692239
0.669917
0.669843
0.669819
0.66982
0.669818
0.669876
0.66992
0.670011
0.670121
0.670232
0.670412
0.670545
0.670793
0.670949
0.671267
0.671445
0.671834
0.672036
0.672487
0.672731
0.673221
0.673554
0.673961
0.67456
0.653628
0.653552
0.653532
0.653507
0.653525
0.653533
0.653595
0.653637
0.653744
0.653814
0.653972
0.654067
0.65428
0.654394
0.65467
0.654796
0.655138
0.655277
0.655682
0.655843
0.656291
0.656513
0.656909
0.657355
0.637763
0.637691
0.637656
0.637645
0.637622
0.637655
0.637663
0.637719
0.637778
0.63784
0.63796
0.638027
0.638204
0.638278
0.638514
0.638591
0.63889
0.638969
0.639327
0.639416
0.639818
0.639944
0.640328
0.640623
0.622324
0.622249
0.622222
0.622183
0.622184
0.622165
0.622199
0.622199
0.622268
0.622284
0.62239
0.62242
0.622568
0.622602
0.622802
0.622833
0.62309
0.623113
0.62343
0.623447
0.62381
0.623847
0.62421
0.624366
0.607311
0.60724
0.607202
0.607173
0.607143
0.60714
0.60713
0.607142
0.607166
0.607178
0.607247
0.607254
0.607369
0.607369
0.607533
0.607521
0.60774
0.607709
0.607986
0.607939
0.608264
0.608218
0.608555
0.608583
0.592724
0.592652
0.592618
0.592571
0.592551
0.592516
0.592518
0.592489
0.592518
0.592491
0.592548
0.592521
0.59261
0.592576
0.592707
0.592653
0.592836
0.592755
0.592994
0.592884
0.593173
0.59305
0.593358
0.593272
0.57856
0.578491
0.578451
0.578406
0.578371
0.578336
0.578314
0.578283
0.578282
0.578246
0.578273
0.578226
0.578285
0.578221
0.57832
0.578229
0.578376
0.578249
0.578451
0.578283
0.578537
0.578339
0.578619
0.578431
0.564817
0.564748
0.56471
0.564655
0.56462
0.564569
0.564545
0.56449
0.564483
0.56442
0.564432
0.564358
0.564395
0.5643
0.564371
0.564243
0.564359
0.564187
0.564356
0.564133
0.564355
0.564087
0.564342
0.564057
0.55149
0.551424
0.551382
0.551326
0.551282
0.551226
0.551188
0.551124
0.5511
0.551022
0.551014
0.550918
0.550931
0.550809
0.550853
0.550693
0.550778
0.550566
0.550704
0.55043
0.550624
0.550289
0.550525
0.550149
0.538574
0.538509
0.538469
0.538403
0.538362
0.53829
0.538251
0.53817
0.538134
0.538041
0.538014
0.537899
0.53789
0.537744
0.537763
0.537571
0.53763
0.53738
0.53749
0.53717
0.537337
0.536942
0.537161
0.5367
0.526063
0.526001
0.525955
0.525896
0.525838
0.525772
0.525713
0.525629
0.525578
0.52547
0.525428
0.525294
0.525266
0.525096
0.525093
0.524873
0.524907
0.524622
0.524707
0.524342
0.524488
0.524036
0.52424
0.523703
0.51395
0.513888
0.513849
0.513773
0.513731
0.513636
0.51359
0.513481
0.513428
0.513303
0.513248
0.513096
0.51305
0.512859
0.512835
0.512589
0.5126
0.512283
0.512346
0.511942
0.512066
0.511563
0.511755
0.511147
0.502229
0.502171
0.502123
0.502061
0.501992
0.501919
0.50184
0.501743
0.501665
0.501536
0.501463
0.501298
0.501235
0.501024
0.500982
0.500712
0.500703
0.500357
0.500398
0.499957
0.500063
0.499512
0.499691
0.499023
0.490891
0.490833
0.490793
0.490712
0.490664
0.490558
0.490501
0.490372
0.490303
0.49015
0.490073
0.489889
0.489813
0.489584
0.489524
0.489232
0.489204
0.488832
0.488853
0.488379
0.488468
0.487875
0.488043
0.487317
0.479929
0.479875
0.479826
0.47976
0.479687
0.479602
0.479512
0.479402
0.479303
0.479156
0.479057
0.478866
0.478774
0.478529
0.478453
0.478142
0.478096
0.477699
0.477702
0.477198
0.477272
0.47664
0.476797
0.476019
0.469335
0.469281
0.469238
0.469159
0.469099
0.468991
0.468918
0.468779
0.468692
0.46852
0.468422
0.468212
0.468111
0.46785
0.467759
0.46743
0.467368
0.46695
0.466936
0.466405
0.466462
0.465796
0.465943
0.465118
0.459098
0.459049
0.459
0.45893
0.458855
0.458759
0.458664
0.458536
0.458426
0.458259
0.458143
0.457927
0.457812
0.457539
0.457434
0.457088
0.457011
0.456573
0.456543
0.455988
0.456031
0.455332
0.455469
0.454603
0.449214
0.449164
0.44912
0.449042
0.448974
0.448864
0.448777
0.448632
0.448526
0.448343
0.448224
0.447995
0.447871
0.447585
0.447467
0.447107
0.447015
0.44656
0.446515
0.445938
0.445966
0.445239
0.445366
0.444462
0.43967
0.439625
0.439576
0.439505
0.439426
0.439323
0.439222
0.439081
0.438963
0.438778
0.438648
0.438412
0.438277
0.43798
0.437851
0.437478
0.437373
0.436902
0.436841
0.436246
0.43626
0.435507
0.435625
0.434683
0.430461
0.430415
0.430371
0.430292
0.430222
0.430106
0.430011
0.429859
0.42974
0.429546
0.42941
0.429166
0.429022
0.428715
0.428576
0.42819
0.428073
0.427587
0.427515
0.426901
0.426901
0.426127
0.426234
0.42526
0.421575
0.421534
0.421485
0.421414
0.421332
0.421225
0.421118
0.420968
0.420841
0.420643
0.420501
0.420249
0.420098
0.419781
0.419633
0.419236
0.419108
0.41861
0.418524
0.417896
0.417883
0.417089
0.417186
0.416183
0.413007
0.412965
0.412921
0.412843
0.412769
0.41265
0.412549
0.41239
0.412263
0.412058
0.411911
0.411652
0.411494
0.41117
0.411013
0.410607
0.41047
0.409959
0.409864
0.409221
0.409198
0.408387
0.408474
0.407446
0.404745
0.404706
0.40466
0.404585
0.404506
0.404391
0.404283
0.404125
0.403991
0.403784
0.403631
0.403367
0.403203
0.402871
0.402708
0.402292
0.402148
0.401626
0.401524
0.400868
0.400837
0.40001
0.400089
0.399045
0.396782
0.396745
0.396699
0.396625
0.396544
0.396429
0.396319
0.396157
0.396022
0.395809
0.395654
0.395383
0.395216
0.394876
0.394708
0.394283
0.394134
0.393601
0.393495
0.392825
0.392791
0.391949
0.392025
0.390965
0.389109
0.389074
0.38903
0.388952
0.388876
0.388754
0.388647
0.388479
0.388344
0.388127
0.387969
0.387693
0.387522
0.387176
0.387004
0.386571
0.386418
0.385876
0.385765
0.385084
0.385046
0.384192
0.384264
0.383195
0.381718
0.381685
0.381639
0.381567
0.381483
0.381369
0.381252
0.38109
0.380947
0.38073
0.380567
0.380289
0.380113
0.379763
0.379586
0.379147
0.378989
0.37844
0.378324
0.377635
0.377592
0.376729
0.376797
0.375718
0.374602
0.374569
0.374527
0.374448
0.374373
0.374247
0.374141
0.373966
0.373831
0.373605
0.373443
0.373159
0.372981
0.372626
0.372445
0.372002
0.371839
0.371284
0.371163
0.370468
0.37042
0.36955
0.369611
0.368525
0.36775
0.36772
0.367674
0.367604
0.367517
0.367404
0.367283
0.36712
0.366972
0.366752
0.366583
0.366299
0.366116
0.365759
0.365574
0.365127
0.364959
0.3644
0.364273
0.363574
0.36352
0.362644
0.362701
0.361606
0.361157
0.361126
0.361086
0.361006
0.360934
0.360803
0.360699
0.360519
0.360382
0.360151
0.359986
0.359696
0.359513
0.359151
0.358963
0.358513
0.358341
0.357778
0.357646
0.356943
0.356884
0.356002
0.356053
0.354955
0.354813
0.354786
0.354739
0.354672
0.354582
0.354472
0.354346
0.354184
0.354032
0.353809
0.353636
0.353347
0.35316
0.352797
0.352606
0.352153
0.351976
0.351411
0.351275
0.350568
0.350504
0.349618
0.349665
0.34856
0.348712
0.348683
0.348646
0.348563
0.348495
0.34836
0.348259
0.348073
0.347938
0.347701
0.347535
0.34724
0.347053
0.346686
0.346494
0.346038
0.345859
0.345291
0.34515
0.344441
0.344372
0.343483
0.343526
0.342417
0.342846
0.342822
0.342775
0.34271
0.342619
0.34251
0.342382
0.342219
0.342065
0.34184
0.341665
0.341372
0.341183
0.340814
0.34062
0.340162
0.33998
0.33941
0.339266
0.338555
0.338482
0.33759
0.337628
0.336518
0.337209
0.337182
0.337146
0.337064
0.336996
0.336861
0.33676
0.336572
0.336437
0.336196
0.336031
0.33573
0.335544
0.335171
0.334977
0.334516
0.334334
0.333761
0.333615
0.332902
0.332825
0.331934
0.331967
0.330856
0.331792
0.33177
0.331725
0.331659
0.331571
0.331458
0.331334
0.331167
0.331015
0.330785
0.330613
0.330314
0.330127
0.329751
0.329559
0.329093
0.328913
0.328336
0.328191
0.327474
0.327398
0.326503
0.326534
0.325424
0.326592
0.326567
0.326531
0.326451
0.326382
0.326248
0.326146
0.325958
0.325823
0.32558
0.325416
0.325111
0.324927
0.324547
0.324358
0.323888
0.323711
0.323128
0.322987
0.322266
0.322191
0.321293
0.321324
0.320214
0.321599
0.321577
0.321534
0.321467
0.321383
0.321266
0.321147
0.320974
0.320828
0.320592
0.320424
0.320118
0.319937
0.319553
0.319368
0.318892
0.31872
0.318132
0.317996
0.317267
0.3172
0.316297
0.316328
0.315221
0.316808
0.316785
0.316749
0.316671
0.316601
0.316469
0.316366
0.316179
0.316045
0.315799
0.315639
0.315327
0.315151
0.314761
0.314583
0.3141
0.313935
0.313338
0.313212
0.312475
0.312415
0.311507
0.31154
0.310438
0.312213
0.312193
0.312152
0.312082
0.312004
0.311881
0.31177
0.31159
0.311451
0.311208
0.311048
0.310734
0.310562
0.310167
0.309995
0.309504
0.309348
0.308744
0.308625
0.307881
0.307828
0.306919
0.306952
0.305856
0.30781
0.307788
0.307751
0.307676
0.307605
0.307475
0.307372
0.307185
0.307053
0.306804
0.30665
0.306331
0.306164
0.305764
0.305598
0.305101
0.304953
0.304341
0.30423
0.303482
0.303433
0.302523
0.302556
0.301466
0.30359
0.303569
0.303531
0.303459
0.303385
0.303259
0.303153
0.302968
0.302836
0.302586
0.302435
0.302113
0.301951
0.301547
0.301386
0.300885
0.300743
0.300125
0.300023
0.299267
0.299223
0.298315
0.298346
0.29726
0.29955
0.299529
0.299493
0.299418
0.299349
0.299218
0.299117
0.298928
0.298801
0.298548
0.298401
0.298075
0.297918
0.29751
0.297355
0.296848
0.296714
0.296088
0.295995
0.295235
0.295196
0.294285
0.294317
0.293236
0.295684
0.295663
0.295628
0.295553
0.295484
0.295353
0.295254
0.295064
0.29494
0.294683
0.294542
0.294211
0.294062
0.293645
0.293501
0.292984
0.292861
0.292229
0.292143
0.291379
0.291341
0.290436
0.290464
0.28939
0.291987
0.291967
0.291932
0.291856
0.29179
0.291656
0.291562
0.291366
0.29125
0.290986
0.290853
0.290514
0.290376
0.289948
0.289818
0.289289
0.28918
0.288538
0.288459
0.287694
0.287659
0.286755
0.286783
0.285716
0.288455
0.288434
0.288401
0.288324
0.28826
0.288124
0.288034
0.287834
0.287724
0.287453
0.287331
0.286981
0.286856
0.286416
0.2863
0.285761
0.285661
0.285015
0.284941
0.284175
0.284141
0.283242
0.283267
0.282208
0.285082
0.285062
0.285029
0.284952
0.28489
0.284751
0.284666
0.284461
0.284358
0.28408
0.283968
0.283609
0.283495
0.283047
0.282939
0.282396
0.2823
0.281653
0.281582
0.280818
0.280784
0.279889
0.279912
0.278861
0.281866
0.281845
0.281814
0.281734
0.281677