/*--------------------------------*- C++ -*----------------------------------*\
  =========                 |
  \\      /  F ield         | OpenFOAM: The Open Source CFD Toolbox
   \\    /   O peration     | Website:  https://openfoam.org
    \\  /    A nd           | Version:  10
     \\/     M anipulation  |
\*---------------------------------------------------------------------------*/
FoamFile
{
    format      ascii;
    class       surfaceScalarField;
    location    "0.26";
    object      phi;
}
// * * * * * * * * * * * * * * * * * * * * * * * * * * * * * * * * * * * * * //

dimensions      [1 0 -1 0 0 0 0];

internalField   nonuniform List<scalar> 
8154
(
-5.81626e-09
-2.2103e-08
-5.69394e-08
-9.21938e-08
-1.72032e-07
-2.26557e-07
-3.70143e-07
-4.53617e-07
-6.73474e-07
-8.12259e-07
-1.10338e-06
-1.33608e-06
-1.6671e-06
-2.02692e-06
-2.3599e-06
-2.86732e-06
-3.2598e-06
-3.98768e-06
-4.56525e-06
-5.50768e-06
-6.82557e-06
-7.26449e-06
-6.84139e-06
-0.000277439
-0.000832369
2.40277e-08
-0.00138746
9.62315e-08
-0.00194288
2.13188e-07
-0.00249867
3.77774e-07
-0.00305503
5.767e-07
-0.00361203
8.23026e-07
-0.00416973
1.08829e-06
-0.00472846
1.39822e-06
-0.00528791
1.71206e-06
-0.00584879
2.05759e-06
-0.00641057
2.4036e-06
-0.00697379
2.74924e-06
-0.00753867
3.12135e-06
-0.00810413
3.43728e-06
-0.00867313
3.85127e-06
-0.00924024
4.12542e-06
-0.00981489
4.57108e-06
-0.0103833
4.92283e-06
-0.0109645
5.13964e-06
-0.0115338
5.27805e-06
-0.0121235
5.11196e-06
-0.0126949
4.03237e-06
-0.0132929
2.45238e-06
-0.000277463
-0.000832442
2.63361e-08
-0.00138758
1.04758e-07
-0.00194305
2.34562e-07
-0.00249887
4.0986e-07
-0.00305528
6.34627e-07
-0.00361229
8.89131e-07
-0.00417004
1.19453e-06
-0.00472877
1.50163e-06
-0.00528825
1.8679e-06
-0.00584913
2.19204e-06
-0.00641092
2.59395e-06
-0.00697416
2.8937e-06
-0.00753898
3.29993e-06
-0.00810453
3.54036e-06
-0.0086734
3.90603e-06
-0.00924069
4.10485e-06
-0.00981524
4.38793e-06
-0.0103835
5.00069e-06
-0.0109647
4.66732e-06
-0.0115337
5.2304e-06
-0.0121224
5.32752e-06
-0.0126933
5.04245e-06
-0.0132905
4.23141e-06
-0.000277489
-0.00083252
2.12686e-08
-0.00138771
8.48587e-08
-0.00194322
1.87875e-07
-0.0024991
3.30189e-07
-0.00305553
5.01298e-07
-0.00361259
7.06924e-07
-0.00417035
9.22571e-07
-0.00472913
1.16697e-06
-0.00528857
1.39499e-06
-0.00584954
1.6431e-06
-0.00641121
1.8468e-06
-0.00697456
2.0505e-06
-0.00753922
2.19825e-06
-0.00810489
2.28508e-06
-0.0086736
2.35602e-06
-0.00924097
2.20714e-06
-0.00981586
2.3423e-06
-0.0103832
1.89823e-06
-0.0109652
1.78326e-06
-0.0115338
1.39162e-06
-0.0121221
1.15005e-06
-0.0126925
7.22401e-07
-0.0132863
5.19181e-07
-0.00027751
-0.000832583
2.54999e-08
-0.00138781
1.01808e-07
-0.00194337
2.25829e-07
-0.00249927
3.97461e-07
-0.00305574
6.0504e-07
-0.00361281
8.55272e-07
-0.00417059
1.11943e-06
-0.00472936
1.42116e-06
-0.00528882
1.70337e-06
-0.00584974
2.0181e-06
-0.00641142
2.27252e-06
-0.00697471
2.5489e-06
-0.00753931
2.73444e-06
-0.00810496
2.89637e-06
-0.00867346
2.98804e-06
-0.00924111
2.89895e-06
-0.00981542
2.97399e-06
-0.0103831
2.28135e-06
-0.0109649
2.5182e-06
-0.0115335
1.7247e-06
-0.0121217
1.20225e-06
-0.0126923
3.80932e-07
-0.0132857
-1.69234e-07
-0.000277536
-0.00083266
3.36122e-08
-0.00138794
1.34167e-07
-0.00194354
2.98972e-07
-0.00249948
5.26111e-07
-0.00305599
8.07392e-07
-0.00361307
1.14133e-06
-0.00417089
1.51195e-06
-0.00472964
1.91976e-06
-0.00528914
2.33991e-06
-0.00584999
2.77453e-06
-0.00641169
3.19452e-06
-0.0069749
3.5964e-06
-0.00753947
3.96485e-06
-0.00810505
4.25999e-06
-0.00867337
4.52506e-06
-0.00924118
4.61689e-06
-0.00981473
4.73092e-06
-0.0103833
4.39885e-06
-0.0109641
4.36625e-06
-0.011533
3.67264e-06
-0.0121209
3.21012e-06
-0.0126917
2.27074e-06
-0.0132859
1.34958e-06
-0.000277569
-0.00083276
3.75361e-08
-0.0013881
1.49839e-07
-0.00194377
3.34186e-07
-0.00249976
5.88159e-07
-0.00305632
9.0386e-07
-0.00361344
1.27806e-06
-0.0041713
1.69619e-06
-0.00473006
2.15455e-06
-0.00528957
2.63184e-06
-0.00585041
3.12217e-06
-0.00641209
3.60278e-06
-0.00697526
4.05854e-06
-0.00753977
4.48229e-06
-0.00810531
4.8227e-06
-0.00867346
5.12704e-06
-0.0092413
5.25186e-06
-0.0098144
5.37018e-06
-0.0103832
5.08068e-06
-0.0109634
4.96583e-06
-0.0115325
4.21577e-06
-0.0121199
3.67835e-06
-0.0126908
2.63883e-06
-0.0132846
1.61157e-06
-0.000277607
-0.000832872
4.1374e-08
-0.00138829
1.65172e-07
-0.00194402
3.68501e-07
-0.00250007
6.48683e-07
-0.0030567
9.97391e-07
-0.00361386
1.41097e-06
-0.00417176
1.87406e-06
-0.00473054
2.38249e-06
-0.00529006
2.91324e-06
-0.0058509
3.46021e-06
-0.00641255
3.99691e-06
-0.00697569
4.50937e-06
-0.00754011
4.98303e-06
-0.00810561
5.37187e-06
-0.00867359
5.71017e-06
-0.00924142
5.86475e-06
-0.00981412
5.99815e-06
-0.0103831
5.71729e-06
-0.0109626
5.59572e-06
-0.011532
4.8105e-06
-0.0121189
4.20343e-06
-0.0126898
2.98968e-06
-0.013283
1.7934e-06
-0.000277648
-0.000832996
4.50768e-08
-0.00138849
1.79943e-07
-0.0019443
4.01515e-07
-0.00250042
7.06697e-07
-0.00305711
1.08687e-06
-0.00361432
1.5375e-06
-0.00417227
2.04315e-06
-0.00473107
2.59808e-06
-0.00529061
3.1796e-06
-0.00585143
3.77886e-06
-0.00641306
4.36971e-06
-0.00697616
4.93432e-06
-0.0075405
5.45719e-06
-0.00810594
5.88968e-06
-0.00867375
6.26085e-06
-0.00924155
6.44337e-06
-0.00981384
6.582e-06
-0.010383
6.32733e-06
-0.0109619
6.1753e-06
-0.0115314
5.37408e-06
-0.0121177
4.82924e-06
-0.0126886
3.36207e-06
-0.0132812
2.01429e-06
-0.000277693
-0.000833131
4.87321e-08
-0.00138871
1.94513e-07
-0.00194461
4.34021e-07
-0.0025008
7.63714e-07
-0.00305756
1.17451e-06
-0.00361483
1.66109e-06
-0.00417282
2.20758e-06
-0.00473165
2.8071e-06
-0.0052912
3.4367e-06
-0.00585202
4.0859e-06
-0.00641363
4.72796e-06
-0.00697668
5.34291e-06
-0.00754093
5.91292e-06
-0.00810631
6.38804e-06
-0.00867393
6.79071e-06
-0.00924169
6.99847e-06
-0.00981359
7.1374e-06
-0.0103828
6.90183e-06
-0.0109611
6.72627e-06
-0.0115307
5.91127e-06
-0.0121163
4.86071e-06
-0.0126872
3.71152e-06
-0.0132792
2.20765e-06
-0.000277742
-0.000833277
5.23374e-08
-0.00138895
2.08879e-07
-0.00194494
4.66054e-07
-0.00250121
8.19846e-07
-0.00305805
1.26064e-06
-0.00361538
1.78226e-06
-0.00417342
2.36824e-06
-0.00473228
3.01058e-06
-0.00529185
3.68585e-06
-0.00585266
4.38222e-06
-0.00641424
5.07233e-06
-0.00697725
5.73464e-06
-0.0075414
6.34931e-06
-0.00810671
6.86535e-06
-0.00867414
7.29893e-06
-0.00924182
7.53011e-06
-0.00981336
7.66795e-06
-0.0103826
7.44749e-06
-0.0109602
7.2485e-06
-0.0115301
6.39562e-06
-0.0121148
5.59964e-06
-0.0126857
4.03272e-06
-0.013277
2.3995e-06
-0.000277794
-0.000833433
5.59064e-08
-0.00138921
2.23105e-07
-0.00194529
4.97784e-07
-0.00250165
8.75474e-07
-0.00305857
1.34599e-06
-0.00361596
1.90225e-06
-0.00417406
2.52706e-06
-0.00473295
3.21121e-06
-0.00529255
3.93054e-06
-0.00585335
4.67197e-06
-0.0064149
5.40725e-06
-0.00697786
6.11389e-06
-0.00754192
6.77002e-06
-0.00810714
7.32464e-06
-0.00867437
7.78829e-06
-0.00924196
8.0441e-06
-0.00981314
8.18823e-06
-0.0103824
7.97004e-06
-0.0109594
7.74377e-06
-0.0115292
6.86297e-06
-0.0121132
6.00853e-06
-0.0126841
4.35718e-06
-0.0132746
2.58567e-06
-0.00027785
-0.0008336
5.94306e-08
-0.00138948
2.3716e-07
-0.00194567
5.29166e-07
-0.00250212
9.30567e-07
-0.00305913
1.4306e-06
-0.00361659
2.02134e-06
-0.00417475
2.68468e-06
-0.00473367
3.41018e-06
-0.00529329
4.17263e-06
-0.00585409
4.95763e-06
-0.00641561
5.73577e-06
-0.00697852
6.48375e-06
-0.00754247
7.17775e-06
-0.00810761
7.76737e-06
-0.00867462
8.25817e-06
-0.00924211
8.53704e-06
-0.00981292
8.68802e-06
-0.0103822
8.46787e-06
-0.0109585
8.20691e-06
-0.0115284
7.28756e-06
-0.0121116
6.37594e-06
-0.0126823
4.65208e-06
-0.013272
2.75653e-06
-0.00027791
-0.000833778
6.29089e-08
-0.00138978
2.51039e-07
-0.00194607
5.60184e-07
-0.00250262
9.85102e-07
-0.00305972
1.51449e-06
-0.00361725
2.13961e-06
-0.00417547
2.8414e-06
-0.00473444
3.60816e-06
-0.00529408
4.41344e-06
-0.00585487
5.24134e-06
-0.00641636
6.06094e-06
-0.00697921
6.84804e-06
-0.00754306
7.57668e-06
-0.0081081
8.19753e-06
-0.0086749
8.71175e-06
-0.00924226
9.01051e-06
-0.0098127
9.16594e-06
-0.0103819
8.94665e-06
-0.0109576
8.64563e-06
-0.0115275
7.68063e-06
-0.0121098
6.70827e-06
-0.0126804
4.89601e-06
-0.0132692
2.90418e-06
-0.000277972
-0.000833966
6.63431e-08
-0.00139009
2.64742e-07
-0.00194649
5.9082e-07
-0.00250315
1.039e-06
-0.00306034
1.59748e-06
-0.00361795
2.25675e-06
-0.00417624
2.99686e-06
-0.00473524
3.80485e-06
-0.0052949
4.65291e-06
-0.00585569
5.52359e-06
-0.00641714
6.38415e-06
-0.00697994
7.20915e-06
-0.00754368
7.97019e-06
-0.00810861
8.61889e-06
-0.0086752
9.15239e-06
-0.00924241
9.46698e-06
-0.00981248
9.62523e-06
-0.0103816
9.40878e-06
-0.0109566
9.06565e-06
-0.0115265
8.05603e-06
-0.012108
7.0132e-06
-0.0126784
5.05551e-06
-0.0132663
3.03062e-06
-0.000278039
-0.000834164
6.97406e-08
-0.00139041
2.7829e-07
-0.00194694
6.2109e-07
-0.00250371
1.09223e-06
-0.003061
1.6794e-06
-0.00361869
2.3724e-06
-0.00417705
3.15039e-06
-0.00473609
3.9993e-06
-0.00529577
4.89003e-06
-0.00585655
5.80351e-06
-0.00641797
6.7051e-06
-0.0069807
7.56782e-06
-0.00754433
8.36046e-06
-0.00810914
9.03501e-06
-0.00867552
9.58429e-06
-0.00924257
9.90978e-06
-0.00981226
1.00668e-05
-0.0103813
9.85077e-06
-0.0109556
9.46649e-06
-0.0115255
8.41814e-06
-0.0121061
7.31305e-06
-0.0126764
5.27658e-06
-0.0132633
3.16285e-06
-0.000278108
-0.000834373
7.3105e-08
-0.00139075
2.91697e-07
-0.00194741
6.51e-07
-0.0025043
1.14473e-06
-0.0030617
1.76005e-06
-0.00361947
2.48607e-06
-0.00417789
3.30115e-06
-0.00473698
4.19022e-06
-0.00529669
5.12298e-06
-0.00585745
6.07897e-06
-0.00641883
7.02168e-06
-0.00698149
7.92246e-06
-0.007545
8.74714e-06
-0.00810969
9.4474e-06
-0.00867584
1.00113e-05
-0.00924273
1.03442e-05
-0.00981204
1.04935e-05
-0.0103809
1.0265e-05
-0.0109546
9.84648e-06
-0.0115244
8.76095e-06
-0.012104
7.59479e-06
-0.0126743
5.49506e-06
-0.0132601
3.28536e-06
-0.000278182
-0.000834591
7.64275e-08
-0.00139111
3.04923e-07
-0.00194791
6.80449e-07
-0.00250492
1.1963e-06
-0.00306242
1.83904e-06
-0.00362029
2.59712e-06
-0.00417878
3.44807e-06
-0.00473791
4.37599e-06
-0.00529764
5.34949e-06
-0.00585839
6.34698e-06
-0.00641973
7.33031e-06
-0.00698231
8.26929e-06
-0.0075457
9.12685e-06
-0.00811026
9.85394e-06
-0.00867617
1.04336e-05
-0.00924288
1.07743e-05
-0.00981181
1.09144e-05
-0.0103805
1.06698e-05
-0.0109535
1.02163e-05
-0.0115232
9.09434e-06
-0.0121019
7.86642e-06
-0.0126721
5.69527e-06
-0.0132568
3.39921e-06
-0.000278258
-0.000834819
7.96827e-08
-0.00139149
3.17866e-07
-0.00194842
7.09225e-07
-0.00250556
1.24658e-06
-0.00306318
1.91587e-06
-0.00362114
2.70481e-06
-0.00417971
3.59013e-06
-0.00473888
4.55512e-06
-0.00529864
5.56745e-06
-0.00585937
6.60464e-06
-0.00642067
7.6272e-06
-0.00698317
8.6037e-06
-0.00754643
9.49451e-06
-0.00811084
1.02497e-05
-0.00867651
1.08474e-05
-0.00924302
1.11979e-05
-0.00981155
1.13308e-05
-0.01038
1.1072e-05
-0.0109524
1.05795e-05
-0.011522
9.42437e-06
-0.0120998
8.13484e-06
-0.0126698
5.88933e-06
-0.0132534
3.5071e-06
-0.000278338
-0.000835058
8.2813e-08
-0.00139188
3.30308e-07
-0.00194896
7.3687e-07
-0.00250623
1.29485e-06
-0.00306397
1.98952e-06
-0.00362202
2.80786e-06
-0.00418068
3.72574e-06
-0.00473989
4.72568e-06
-0.00529968
5.77442e-06
-0.00586039
6.84878e-06
-0.00642165
7.90817e-06
-0.00698406
8.92034e-06
-0.00754719
9.84359e-06
-0.00811144
1.06273e-05
-0.00867687
1.12452e-05
-0.00924315
1.16085e-05
-0.00981129
1.17381e-05
-0.0103795
1.14677e-05
-0.0109512
1.09361e-05
-0.0115207
9.75461e-06
-0.0120975
8.40545e-06
-0.0126674
6.08291e-06
-0.0132499
3.61241e-06
-0.00027842
-0.000835305
8.57415e-08
-0.00139229
3.41951e-07
-0.00194952
7.62762e-07
-0.00250692
1.3401e-06
-0.00306479
2.05861e-06
-0.00362294
2.90456e-06
-0.00418168
3.85294e-06
-0.00474094
4.88545e-06
-0.00530075
5.96789e-06
-0.00586145
7.07639e-06
-0.00642266
8.16945e-06
-0.00698498
9.21429e-06
-0.00754797
1.01677e-05
-0.00811206
1.09788e-05
-0.00867723
1.16177e-05
-0.00924328
1.19965e-05
-0.00981101
1.21278e-05
-0.010379
1.18503e-05
-0.01095
1.12839e-05
-0.0115193
1.0084e-05
-0.0120952
8.68043e-06
-0.012665
6.28226e-06
-0.0132463
3.7197e-06
-0.000278506
-0.000835561
8.83793e-08
-0.00139271
3.52451e-07
-0.00195009
7.86163e-07
-0.00250764
1.38111e-06
-0.00306563
2.12143e-06
-0.00362389
2.99274e-06
-0.00418271
3.96918e-06
-0.00474203
5.03161e-06
-0.00530186
6.14481e-06
-0.00586255
7.28418e-06
-0.0064237
8.40732e-06
-0.00698593
9.48104e-06
-0.00754878
1.0461e-05
-0.00811269
1.12965e-05
-0.00867761
1.1955e-05
-0.00924341
1.23499e-05
-0.00981073
1.2487e-05
-0.0103785
1.22096e-05
-0.0109488
1.16227e-05
-0.0115179
1.04049e-05
-0.0120928
8.95169e-06
-0.0126624
6.48863e-06
-0.0132425
3.83212e-06
-0.000278595
-0.000835825
9.06403e-08
-0.00139314
3.61466e-07
-0.00195069
8.06326e-07
-0.00250838
1.41661e-06
-0.0030665
2.17609e-06
-0.00362487
3.06988e-06
-0.00418377
4.07138e-06
-0.00474314
5.16065e-06
-0.005303
6.3014e-06
-0.00586367
7.46821e-06
-0.00642478
8.61765e-06
-0.00698691
9.71611e-06
-0.00754961
1.07182e-05
-0.00811335
1.1574e-05
-0.00867801
1.22486e-05
-0.00924355
1.26572e-05
-0.00981045
1.28002e-05
-0.0103779
1.25266e-05
-0.0109476
1.193e-05
-0.0115165
1.06954e-05
-0.0120904
9.20029e-06
-0.0126598
6.69204e-06
-0.0132387
3.94686e-06
-0.000278685
-0.000836096
9.2454e-08
-0.00139359
3.68714e-07
-0.0019513
8.226e-07
-0.00250914
1.44543e-06
-0.0030674
2.22076e-06
-0.00362587
3.1334e-06
-0.00418486
4.15617e-06
-0.00474428
5.26849e-06
-0.00530416
6.43304e-06
-0.00586482
7.62355e-06
-0.00642587
8.7954e-06
-0.00698792
9.91441e-06
-0.00755047
1.09343e-05
-0.00811403
1.18053e-05
-0.00867842
1.24913e-05
-0.00924369
1.29095e-05
-0.00981017
1.30555e-05
-0.0103773
1.27836e-05
-0.0109464
1.21765e-05
-0.011515
1.0932e-05
-0.0120879
9.40088e-06
-0.012657
6.86667e-06
-0.0132347
4.04781e-06
-0.000278778
-0.000836373
9.37728e-08
-0.00139404
3.73994e-07
-0.00195192
8.34504e-07
-0.00250992
1.46663e-06
-0.00306831
2.25388e-06
-0.00362689
3.18091e-06
-0.00418597
4.22021e-06
-0.00474544
5.35078e-06
-0.00530535
6.53446e-06
-0.00586599
7.74424e-06
-0.00642699
8.93424e-06
-0.00698893
1.00696e-05
-0.00755134
1.11027e-05
-0.00811471
1.19843e-05
-0.00867884
1.26767e-05
-0.00924384
1.30993e-05
-0.0098099
1.32441e-05
-0.0103767
1.29706e-05
-0.0109451
1.23508e-05
-0.0115134
1.10992e-05
-0.0120853
9.5269e-06
-0.0126542
6.96818e-06
-0.0132307
4.10232e-06
-0.000278871
-0.000836653
9.45851e-08
-0.0013945
3.7725e-07
-0.00195255
8.41872e-07
-0.0025107
1.47984e-06
-0.00306924
2.27466e-06
-0.00362793
3.21106e-06
-0.0041871
4.26135e-06
-0.00474663
5.40449e-06
-0.00530656
6.60164e-06
-0.00586718
7.82555e-06
-0.00642813
9.02886e-06
-0.00698997
1.01766e-05
-0.00755222
1.12188e-05
-0.00811541
1.21073e-05
-0.00867926
1.28012e-05
-0.00924399
1.32241e-05
-0.00980962
1.33622e-05
-0.0103761
1.30838e-05
-0.0109439
1.24495e-05
-0.0115119
1.11929e-05
-0.0120828
9.56828e-06
-0.0126513
6.95913e-06
-0.0132266
4.08475e-06
-0.000278966
-0.000836936
9.52714e-08
-0.00139497
3.79995e-07
-0.00195319
8.48073e-07
-0.0025115
1.49095e-06
-0.00307017
2.29217e-06
-0.00362898
3.2366e-06
-0.00418824
4.29659e-06
-0.00474782
5.45124e-06
-0.00530779
6.66151e-06
-0.00586838
7.90013e-06
-0.00642927
9.11897e-06
-0.00699101
1.02825e-05
-0.00755311
1.13396e-05
-0.0081161
1.22414e-05
-0.00867968
1.29448e-05
-0.00924413
1.33753e-05
-0.00980934
1.35152e-05
-0.0103754
1.3239e-05
-0.0109426
1.25992e-05
-0.0115102
1.13437e-05
-0.0120802
9.68841e-06
-0.0126484
7.05055e-06
-0.0132225
4.19286e-06
-0.000279061
-0.00083722
9.55642e-08
-0.00139543
3.8116e-07
-0.00195384
8.507e-07
-0.0025123
1.49566e-06
-0.00307112
2.29964e-06
-0.00363004
3.24767e-06
-0.0041894
4.31221e-06
-0.00474903
5.4727e-06
-0.00530903
6.69028e-06
-0.0058696
7.93796e-06
-0.00643044
9.1676e-06
-0.00699207
1.03434e-05
-0.00755401
1.14135e-05
-0.0081168
1.2328e-05
-0.00868011
1.30421e-05
-0.00924427
1.3481e-05
-0.00980907
1.36248e-05
-0.0103748
1.33509e-05
-0.0109413
1.27062e-05
-0.0115086
1.14489e-05
-0.0120776
9.78699e-06
-0.0126455
7.1349e-06
-0.0132183
4.36913e-06
-0.000279157
-0.000837506
9.53531e-08
-0.0013959
3.80307e-07
-0.00195448
8.48785e-07
-0.00251311
1.49229e-06
-0.00307207
2.29448e-06
-0.00363111
3.24051e-06
-0.00419056
4.30304e-06
-0.00475025
5.46188e-06
-0.00531027
6.67851e-06
-0.00587083
7.9267e-06
-0.00643161
9.15866e-06
-0.00699314
1.03391e-05
-0.00755492
1.14159e-05
-0.00811752
1.23387e-05
-0.00868054
1.30612e-05
-0.00924441
1.35074e-05
-0.0098088
1.36545e-05
-0.0103741
1.33819e-05
-0.0109401
1.27308e-05
-0.0115069
1.1475e-05
-0.0120749
9.80934e-06
-0.0126426
7.18611e-06
-0.0132141
3.95116e-06
-0.000279252
-0.000837791
9.46753e-08
-0.00139637
3.77596e-07
-0.00195512
8.42715e-07
-0.00251391
1.4816e-06
-0.00307301
2.27798e-06
-0.00363217
3.2172e-06
-0.00419172
4.27204e-06
-0.00475147
5.42275e-06
-0.00531152
6.63115e-06
-0.00587206
7.87192e-06
-0.00643279
9.09798e-06
-0.00699421
1.02751e-05
-0.00755585
1.13518e-05
-0.00811824
1.22779e-05
-0.00868099
1.30063e-05
-0.00924456
1.346e-05
-0.00980852
1.36133e-05
-0.0103735
1.33451e-05
-0.0109388
1.26896e-05
-0.0115053
1.14332e-05
-0.0120723
9.7555e-06
-0.0126398
7.16469e-06
-0.0132098
3.9216e-06
-0.000279347
-0.000838074
9.35573e-08
-0.00139684
3.73138e-07
-0.00195576
8.32778e-07
-0.0025147
1.46418e-06
-0.00307395
2.25122e-06
-0.00363322
3.1795e-06
-0.00419287
4.22195e-06
-0.00475268
5.35922e-06
-0.00531276
6.55342e-06
-0.00587329
7.78013e-06
-0.00643397
8.99304e-06
-0.00699529
1.01592e-05
-0.00755677
1.12283e-05
-0.00811897
1.21514e-05
-0.00868144
1.28817e-05
-0.00924471
1.33425e-05
-0.00980825
1.35057e-05
-0.0103728
1.32494e-05
-0.0109376
1.26e-05
-0.0115036
1.13468e-05
-0.0120697
9.64938e-06
-0.0126368
7.0893e-06
-0.0132056
4.20149e-06
-0.000279441
-0.000838354
9.20262e-08
-0.0013973
3.67047e-07
-0.00195639
8.19239e-07
-0.00251549
1.44054e-06
-0.00307488
2.21508e-06
-0.00363427
3.12885e-06
-0.004194
4.15503e-06
-0.00475387
5.27468e-06
-0.00531399
6.45016e-06
-0.0058745
7.65785e-06
-0.00643514
8.852e-06
-0.00699636
1.0001e-05
-0.00755769
1.10553e-05
-0.0081197
1.19684e-05
-0.0086819
1.26945e-05
-0.00924488
1.31588e-05
-0.009808
1.33332e-05
-0.0103722
1.30954e-05
-0.0109363
1.24665e-05
-0.0115019
1.12359e-05
-0.0120671
9.5458e-06
-0.0126339
7.01874e-06
-0.0132014
4.16648e-06
-0.000279533
-0.000838629
9.01222e-08
-0.00139775
3.5948e-07
-0.00195702
8.02441e-07
-0.00251627
1.41125e-06
-0.00307579
2.17048e-06
-0.00363529
3.06658e-06
-0.00419512
4.07321e-06
-0.00475505
5.17191e-06
-0.0053152
6.32536e-06
-0.00587569
7.51066e-06
-0.00643629
8.6824e-06
-0.00699741
9.80997e-06
-0.00755861
1.08444e-05
-0.00812042
1.17414e-05
-0.00868236
1.24563e-05
-0.00924505
1.29179e-05
-0.00980776
1.30995e-05
-0.0103715
1.28809e-05
-0.0109351
1.2281e-05
-0.0115002
1.10893e-05
-0.0120646
9.43621e-06
-0.0126311
6.93862e-06
-0.0131972
4.12145e-06
-0.000279623
-0.000838899
8.79037e-08
-0.00139819
3.50664e-07
-0.00195762
7.82865e-07
-0.00251703
1.37712e-06
-0.00307669
2.11853e-06
-0.0036363
2.99417e-06
-0.00419622
3.97833e-06
-0.0047562
5.05325e-06
-0.00531638
6.18212e-06
-0.00587687
7.34278e-06
-0.00643741
8.49011e-06
-0.00699845
9.59417e-06
-0.0075595
1.06061e-05
-0.00812114
1.14831e-05
-0.00868282
1.21817e-05
-0.00924523
1.26338e-05
-0.00980754
1.28155e-05
-0.0103709
1.26108e-05
-0.0109339
1.20403e-05
-0.0114985
1.08952e-05
-0.0120621
9.29245e-06
-0.0126282
6.85855e-06
-0.0131931
4.06674e-06
-0.000279711
-0.000839162
8.54454e-08
-0.00139863
3.40888e-07
-0.00195822
7.61128e-07
-0.00251777
1.33916e-06
-0.00307756
2.06066e-06
-0.00363728
2.91341e-06
-0.00419729
3.87249e-06
-0.00475733
4.92102e-06
-0.00531754
6.02302e-06
-0.00587801
7.15722e-06
-0.00643852
8.27896e-06
-0.00699946
9.35888e-06
-0.00756038
1.03479e-05
-0.00812184
1.12044e-05
-0.00868327
1.18846e-05
-0.00924542
1.23235e-05
-0.00980733
1.24982e-05
-0.0103704
1.22987e-05
-0.0109328
1.17498e-05
-0.0114969
1.06489e-05
-0.0120597
9.11033e-06
-0.0126254
6.77663e-06
-0.013189
4.00708e-06
-0.000279796
-0.000839417
8.28294e-08
-0.00139905
3.30475e-07
-0.0019588
7.37927e-07
-0.00251849
1.29854e-06
-0.00307842
1.99853e-06
-0.00363824
2.82644e-06
-0.00419834
3.75818e-06
-0.00475843
4.77791e-06
-0.00531868
5.85069e-06
-0.00587913
6.95646e-06
-0.0064396
8.0513e-06
-0.00700045
9.10671e-06
-0.00756123
1.00736e-05
-0.00812252
1.09111e-05
-0.00868371
1.15748e-05
-0.00924559
1.2001e-05
-0.00980713
1.21661e-05
-0.0103698
1.19652e-05
-0.0109317
1.14258e-05
-0.0114954
1.03549e-05
-0.0120573
8.87553e-06
-0.0126227
6.64994e-06
-0.013185
3.93056e-06
-0.000279879
-0.000839665
8.0132e-08
-0.00139945
3.19724e-07
-0.00195936
7.13925e-07
-0.00251919
1.25639e-06
-0.00307924
1.93383e-06
-0.00363918
2.73549e-06
-0.00419936
3.6381e-06
-0.00475951
4.62691e-06
-0.00531978
5.66814e-06
-0.00588023
6.74314e-06
-0.00644065
7.80911e-06
-0.00700141
8.83876e-06
-0.00756207
9.78364e-06
-0.00812318
1.06038e-05
-0.00868414
1.12547e-05
-0.00924576
1.16724e-05
-0.00980694
1.18322e-05
-0.0103693
1.16304e-05
-0.0109306
1.10948e-05
-0.0114939
1.00397e-05
-0.0120551
8.59257e-06
-0.0126199
6.42297e-06
-0.0131811
3.82021e-06
-0.000279959
-0.000839905
7.74108e-08
-0.00139985
3.08868e-07
-0.0019599
6.89641e-07
-0.00251987
1.21362e-06
-0.00308005
1.86797e-06
-0.00364008
2.64252e-06
-0.00420035
3.51478e-06
-0.00476055
4.47102e-06
-0.00532086
5.4786e-06
-0.00588129
6.5203e-06
-0.00644168
7.55472e-06
-0.00700236
8.55612e-06
-0.00756289
9.47736e-06
-0.00812383
1.02802e-05
-0.00868455
1.09204e-05
-0.00924592
1.13346e-05
-0.00980674
1.14965e-05
-0.0103687
1.13015e-05
-0.0109296
1.07762e-05
-0.0114925
9.73754e-06
-0.0120529
8.31317e-06
-0.0126173
6.19101e-06
-0.0131773
3.67737e-06
-0.000280037
-0.000840136
7.46973e-08
-0.00140023
2.98033e-07
-0.00196042
6.65372e-07
-0.00252052
1.1708e-06
-0.00308082
1.80184e-06
-0.00364095
2.54885e-06
-0.00420131
3.39005e-06
-0.00476156
4.31259e-06
-0.0053219
5.28488e-06
-0.00588233
6.29098e-06
-0.00644268
7.2909e-06
-0.00700328
8.26059e-06
-0.0075637
9.15471e-06
-0.00812446
9.93731e-06
-0.00868497
1.05659e-05
-0.00924608
1.09777e-05
-0.00980655
1.11481e-05
-0.0103682
1.09687e-05
-0.0109285
1.04676e-05
-0.011491
9.45572e-06
-0.0120508
8.05848e-06
-0.0126148
5.97453e-06
-0.0131736
3.49172e-06
-0.000280111
-0.000840359
7.19906e-08
-0.0014006
2.87221e-07
-0.00196093
6.41132e-07
-0.00252115
1.12797e-06
-0.00308157
1.73559e-06
-0.00364179
2.45481e-06
-0.00420223
3.26449e-06
-0.00476253
4.15255e-06
-0.0053229
5.08836e-06
-0.00588333
6.05696e-06
-0.00644365
7.01963e-06
-0.00700417
7.95396e-06
-0.00756448
8.81647e-06
-0.00812509
9.57374e-06
-0.00868538
1.01856e-05
-0.00924626
1.05913e-05
-0.00980637
1.07703e-05
-0.0103677
1.06109e-05
-0.0109275
1.01479e-05
-0.0114897
9.18012e-06
-0.0120487
7.83598e-06
-0.0126124
5.7945e-06
-0.0131701
3.31815e-06
-0.000280183
-0.000840575
6.92686e-08
-0.00140095
2.76344e-07
-0.00196142
6.16739e-07
-0.00252176
1.08483e-06
-0.00308229
1.66878e-06
-0.0036426
2.35986e-06
-0.00420312
3.13753e-06
-0.00476347
3.99039e-06
-0.00532387
4.88871e-06
-0.00588429
5.81825e-06
-0.00644459
6.74146e-06
-0.00700503
7.63717e-06
-0.00756524
8.46373e-06
-0.0081257
9.18972e-06
-0.00868579
9.77753e-06
-0.00924643
1.01688e-05
-0.00980621
1.03499e-05
-0.0103672
1.02052e-05
-0.0109265
9.78373e-06
-0.0114883
8.86886e-06
-0.0120467
7.6092e-06
-0.0126099
5.6484e-06
-0.0131668
3.2938e-06
-0.000280252
-0.000840781
6.64809e-08
-0.00140129
2.65207e-07
-0.00196189
5.91755e-07
-0.00252235
1.04062e-06
-0.00308298
1.60028e-06
-0.00364338
2.26242e-06
-0.00420397
3.00715e-06
-0.00476436
3.82368e-06
-0.0053248
4.68317e-06
-0.00588521
5.57192e-06
-0.00644548
6.45362e-06
-0.00700585
7.30783e-06
-0.00756597
8.09477e-06
-0.00812629
8.78398e-06
-0.00868618
9.34038e-06
-0.00924661
9.70737e-06
-0.00980607
9.87971e-06
-0.0103668
9.7377e-06
-0.0109256
9.3476e-06
-0.0114871
8.47669e-06
-0.0120447
7.30529e-06
-0.0126075
5.43594e-06
-0.0131635
3.2282e-06
-0.000280319
-0.00084098
6.35586e-08
-0.00140162
2.53522e-07
-0.00196233
5.65537e-07
-0.00252291
9.94212e-07
-0.00308364
1.52834e-06
-0.00364413
2.16006e-06
-0.00420479
2.8701e-06
-0.00476522
3.64835e-06
-0.00532569
4.46667e-06
-0.00588609
5.31228e-06
-0.00644633
6.14952e-06
-0.00700664
6.95968e-06
-0.00756666
7.70282e-06
-0.00812685
8.35157e-06
-0.00868654
8.86864e-06
-0.00924678
9.20486e-06
-0.00980592
9.35422e-06
-0.0103664
9.20562e-06
-0.0109247
8.82368e-06
-0.0114859
7.98493e-06
-0.0120428
6.87846e-06
-0.0126053
5.10047e-06
-0.0131603
3.04468e-06
-0.000280382
-0.000841169
6.0754e-08
-0.00140193
2.42291e-07
-0.00196276
5.40345e-07
-0.00252344
9.49645e-07
-0.00308427
1.45931e-06
-0.00364484
2.06197e-06
-0.00420557
2.73895e-06
-0.00476604
3.48091e-06
-0.00532653
4.26018e-06
-0.00588692
5.06541e-06
-0.00644714
5.86109e-06
-0.00700738
6.63129e-06
-0.0075673
7.33428e-06
-0.00812737
7.94793e-06
-0.00868688
8.42874e-06
-0.00924693
8.73975e-06
-0.00980576
8.8658e-06
-0.010366
8.71489e-06
-0.0109239
8.32993e-06
-0.0114848
7.52172e-06
-0.0120411
6.4552e-06
-0.0126032
4.75825e-06
-0.0131572
2.81625e-06
-0.000280443
-0.00084135
5.82745e-08
-0.00140223
2.32367e-07
-0.00196317
5.18106e-07
-0.00252395
9.10363e-07
-0.00308488
1.39863e-06
-0.00364552
1.97602e-06
-0.00420631
2.62456e-06
-0.00476682
3.33544e-06
-0.00532734
4.08193e-06
-0.00588772
4.85333e-06
-0.00644791
5.61602e-06
-0.00700808
6.35445e-06
-0.00756792
7.0291e-06
-0.00812786
7.61719e-06
-0.00868719
8.07792e-06
-0.00924705
8.37387e-06
-0.0098056
8.49782e-06
-0.0103657
8.35197e-06
-0.0109231
7.98462e-06
-0.0114838
7.20273e-06
-0.0120394
6.19649e-06
-0.0126013
4.55552e-06
-0.0131544
2.73789e-06
-0.000280501
-0.000841524
5.55862e-08
-0.00140251
2.21607e-07
-0.00196357
4.94007e-07
-0.00252444
8.67835e-07
-0.00308546
1.33301e-06
-0.00364616
1.88319e-06
-0.00420702
2.50109e-06
-0.00476757
3.17843e-06
-0.00532811
3.88942e-06
-0.00588848
4.62405e-06
-0.00644865
5.3509e-06
-0.00700875
6.05464e-06
-0.0075685
6.69846e-06
-0.00812833
7.25847e-06
-0.00868749
7.69819e-06
-0.00924717
7.97832e-06
-0.00980544
8.10229e-06
-0.0103653
7.96223e-06
-0.0109223
7.61353e-06
-0.0114828
6.85279e-06
-0.0120378
5.89592e-06
-0.0125995
4.30852e-06
-0.0131517
2.65512e-06
-0.000280556
-0.000841689
5.26604e-08
-0.00140278
2.09891e-07
-0.00196394
4.67792e-07
-0.00252491
8.21627e-07
-0.00308601
1.26183e-06
-0.00364678
1.78265e-06
-0.0042077
2.36754e-06
-0.00476828
3.00871e-06
-0.00532884
3.68136e-06
-0.0058892
4.37622e-06
-0.00644935
5.06421e-06
-0.00700939
5.73026e-06
-0.00756906
6.34043e-06
-0.00812878
6.86963e-06
-0.00868777
7.28653e-06
-0.00924729
7.54978e-06
-0.00980529
7.67462e-06
-0.0103649
7.54264e-06
-0.0109216
7.22086e-06
-0.0114818
6.4843e-06
-0.0120362
5.57021e-06
-0.0125978
4.02289e-06
-0.013149
2.4547e-06
-0.000280609
-0.000841846
4.94743e-08
-0.00140304
1.97133e-07
-0.00196429
4.39266e-07
-0.00252535
7.71411e-07
-0.00308653
1.18459e-06
-0.00364737
1.67374e-06
-0.00420834
2.22311e-06
-0.00476895
2.82538e-06
-0.00532954
3.45685e-06
-0.00588989
4.10889e-06
-0.00645002
4.75516e-06
-0.00701
5.3805e-06
-0.00756959
5.95455e-06
-0.00812921
6.45013e-06
-0.00868804
6.84283e-06
-0.00924741
7.08684e-06
-0.00980516
7.21089e-06
-0.0103646
7.08492e-06
-0.0109208
6.79993e-06
-0.0114809
6.09656e-06
-0.0120346
5.25722e-06
-0.0125963
4.07091e-06
-0.0131465
2.29171e-06
-0.000280658
-0.000841993
4.6011e-08
-0.00140328
1.83261e-07
-0.00196463
4.08272e-07
-0.00252576
7.16908e-07
-0.00308702
1.10084e-06
-0.00364792
1.55583e-06
-0.00420894
2.06694e-06
-0.00476958
2.6274e-06
-0.00533019
3.21482e-06
-0.00589053
3.82097e-06
-0.00645064
4.42267e-06
-0.00701057
5.00424e-06
-0.00757008
5.54002e-06
-0.00812961
5.99933e-06
-0.00868829
6.36763e-06
-0.00924753
6.5904e-06
-0.00980504
6.71131e-06
-0.0103643
6.58425e-06
-0.0109201
6.33097e-06
-0.01148
5.66314e-06
-0.0120331
4.96833e-06
-0.0125948
3.63533e-06
-0.0131442
2.16411e-06
-0.000280704
-0.00084213
4.22642e-08
-0.00140351
1.68246e-07
-0.00196494
3.74735e-07
-0.00252615
6.57959e-07
-0.00308747
1.01031e-06
-0.00364843
1.42845e-06
-0.0042095
1.89832e-06
-0.00477017
2.41385e-06
-0.0053308
2.95424e-06
-0.00589113
3.51133e-06
-0.00645122
4.0657e-06
-0.00701111
4.60014e-06
-0.00757054
5.09557e-06
-0.00812998
5.51564e-06
-0.00868851
5.86034e-06
-0.00924765
6.06049e-06
-0.00980492
6.18071e-06
-0.0103641
6.04713e-06
-0.0109195
5.81941e-06
-0.0114793
5.16966e-06
-0.0120317
4.59942e-06
-0.0125934
3.33306e-06
-0.0131421
1.98721e-06
-0.000280746
-0.000842255
3.82458e-08
-0.00140371
1.5212e-07
-0.00196522
3.3869e-07
-0.0025265
5.94577e-07
-0.00308789
9.12949e-07
-0.0036489
1.29144e-06
-0.00421002
1.71691e-06
-0.00477071
2.18415e-06
-0.00533136
2.67443e-06
-0.00589169
3.17912e-06
-0.00645175
3.68345e-06
-0.0070116
4.16715e-06
-0.00757097
4.62033e-06
-0.00813033
4.99727e-06
-0.00868871
5.31945e-06
-0.00924777
5.49378e-06
-0.00980479
5.61918e-06
-0.0103638
5.47931e-06
-0.0109188
5.30208e-06
-0.0114788
5.06679e-06
-0.0120305
4.06899e-06
-0.012592
3.02329e-06
-0.0131401
1.79717e-06
-0.000280783
-0.000842368
3.39798e-08
-0.0014039
1.34962e-07
-0.00196548
3.00282e-07
-0.00252682
5.26984e-07
-0.00308827
8.08972e-07
-0.00364932
1.14504e-06
-0.00421048
1.52297e-06
-0.0047712
1.93843e-06
-0.00533186
2.37533e-06
-0.00589219
2.82388e-06
-0.00645223
3.27562e-06
-0.00701205
3.70465e-06
-0.00757135
4.11451e-06
-0.00813066
4.44343e-06
-0.00868888
4.74605e-06
-0.00924791
4.88806e-06
-0.00980463
5.02314e-06
-0.0103637
4.86779e-06
-0.0109181
4.81098e-06
-0.0114782
4.34963e-06
-0.0120294
3.6649e-06
-0.0125908
2.72775e-06
-0.0131383
1.61614e-06
-0.000280817
-0.000842469
2.94776e-08
-0.00140406
1.16842e-07
-0.0019657
2.59678e-07
-0.0025271
4.55491e-07
-0.00308861
6.98842e-07
-0.0036497
9.89927e-07
-0.0042109
1.31742e-06
-0.00477164
1.67773e-06
-0.00533231
2.05794e-06
-0.00589264
2.44607e-06
-0.00645265
2.84303e-06
-0.00701246
3.2125e-06
-0.00757168
3.58037e-06
-0.00813096
3.85441e-06
-0.00868901
4.14636e-06
-0.00924805
4.24581e-06
-0.00980444
4.40506e-06
-0.0103637
4.59824e-06
-0.0109176
4.11852e-06
-0.0114776
3.75234e-06
-0.0120285
3.20359e-06
-0.0125897
2.39652e-06
-0.0131367
1.4191e-06
-0.000280846
-0.000842556
2.46941e-08
-0.00140421
9.77585e-08
-0.0019659
2.17026e-07
-0.00252734
3.80523e-07
-0.0030889
5.83353e-07
-0.00365003
8.27248e-07
-0.00421126