/*--------------------------------*- C++ -*----------------------------------*\
  =========                 |
  \\      /  F ield         | OpenFOAM: The Open Source CFD Toolbox
   \\    /   O peration     | Website:  https://openfoam.org
    \\  /    A nd           | Version:  10
     \\/     M anipulation  |
\*---------------------------------------------------------------------------*/
FoamFile
{
    format      ascii;
    class       volScalarField;
    location    "0.26";
    object      rho;
}
// * * * * * * * * * * * * * * * * * * * * * * * * * * * * * * * * * * * * * //

dimensions      [1 -3 0 0 0 0 0];

internalField   nonuniform List<scalar> 
4176
(
0.0308488
0.0308518
0.030858
0.0308684
0.0308815
0.0308978
0.0309187
0.0309402
0.0309694
0.0309956
0.0310324
0.0310648
0.031107
0.0311476
0.0311925
0.0312441
0.0312872
0.0313549
0.0313935
0.031479
0.0315108
0.0316161
0.0316366
0.0317504
0.0308568
0.0308596
0.0308649
0.0308748
0.0308859
0.0309016
0.0309193
0.03094
0.030965
0.03099
0.0310221
0.0310524
0.0310901
0.0311271
0.031168
0.0312143
0.0312542
0.0313144
0.0313501
0.0314266
0.031454
0.0315541
0.0315751
0.0317036
0.0308761
0.030879
0.0308845
0.0308947
0.0309063
0.0309224
0.0309411
0.0309622
0.0309885
0.031014
0.0310479
0.0310788
0.0311184
0.0311563
0.0311995
0.031247
0.0312892
0.031352
0.0313878
0.031468
0.0314957
0.0315945
0.0316136
0.0317343
0.0309048
0.0309076
0.030913
0.0309229
0.0309342
0.0309499
0.030968
0.0309885
0.0310143
0.0310388
0.0310721
0.0311016
0.0311409
0.0311771
0.0312199
0.0312656
0.0313075
0.0313704
0.0314016
0.0314841
0.0315094
0.0316069
0.0316249
0.0317367
0.0309442
0.0309471
0.0309524
0.0309624
0.0309736
0.0309894
0.0310073
0.031028
0.0310535
0.0310784
0.0311114
0.0311413
0.0311802
0.0312166
0.0312595
0.0313046
0.0313484
0.0314083
0.0314431
0.0315235
0.0315504
0.0316476
0.0316669
0.0317803
0.0309937
0.0309966
0.0310018
0.0310117
0.0310226
0.0310383
0.0310559
0.0310764
0.0311014
0.0311261
0.0311584
0.0311882
0.0312264
0.0312624
0.0313048
0.031349
0.0313932
0.0314501
0.0314882
0.0315647
0.0315925
0.0316885
0.0317087
0.0318236
0.0310536
0.0310564
0.0310616
0.0310715
0.0310823
0.0310979
0.0311153
0.0311357
0.0311604
0.0311849
0.0312169
0.0312463
0.0312843
0.0313199
0.0313622
0.0314056
0.03145
0.0315052
0.0315442
0.0316189
0.0316478
0.0317423
0.0317628
0.0318758
0.0311238
0.0311266
0.0311317
0.0311414
0.0311521
0.0311675
0.0311846
0.0312049
0.0312292
0.0312534
0.0312851
0.0313141
0.0313517
0.0313866
0.0314286
0.0314711
0.0315156
0.031569
0.0316091
0.0316812
0.0317112
0.0318041
0.031825
0.0319368
0.0312042
0.031207
0.0312121
0.0312218
0.0312323
0.0312476
0.0312644
0.0312845
0.0313085
0.0313324
0.0313636
0.0313923
0.0314295
0.0314638
0.0315055
0.0315472
0.0315916
0.0316434
0.0316843
0.031754
0.031785
0.0318759
0.0318973
0.0320073
0.0312951
0.0312979
0.0313028
0.0313124
0.0313227
0.0313379
0.0313545
0.0313743
0.031398
0.0314216
0.0314524
0.0314805
0.0315173
0.031551
0.0315923
0.0316331
0.0316774
0.0317275
0.0317691
0.0318364
0.0318685
0.0319568
0.0319788
0.032087
0.0313963
0.0313991
0.031404
0.0314135
0.0314236
0.0314386
0.031455
0.0314745
0.0314978
0.0315211
0.0315514
0.0315791
0.0316154
0.0316485
0.0316894
0.0317291
0.0317732
0.0318219
0.0318639
0.0319289
0.0319619
0.0320474
0.03207
0.0321762
0.0315081
0.0315108
0.0315156
0.031525
0.031535
0.0315498
0.0315658
0.0315851
0.031608
0.0316309
0.0316608
0.031688
0.0317237
0.0317561
0.0317965
0.0318353
0.0318791
0.0319263
0.0319687
0.0320313
0.0320647
0.0321482
0.0321708
0.032275
0.0316304
0.0316331
0.0316378
0.0316471
0.0316568
0.0316714
0.0316871
0.0317061
0.0317286
0.0317511
0.0317805
0.0318072
0.0318424
0.0318741
0.0319139
0.0319517
0.0319951
0.0320408
0.0320834
0.0321437
0.0321779
0.0322585
0.0322814
0.0323833
0.0317633
0.031766
0.0317706
0.0317797
0.0317892
0.0318036
0.031819
0.0318377
0.0318598
0.0318818
0.0319107
0.0319368
0.0319714
0.0320023
0.0320416
0.0320784
0.0321213
0.0321655
0.0322082
0.0322662
0.0323007
0.0323789
0.0324017
0.0325013
0.0319069
0.0319096
0.031914
0.0319231
0.0319323
0.0319465
0.0319615
0.0319798
0.0320014
0.032023
0.0320513
0.0320768
0.0321108
0.032141
0.0321796
0.0322153
0.0322577
0.0323004
0.0323431
0.0323987
0.0324337
0.0325092
0.0325321
0.0326291
0.0320613
0.0320639
0.0320683
0.0320772
0.0320862
0.0321001
0.0321147
0.0321327
0.0321538
0.0321748
0.0322026
0.0322274
0.0322607
0.03229
0.032328
0.0323626
0.0324044
0.0324456
0.0324881
0.0325413
0.0325768
0.0326492
0.0326726
0.0327669
0.0322266
0.0322292
0.0322334
0.0322422
0.0322509
0.0322646
0.0322788
0.0322963
0.0323169
0.0323374
0.0323645
0.0323886
0.0324212
0.0324496
0.0324869
0.0325204
0.0325615
0.0326012
0.0326434
0.0326941
0.0327299
0.0327995
0.0328232
0.0329145
0.0324029
0.0324054
0.0324095
0.0324181
0.0324266
0.0324399
0.0324537
0.0324708
0.0324908
0.0325107
0.0325371
0.0325605
0.0325924
0.0326198
0.0326563
0.0326886
0.032729
0.0327672
0.0328089
0.0328573
0.0328934
0.0329599
0.0329841
0.0330723
0.0325902
0.0325928
0.0325967
0.0326051
0.0326133
0.0326263
0.0326397
0.0326563
0.0326757
0.032695
0.0327206
0.0327432
0.0327743
0.0328007
0.0328364
0.0328674
0.0329071
0.0329436
0.0329849
0.0330308
0.0330671
0.0331306
0.0331551
0.0332401
0.0327888
0.0327913
0.0327951
0.0328033
0.0328112
0.0328238
0.0328367
0.0328528
0.0328716
0.0328902
0.0329151
0.0329369
0.032967
0.0329925
0.0330272
0.033057
0.0330957
0.0331307
0.0331713
0.0332148
0.0332512
0.0333117
0.0333365
0.0334182
0.0329987
0.0330011
0.0330048
0.0330128
0.0330203
0.0330326
0.0330449
0.0330605
0.0330786
0.0330966
0.0331207
0.0331415
0.0331708
0.0331951
0.0332288
0.0332573
0.0332951
0.0333283
0.0333683
0.0334094
0.0334459
0.0335031
0.0335283
0.0336065
0.03322
0.0332224
0.0332259
0.0332336
0.0332408
0.0332527
0.0332645
0.0332795
0.0332969
0.0333141
0.0333374
0.0333573
0.0333856
0.0334088
0.0334415
0.0334686
0.0335053
0.0335369
0.033576
0.0336148
0.033651
0.0337051
0.0337305
0.0338053
0.0334528
0.0334552
0.0334584
0.033466
0.0334727
0.0334842
0.0334954
0.0335098
0.0335265
0.033543
0.0335654
0.0335843
0.0336116
0.0336337
0.0336653
0.0336909
0.0337266
0.0337563
0.0337945
0.033831
0.0338671
0.0339176
0.0339433
0.0340145
0.0336972
0.0336995
0.0337026
0.0337099
0.0337162
0.0337273
0.0337379
0.0337517
0.0337676
0.0337832
0.0338047
0.0338227
0.0338489
0.0338698
0.0339003
0.0339245
0.0339589
0.0339869
0.0340241
0.0340582
0.0340938
0.0341412
0.0341667
0.0342343
0.0339532
0.0339555
0.0339584
0.0339655
0.0339714
0.033982
0.033992
0.0340051
0.0340203
0.034035
0.0340556
0.0340725
0.0340977
0.0341172
0.0341466
0.0341693
0.0342025
0.0342286
0.0342647
0.0342965
0.0343317
0.0343755
0.0344009
0.0344649
0.0342211
0.0342233
0.034226
0.0342328
0.0342383
0.0342485
0.0342578
0.0342703
0.0342846
0.0342985
0.034318
0.0343338
0.0343579
0.0343762
0.0344043
0.0344254
0.0344575
0.0344817
0.0345167
0.034546
0.0345806
0.0346212
0.0346462
0.0347065
0.0345007
0.034503
0.0345054
0.034512
0.0345171
0.0345268
0.0345355
0.0345473
0.0345607
0.0345737
0.0345922
0.0346069
0.0346298
0.0346467
0.0346736
0.0346931
0.0347239
0.0347463
0.03478
0.034807
0.0348407
0.0348778
0.0349029
0.0349594
0.0347924
0.0347945
0.0347968
0.0348031
0.0348077
0.034817
0.034825
0.0348361
0.0348487
0.0348608
0.0348782
0.0348918
0.0349135
0.034929
0.0349545
0.0349725
0.0350019
0.0350223
0.0350548
0.0350794
0.0351122
0.0351458
0.0351709
0.0352233
0.035096
0.0350981
0.0351002
0.0351062
0.0351104
0.0351192
0.0351266
0.035137
0.0351487
0.0351598
0.0351762
0.0351886
0.035209
0.0352232
0.0352474
0.0352636
0.0352916
0.0353101
0.0353412
0.0353634
0.0353952
0.0354252
0.0354503
0.0354985
0.0354118
0.0354139
0.0354157
0.0354215
0.0354252
0.0354335
0.0354402
0.0354499
0.0354608
0.035471
0.0354863
0.0354975
0.0355167
0.0355294
0.0355522
0.0355667
0.0355933
0.0356097
0.0356395
0.0356593
0.03569
0.0357165
0.0357416
0.035785
0.0357398
0.0357418
0.0357435
0.0357489
0.0357522
0.03576
0.0357661
0.035775
0.035785
0.0357942
0.0358085
0.0358185
0.0358365
0.0358477
0.0358691
0.0358819
0.035907
0.0359214
0.0359496
0.035967
0.0359965
0.0360196
0.0360442
0.0360836
0.0360801
0.036082
0.0360835
0.0360887
0.0360915
0.0360988
0.0361042
0.0361124
0.0361215
0.0361298
0.036143
0.0361518
0.0361685
0.0361783
0.0361983
0.0362093
0.0362329
0.0362452
0.0362719
0.0362868
0.036315
0.0363349
0.0363592
0.0363939
0.0364327
0.0364347
0.0364359
0.0364408
0.0364432
0.03645
0.0364546
0.0364622
0.0364704
0.0364777
0.0364898
0.0364974
0.0365129
0.0365212
0.0365399
0.0365491
0.0365712
0.0365813
0.0366065
0.0366188
0.0366456
0.0366623
0.0366864
0.0367163
0.0367979
0.0367998
0.0368008
0.0368054
0.0368073
0.0368136
0.0368176
0.0368244
0.0368317
0.0368381
0.0368491
0.0368555
0.0368698
0.0368766
0.0368939
0.0369013
0.036922
0.03693
0.0369536
0.0369634
0.0369887
0.0370021
0.0370257
0.0370511
0.0371756
0.0371774
0.0371782
0.0371826
0.0371841
0.0371899
0.0371932
0.0371993
0.0372057
0.0372111
0.037221
0.0372262
0.0372392
0.0372446
0.0372605
0.0372661
0.0372854
0.0372912
0.0373134
0.0373206
0.0373443
0.0373544
0.0373775
0.0373981
0.0375659
0.0375677
0.0375683
0.0375725
0.0375735
0.0375788
0.0375814
0.0375868
0.0375923
0.0375968
0.0376056
0.0376096
0.0376213
0.0376252
0.0376397
0.0376436
0.0376614
0.0376652
0.0376858
0.0376905
0.0377128
0.0377196
0.0377418
0.0377576
0.037969
0.0379708
0.0379712
0.0379751
0.0379756
0.0379805
0.0379825
0.0379872
0.0379918
0.0379953
0.0380031
0.0380058
0.0380163
0.0380187
0.0380318
0.0380339
0.0380502
0.0380518
0.038071
0.0380731
0.038094
0.0380978
0.0381186
0.0381299
0.038385
0.0383867
0.0383869
0.0383905
0.0383907
0.0383951
0.0383964
0.0384004
0.0384042
0.0384068
0.0384135
0.038415
0.0384243
0.0384251
0.0384368
0.0384371
0.038452
0.0384514
0.038469
0.0384686
0.0384882
0.0384887
0.0385087
0.0385149
0.0388139
0.0388156
0.0388156
0.038819
0.0388187
0.0388227
0.0388233
0.0388267
0.0388296
0.0388313
0.0388369
0.0388373
0.0388453
0.0388447
0.038855
0.0388534
0.0388668
0.0388639
0.0388801
0.038877
0.0388952
0.0388927
0.0389116
0.0389132
0.0392559
0.0392576
0.0392574
0.0392606
0.0392598
0.0392634
0.0392634
0.0392661
0.0392681
0.0392689
0.0392735
0.0392727
0.0392794
0.0392774
0.0392863
0.0392829
0.0392948
0.0392897
0.0393043
0.0392985
0.0393154
0.0393095
0.0393276
0.0393249
0.0397112
0.0397128
0.0397124
0.0397154
0.0397142
0.0397173
0.0397167
0.0397187
0.0397199
0.0397197
0.0397233
0.0397213
0.0397269
0.0397234
0.0397309
0.0397257
0.0397361
0.0397288
0.0397419
0.0397333
0.0397488
0.0397396
0.0397563
0.03975
0.0401799
0.0401814
0.0401808
0.0401835
0.0401819
0.0401846
0.0401833
0.0401846
0.040185
0.0401839
0.0401864
0.0401833
0.0401876
0.0401827
0.0401889
0.0401819
0.0401909
0.0401812
0.0401931
0.0401815
0.0401959
0.040183
0.0401987
0.040188
0.040662
0.0406635
0.0406627
0.0406652
0.0406631
0.0406654
0.0406633
0.0406641
0.0406635
0.0406615
0.040663
0.0406587
0.0406618
0.0406554
0.0406603
0.0406514
0.0406591
0.0406471
0.0406578
0.0406432
0.0406566
0.0406401
0.0406547
0.0406394
0.0411577
0.0411592
0.0411582
0.0411604
0.0411579
0.0411597
0.041157
0.041157
0.0411556
0.0411527
0.0411531
0.0411476
0.0411495
0.0411416
0.0411453
0.0411345
0.0411409
0.0411266
0.0411361
0.0411185
0.041131
0.0411108
0.0411246
0.0411046
0.0416671
0.0416685
0.0416673
0.0416693
0.0416663
0.0416677
0.0416643
0.0416637
0.0416613
0.0416575
0.0416569
0.0416502
0.0416508
0.0416415
0.0416438
0.0416312
0.0416362
0.0416196
0.0416279
0.0416075
0.0416189
0.0415952
0.0416083
0.0415839
0.0421902
0.0421916
0.0421902
0.042192
0.0421885
0.0421894
0.0421854
0.0421841
0.0421808
0.0421761
0.0421743
0.0421665
0.0421659
0.0421551
0.0421561
0.0421416
0.0421452
0.0421262
0.0421334
0.0421101
0.0421207
0.0420931
0.042106
0.0420766
0.0427272
0.0427286
0.0427269
0.0427284
0.0427245
0.042725
0.0427202
0.0427182
0.0427141
0.0427084
0.0427056
0.0426966
0.0426947
0.0426824
0.0426821
0.0426657
0.042668
0.0426467
0.0426527
0.0426264
0.042636
0.0426045
0.0426178
0.0425829
0.043278
0.0432793
0.0432775
0.0432787
0.0432744
0.0432744
0.0432689
0.0432662
0.0432612
0.0432546
0.0432507
0.0432405
0.0432374
0.0432235
0.043222
0.0432036
0.0432047
0.043181
0.0431858
0.0431565
0.0431654
0.0431295
0.0431434
0.0431033
0.0438426
0.0438439
0.0438419
0.0438429
0.043838
0.0438376
0.0438314
0.0438281
0.0438222
0.0438147
0.0438097
0.0437982
0.043794
0.0437786
0.0437758
0.0437554
0.0437554
0.0437292
0.0437329
0.0437003
0.0437087
0.0436684
0.0436829
0.0436377
0.0444211
0.0444223
0.0444201
0.0444209
0.0444155
0.0444147
0.0444078
0.0444038
0.044397
0.0443885
0.0443825
0.0443698
0.0443645
0.0443475
0.0443435
0.0443211
0.04432
0.0442913
0.0442941
0.0442579
0.0442667
0.0442215
0.0442359
0.0441861
0.0450133
0.0450145
0.045012
0.0450126
0.0450068
0.0450056
0.044998
0.0449933
0.0449857
0.0449763
0.0449693
0.0449553
0.0449489
0.0449303
0.0449252
0.0449006
0.0448988
0.0448671
0.0448695
0.0448293
0.044839
0.0447885
0.0448031
0.0447487
0.0456191
0.0456204
0.0456177
0.0456181
0.0456118
0.0456102
0.0456019
0.0455966
0.0455881
0.0455778
0.0455698
0.0455546
0.0455471
0.0455269
0.0455208
0.045494
0.0454915
0.0454567
0.0454592
0.0454146
0.0454247
0.0453703
0.0453844
0.0453255
0.0462386
0.0462398
0.0462369
0.0462371
0.0462304
0.0462283
0.0462194
0.0462135
0.0462042
0.0461929
0.0461842
0.0461676
0.0461593
0.0461372
0.0461305
0.0461011
0.0460985
0.0460599
0.0460635
0.0460145
0.0460238
0.0459663
0.0459796
0.0459166
0.0468714
0.0468726
0.0468695
0.0468695
0.0468624
0.04686
0.0468505
0.046844
0.0468339
0.0468217
0.0468122
0.0467942
0.0467853
0.0467611
0.0467542
0.0467219
0.0467195
0.0466772
0.0466811
0.0466287
0.0466374
0.0465764
0.0465891
0.046522
0.0475175
0.0475186
0.0475154
0.0475152
0.0475077
0.047505
0.0474948
0.0474878
0.047477
0.0474638
0.0474538
0.0474342
0.0474251
0.0473984
0.047392
0.0473563
0.0473545
0.0473091
0.0473116
0.0472572
0.0472647
0.0472009
0.0472128
0.0471417
0.0481766
0.0481778
0.0481743
0.0481741
0.0481661
0.0481631
0.0481524
0.0481448
0.0481335
0.0481191
0.048109
0.0480873
0.0480788
0.048049
0.0480436
0.0480047
0.0480024
0.0479548
0.0479567
0.0478998
0.047906
0.0478395
0.0478506
0.0477758
0.0488485
0.0488497
0.0488461
0.0488458
0.0488374
0.0488342
0.0488229
0.0488147
0.0488032
0.0487874
0.0487777
0.0487535
0.0487457
0.0487136
0.0487075
0.0486672
0.0486639
0.0486148
0.0486151
0.0485562
0.0485614
0.0484922
0.0485025
0.0484241
0.049533
0.0495344
0.0495303
0.0495303
0.0495212
0.0495181
0.0495062
0.0494972
0.049486
0.0494686
0.0494589
0.0494337
0.0494248
0.0493922
0.0493846
0.0493435
0.0493387
0.0492882
0.0492873
0.0492266
0.0492306
0.0491589
0.0491684
0.0490866
0.0502299
0.0502314
0.050227
0.0502272
0.0502174
0.0502146
0.0502019
0.0501929
0.0501809
0.0501632
0.0501526
0.0501268
0.050117
0.0500835
0.0500751
0.0500329
0.050027
0.049975
0.0499732
0.0499106
0.0499135
0.0498394
0.0498483
0.0497631
0.050939
0.0509405
0.0509361
0.050936
0.0509263
0.0509231
0.0509098
0.0509014
0.050888
0.0508703
0.050859
0.0508326
0.050822
0.0507879
0.0507783
0.0507354
0.0507284
0.0506754
0.0506722
0.050608
0.0506101
0.0505338
0.0505417
0.0504536
0.0516601
0.0516616
0.0516573
0.051657
0.0516472
0.0516439
0.0516301
0.0516219
0.051607
0.0515903
0.0515775
0.051551
0.0515396
0.051505
0.0514942
0.0514509
0.0514427
0.0513887
0.0513844
0.0513189
0.0513197
0.0512415
0.0512489
0.0511578
0.0523931
0.0523946
0.0523903
0.05239
0.05238
0.0523766
0.0523625
0.0523543
0.0523385
0.0523224
0.0523078
0.0522821
0.0522695
0.0522344
0.0522229
0.0521789
0.0521697
0.0521148
0.0521097
0.0520425
0.0520427
0.0519625
0.0519691
0.0518755
0.0531378
0.0531394
0.053135
0.0531347
0.0531246
0.0531211
0.0531068
0.0530986
0.0530821
0.0530663
0.0530505
0.0530254
0.0530113
0.0529762
0.0529639
0.0529193
0.0529091
0.0528537
0.0528472
0.0527791
0.0527781
0.0526965
0.0527023
0.0526063
0.0538942
0.0538958
0.0538914
0.0538911
0.0538809
0.0538774
0.0538628
0.0538546
0.0538376
0.053822
0.0538052
0.0537804
0.0537651
0.0537302
0.0537168
0.0536716
0.0536605
0.0536043
0.0535972
0.0535279
0.0535262
0.0534429
0.053448
0.0533499
0.0546622
0.0546639
0.0546595
0.0546592
0.0546488
0.0546454
0.0546305
0.0546222
0.0546047
0.0545893
0.0545717
0.0545471
0.0545305
0.054496
0.0544817
0.0544355
0.0544239
0.0543672
0.0543588
0.0542888
0.0542861
0.0542016
0.054206
0.0541059
0.055442
0.0554437
0.0554392
0.055439
0.0554284
0.055425
0.0554098
0.0554014
0.0553835
0.0553682
0.0553496
0.0553251
0.0553078
0.0552728
0.0552579
0.0552111
0.0551987
0.0551411
0.0551321
0.0550613
0.0550577
0.054972
0.0549756
0.0548738
0.0562334
0.0562352
0.0562306
0.0562305
0.0562196
0.0562161
0.0562006
0.056192
0.0561736
0.0561583
0.0561388
0.0561144
0.056096
0.0560607
0.0560451
0.0559977
0.0559848
0.0559263
0.0559162
0.0558451
0.0558404
0.0557538
0.0557567
0.0556534
0.0570365
0.0570384
0.0570336
0.0570334
0.0570223
0.0570186
0.0570027
0.0569939
0.0569749
0.0569594
0.0569388
0.0569145
0.056895
0.0568596
0.0568429
0.0567951
0.0567816
0.056722
0.0567113
0.0566395
0.0566339
0.0565465
0.0565487
0.0564442
0.057851
0.057853
0.057848
0.0578477
0.0578362
0.0578323
0.0578158
0.0578066
0.057787
0.0577711
0.0577494
0.0577253
0.0577043
0.0576689
0.0576509
0.0576028
0.0575888
0.0575282
0.0575167
0.0574443
0.0574378
0.0573499
0.0573513
0.0572458
0.0586763
0.0586784
0.0586731
0.0586727
0.0586607
0.0586564
0.0586394
0.0586298
0.0586094
0.058593
0.0585702
0.0585461
0.0585234
0.0584885
0.0584686
0.0584208
0.0584057
0.0583445
0.0583323
0.0582592
0.058252
0.0581637
0.0581643
0.0580581
0.0595114
0.0595135
0.0595081
0.0595074
0.0594951
0.0594903
0.0594727
0.0594625
0.0594414
0.0594244
0.0594006
0.0593766
0.0593519
0.0593178
0.059296
0.0592486
0.059232
0.0591708
0.059158
0.0590841
0.0590763
0.0589877
0.0589876
0.0588809
0.0603548
0.0603568
0.0603514
0.0603504
0.0603379
0.0603327
0.0603147
0.060304
0.0602823
0.0602648
0.0602402
0.060216
0.0601899
0.0601564
0.0601324
0.0600861
0.060067
0.060007
0.0599936
0.0599191
0.0599106
0.0598219
0.0598213
0.0597143
0.0612043
0.0612063
0.0612009
0.0611998
0.0611873
0.061182
0.0611638
0.0611529
0.0611309
0.0611132
0.0610882
0.061064
0.0610366
0.061004
0.0609777
0.0609333
0.0609118
0.0608532
0.0608385
0.060764
0.0607552
0.0606665
0.0606654
0.0605583
0.0620576
0.0620598
0.0620546
0.0620537
0.0620414
0.0620363
0.0620185
0.0620078
0.0619861
0.0619686
0.0619437
0.0619198
0.061892
0.0618602
0.0618327
0.0617898
0.0617667
0.061709
0.0616928
0.0616196
0.0616099
0.0615216
0.0615204
0.0614134
0.062913
0.0629153
0.0629105
0.0629101
0.0628984
0.0628941
0.062877
0.0628673
0.0628465
0.06283
0.0628058
0.0627829
0.0627555
0.062725
0.0626969
0.0626558
0.0626308
0.0625755
0.0625572
0.0624859
0.0624757
0.0623876
0.0623863
0.0622797
0.0637695
0.063772
0.0637678
0.0637682
0.0637574
0.0637544
0.0637386
0.0637304
0.0637111
0.0636962
0.0636736
0.0636525
0.0636263
0.0635977
0.0635701
0.0635311
0.0635055
0.0634526
0.063433
0.0633632
0.0633526
0.0632649
0.0632636
0.0631574
0.0646281
0.0646309
0.0646272
0.0646286
0.0646189
0.0646174
0.0646032
0.0645969
0.0645796
0.064567
0.0645465
0.0645279
0.0645038
0.0644777
0.0644517
0.0644155
0.0643906
0.0643403
0.064321
0.064252
0.0642417
0.0641538
0.0641527
0.0640465
0.0654919
0.065495
0.0654919
0.0654943
0.0654856
0.0654856
0.0654729
0.0654686
0.0654533
0.065443
0.0654249
0.065409
0.0653874
0.0653641
0.0653409
0.0653074
0.0652848
0.0652378
0.0652192
0.0651532
0.0651435
0.0650557
0.0650549
0.0649475
0.0663666
0.0663703
0.0663672
0.0663706
0.0663622
0.0663637
0.0663517
0.0663492
0.0663351
0.066327
0.0663106
0.0662973
0.0662777
0.0662572
0.0662372
0.0662056
0.0661876
0.0661414
0.066128
0.0660627
0.0660574
0.0659705
0.0659709
0.065863
0.06726
0.0672645
0.0672605
0.0672653
0.0672556
0.067259
0.0672454
0.0672453
0.0672297
0.067224
0.0672073
0.0671959
0.0671772
0.0671582
0.0671425
0.0671082
0.0670998
0.0670481
0.0670452
0.0669772
0.066979
0.0668945
0.0668986
0.0667962
0.0681815
0.0681854
0.0681822
0.0681851
0.0681765
0.0681771
0.0681648
0.0681615
0.0681471
0.0681387
0.0681224
0.0681098
0.0680904
0.0680733
0.0680547
0.0680236
0.0680145
0.0679652
0.0679635
0.0678978
0.0679029
0.0678203
0.0678292
0.0677345
0.0691391
0.0691428
0.069139
0.069141
0.0691308
0.0691298
0.0691152
0.0691097
0.0690927
0.0690816
0.0690625
0.0690471
0.069025
0.0690061
0.0689828
0.0689549
0.0689383
0.0688923
0.068889
0.0688227
0.0688296
0.0687454
0.0687578
0.0686633
0.0701396
0.070143
0.0701383
0.070139
0.0701268
0.0701234
0.0701057
0.0700969
0.0700758
0.0700605
0.0700368
0.0700166
0.0699894
0.0699656
0.0699364
0.0699052
0.0698816
0.0698352
0.0698263
0.0697565
0.0697638
0.0696745
0.0696891
0.0695906
0.0711861
0.0711898
0.0711836
0.0711833
0.0711686
0.0711629
0.0711416
0.0711293
0.0711032
0.0710832
0.0710532
0.0710272
0.0709927
0.0709621
0.0709247
0.0708864
0.0708548
0.0708011
0.0707849
0.0707072
0.0707117
0.0706137
0.0706291
0.0705221
0.0722789
0.0722831
0.0722751
0.0722744
0.0722571
0.0722497
0.0722244
0.0722096
0.0721775
0.0721549
0.0721164
0.0720867
0.0720423
0.0720051
0.0719582
0.0719103
0.07187
0.0718011
0.0717788
0.0716864
0.0716838
0.0715725
0.0715853
0.0714646
0.0734146
0.0734181
0.0734108
0.0734078
0.0733903
0.0733799
0.0733537
0.0733342
0.0733012
0.0732714
0.0732317
0.0731931
0.0731453
0.0730993
0.0730437
0.0729896
0.0729318
0.0728581
0.0728179
0.0727132
0.0726958
0.0725658
0.0725704
0.0724277
0.0745864
0.0745897
0.0745824
0.0745788
0.0745605
0.0745491
0.0745215
0.0745006
0.0744653
0.0744332
0.0743905
0.0743485
0.0742966
0.0742455
0.0741843
0.0741235
0.0740543
0.07398
0.0739121
0.0738093
0.0737656
0.0736181
0.0736059
0.0734302
0.0757865
0.0757898
0.0757824
0.0757788
0.0757603
0.0757487
0.0757206
0.0756992
0.0756633
0.0756303
0.0755865
0.0755432
0.0754896
0.0754365
0.0753729
0.0753088
0.0752357
0.0751574
0.0750787
0.0749783
0.0749046
0.0747601
0.074721
0.0745077
0.0770062
0.0770095
0.0770023
0.076999
0.0769807
0.0769696
0.0769417
0.0769208
0.0768852
0.0768528
0.0768094
0.0767665
0.0767135
0.0766608
0.0765974
0.0765338
0.0764609
0.0763827
0.0763039
0.0762046
0.0761252
0.0759889
0.075932
0.0757071
0.0782366
0.0782403
0.0782334
0.0782307
0.0782129
0.0782026
0.0781756
0.0781558
0.0781214
0.0780904
0.0780484
0.0780073
0.077956
0.0779054
0.0778443
0.0777833
0.0777129
0.0776382
0.0775635
0.077466
0.0773983
0.0772604
0.0772202
0.0770226
0.0794701
0.079474
0.0794675
0.0794656
0.0794485
0.0794395
0.0794135
0.0793954
0.0793625
0.0793335
0.0792936
0.0792549
0.0792063
0.0791586
0.0791007
0.0790434
0.0789768
0.0789063
0.078837
0.0787447
0.0786829
0.0785528
0.0785152
0.0783324
0.0806994
0.0807037
0.0806975
0.0806965
0.0806802
0.0806726
0.0806479
0.0806316
0.0806006
0.080574
0.0805364
0.0805008
0.0804549
0.0804109
0.0803566
0.0803034
0.0802409
0.0801763
0.0801109
0.0800255
0.0799682
0.0798478
0.0798126
0.0796437
0.0819184
0.0819231
0.0819173
0.0819173
0.0819018
0.0818957
0.0818723
0.0818583
0.0818289
0.0818052
0.0817697
0.0817377
0.0816945
0.0816547
0.0816038
0.0815553
0.0814973
0.0814378
0.0813777
0.081298
0.0812466
0.0811354
0.0811024
0.0809474
0.0831224
0.0831276
0.0831214
0.0831232
0.0831077
0.083104
0.0830811
0.0830702
0.0830416
0.0830219
0.0829875
0.0829604
0.0829186
0.0828846
0.0828357
0.0827932
0.0827387
0.0826856
0.0826296
0.0825568
0.0825092
0.0824081
0.0823775
0.0822362
0.0843068
0.0843123
0.0843063
0.0843093
0.0842942
0.0842926
0.0842704
0.0842625
0.0842347
0.0842191
0.0841855
0.0841637
0.0841227
0.0840953
0.0840472
0.0840124
0.0839596
0.0839127
0.0838616
0.0837963
0.083752
0.0836608
0.0836324
0.0835045
0.0854681
0.0854737
0.0854687
0.0854716
0.0854587
0.0854569
0.0854379
0.0854299
0.0854064
0.0853909
0.0853623
0.0853413
0.0853056
0.0852801
0.0852373
0.0852058
0.0851578
0.0851173
0.0850688
0.0850108
0.0849703
0.0848892
0.0848629
0.0847478
0.0866037
0.0866093
0.0866049
0.0866082
0.0865966
0.0865957
0.0865786
0.0865718
0.0865512
0.0865369
0.0865123
0.0864926
0.086462
0.0864379
0.0864009
0.0863719
0.0863293
0.0862932
0.0862485
0.0861993
0.0861616
0.0860895
0.0860652
0.0859626
0.0877112
0.0877166
0.0877128
0.0877167
0.087706
0.0877062
0.0876907
0.0876854
0.087667
0.0876547
0.0876331
0.0876156
0.0875887
0.0875672
0.0875347
0.0875089
0.087471
0.0874396
0.0873986
0.0873575
0.0873222
0.087259
0.0872367
0.0871462
0.0887884
0.088794
0.0887905
0.088795
0.0887852
0.0887865
0.0887724
0.0887687
0.0887523
0.0887419
0.088723
0.0887078
0.0886844
0.0886656
0.0886371
0.0886147
0.0885812
0.0885541
0.0885173
0.088483
0.088449
0.088396
0.0883754
0.0882965
0.0898342
0.0898398
0.0898367
0.0898416
0.0898328
0.089835
0.0898223
0.08982
0.0898055
0.089797
0.0897806
0.0897677
0.0897473
0.0897314
0.0897065
0.0896874
0.089658
0.0896351
0.0896031
0.0895737
0.0895423
0.0894984
0.0894796
0.0894117
0.0908474
0.090853
0.0908501
0.0908558
0.0908473
0.0908509
0.090839
0.0908385
0.0908255
0.0908189
0.0908047
0.0907941
0.0907766
0.0907632
0.0907418
0.0907259
0.0907004
0.0906814
0.0906529
0.0906293
0.0906009
0.0905649
0.0905481
0.0904905
0.0918272
0.0918325
0.0918304
0.0918358
0.091829
0.0918324
0.0918227
0.0918226
0.0918119
0.0918066
0.0917948
0.0917862
0.0917713
0.0917606
0.0917423
0.0917294
0.0917073
0.091692
0.0916678
0.0916478
0.0916238
0.0915953
0.0915796
0.0915316
0.0927729
0.0927785
0.0927758
0.0927831
0.0927749
0.0927815
0.0927706
0.0927736
0.092763
0.0927603
0.0927499
0.0927435
0.0927311
0.0927226
0.0927073
0.0926973
0.0926787
0.0926669
0.0926457
0.092631
0.0926097
0.0925879
0.0925737
0.0925343
0.0936846
0.0936896
0.0936884
0.0936938
0.0936893
0.093693
0.0936867
0.0936878
0.0936808
0.0936782
0.0936704
0.0936655
0.0936555
0.0936494
0.0936367
0.0936294
0.0936138
0.0936052
0.093588
0.0935764
0.0935592
0.0935424
0.0935297
0.093499
0.0945617
0.0945672
0.094565
0.0945727
0.0945659
0.0945738
0.0945647
0.0945702
0.0945619
0.0945624
0.0945553
0.0945527
0.0945445
0.0945405
0.0945304
0.0945256
0.094513
0.0945073
0.0944928
0.0944855
0.0944711
0.0944591
0.0944482
0.0944254
0.095405
0.0954098
0.0954088
0.0954152
0.0954111
0.0954169
0.0954116
0.0954152
0.0954104
0.0954105
0.0954061
0.0954045
0.0953986
0.0953964
0.0953886
0.0953861
0.0953759
0.0953731
0.0953617
0.0953573
0.0953459
0.0953383
0.0953297
0.0953138
0.096214
0.096219
0.0962183
0.0962242
0.0962216
0.0962269
0.096223
0.0962274
0.0962234
0.0962253
0.0962216
0.096222
0.0962175
0.0962173
0.0962115
0.0962112
0.0962035
0.0962032
0.0961942
0.0961933
0.0961844
0.0961805
0.0961743
0.0961647
0.09699
0.0969946
0.0969935
0.0970013
0.0969963
0.0970054
0.0969992
0.0970065
0.0970023
0.0970057
0.0970033
0.0970049
0.0970022
0.0970035
0.0969998
0.0970014
0.0969959
0.096998
0.0969916
0.0969934
0.0969869
0.0969871
0.0969829
0.0969785
0.0977326
0.0977369
0.0977378
0.0977417
0.097743
0.0977455
0.0977469
0.0977491
0.0977498
0.0977518
0.0977518
0.0977542
0.0977531
0.0977559
0.0977538
0.0977573
0.0977538
0.0977581
0.0977537
0.0977583
0.0977542
0.0977577
0.0977556
0.0977559
0.0984433
0.0984478
0.0984468
0.098455
0.0984503
0.0984609
0.0984549
0.0984647
0.0984609
0.0984673
0.0984663
0.0984708
0.0984706
0.0984749
0.0984745
0.0984795
0.0984779
0.098484
0.0984818
0.0984888
0.0984862
0.0984933
0.0984926
0.0984974
0.0991223
0.0991259
0.0991277
0.0991309
0.0991339
0.0991358
0.0991399
0.0991413
0.0991455
0.0991475
0.0991507
0.0991544
0.0991562
0.0991614
0.0991624
0.099169
0.0991688
0.0991769
0.0991761
0.0991853
0.0991848
0.0991945
0.0991951
0.0992039
0.0997707
0.0997747
0.0997747
0.0997814
0.0997795
0.099788
0.0997855
0.0997945
0.099793
0.0998006
0.0998013
0.0998079
0.0998097
0.0998165
0.0998186
0.0998264
0.0998277
0.0998372
0.0998382
0.0998494
0.0998499
0.0998624
0.0998644
0.0998763
0.100389
0.100393
0.100394
0.100398
0.1004
0.100405
0.100407
0.100411
0.100416
0.10042
0.100424
0.10043
0.100433
0.100441
0.100444
0.100453
0.100455
0.100467
0.100469
0.100481
0.100484
0.100498
0.100501
0.100516
0.100979
0.100982
0.100984
0.100988
0.10099
0.100994
0.100998
0.101003
0.101006
0.101012
0.101016
0.101023
0.101027
0.101035
0.101039
0.10105
0.101053
0.101065
0.101069
0.101083
0.101086
0.101103
0.101107
0.101124
0.101541
0.101544
0.101545
0.101551
0.10155
0.101558
0.101558
0.101566
0.101568
0.101576
0.10158
0.101588
0.101592
0.101601
0.101606
0.101617
0.101622
0.101635
0.101639
0.101655
0.101659
0.101678
0.101682
0.101702
0.102076
0.102078
0.102081
0.102083
0.102089
0.102089
0.102097
0.102099
0.102106
0.102111
0.102117
0.102124
0.10213
0.10214
0.102146
0.102157
0.102163
0.102177
0.102182
0.102199
0.102204
0.102224
0.102228
0.102251
0.102585
0.102588
0.102589
0.102594
0.102594
0.102602
0.102602
0.102612
0.102613
0.102623
0.102626
0.102636
0.102641
0.102652
0.102658
0.102671
0.102677
0.102692
0.102698
0.102716
0.102721
0.102743
0.102748
0.102772
0.103069
0.103071
0.103074
0.103076
0.103081
0.103083
0.103091
0.103092
0.103101
0.103105
0.103113
0.103121
0.103128
0.103139
0.103145
0.103158
0.103165
0.103181
0.103187
0.103207
0.103212
0.103235
0.10324
0.103267
0.103529
0.103532
0.103533
0.103537
0.103539
0.103546
0.103547
0.103556
0.103559
0.103569
0.103573
0.103583
0.10359
0.103601
0.103608
0.103622
0.103629
0.103646
0.103652
0.103672
0.103679
0.103702
0.103708
0.103736
0.103966
0.103968
0.103971
0.103973
0.103978
0.103981
0.103987
0.103991
0.103999
0.104005
0.104012
0.104021
0.104029
0.10404
0.104048
0.104061
0.104069
0.104086
0.104094
0.104114
0.104121
0.104146
0.104151
0.104181
0.104381
0.104384
0.104385
0.10439
0.104391
0.104398
0.104401
0.104408
0.104413
0.104421
0.104428
0.104438
0.104445
0.104457
0.104465
0.104479
0.104487
0.104505
0.104512
0.104533
0.10454
0.104566
0.104572
0.104602
0.104776
0.104777
0.104781
0.104782
0.104788
0.10479
0.104797
0.104802
0.104808
0.104816
0.104823
0.104833
0.10484
0.104852
0.10486
0.104875
0.104884
0.104901
0.10491
0.104931
0.104938
0.104965
0.104971
0.105002
0.10515
0.105153
0.105153
0.105159
0.105159
0.105167
0.105169
0.105177
0.105182
0.10519
0.105197
0.105207
0.105215
0.105227
0.105236
0.10525
0.105259
0.105277
0.105286
0.105308
0.105315
0.105342
0.105348
0.105381
0.105506
0.105507
0.10551
0.105512
0.105517
0.105519
0.105526
0.105531
0.105538
0.105545
0.105553
0.105563
0.105571
0.105583
0.105591
0.105607
0.105616
0.105634
0.105643
0.105664
0.105672
0.1057
0.105706
0.105739
0.105843
0.105844
0.105846
0.10585
0.105852
0.105858
0.105862
0.105869
0.105874
0.105883
0.105889
0.1059
0.105908
0.105921
0.105929
0.105944
0.105953
0.105972