/*--------------------------------*- C++ -*----------------------------------*\
  =========                 |
  \\      /  F ield         | OpenFOAM: The Open Source CFD Toolbox
   \\    /   O peration     | Website:  https://openfoam.org
    \\  /    A nd           | Version:  10
     \\/     M anipulation  |
\*---------------------------------------------------------------------------*/
FoamFile
{
    format      ascii;
    class       volScalarField;
    location    "0.26";
    object      T;
}
// * * * * * * * * * * * * * * * * * * * * * * * * * * * * * * * * * * * * * //

dimensions      [0 0 0 1 0 0 0];

internalField   nonuniform List<scalar> 
4176
(
180.347
180.351
180.372
180.382
180.426
180.445
180.506
180.538
180.613
180.661
180.749
180.809
180.913
180.985
181.101
181.191
181.307
181.43
181.534
181.703
181.777
182.011
182.023
182.327
180.356
180.361
180.382
180.393
180.436
180.457
180.518
180.552
180.628
180.678
180.767
180.83
180.935
181.01
181.128
181.22
181.339
181.465
181.571
181.744
181.819
182.062
182.078
182.412
180.384
180.389
180.409
180.42
180.462
180.483
180.542
180.576
180.649
180.698
180.785
180.847
180.949
181.022
181.14
181.228
181.346
181.468
181.572
181.74
181.811
182.049
182.065
182.409
180.436
180.44
180.461
180.472
180.514
180.534
180.594
180.627
180.7
180.749
180.836
180.897
181.001
181.073
181.192
181.279
181.399
181.522
181.621
181.795
181.863
182.098
182.111
182.44
180.511
180.515
180.536
180.546
180.588
180.608
180.667
180.699
180.772
180.82
180.907
180.967
181.07
181.14
181.258
181.343
181.465
181.585
181.683
181.857
181.924
182.156
182.17
182.488
180.61
180.614
180.634
180.645
180.686
180.706
180.764
180.797
180.869
180.917
181.002
181.062
181.164
181.234
181.352
181.435
181.558
181.673
181.776
181.945
182.015
182.244
182.261
182.579
180.733
180.737
180.757
180.768
180.808
180.828
180.886
180.918
180.989
181.037
181.12
181.18
181.28
181.349
181.466
181.548
181.671
181.781
181.889
182.052
182.124
182.349
182.368
182.684
180.88
180.884
180.904
180.914
180.955
180.974
181.031
181.063
181.132
181.18
181.262
181.322
181.421
181.489
181.605
181.685
181.808
181.914
182.025
182.181
182.256
182.477
182.498
182.809
181.05
181.055
181.074
181.084
181.124
181.143
181.2
181.231
181.3
181.347
181.428
181.486
181.584
181.651
181.766
181.844
181.967
182.069
182.182
182.332
182.409
182.626
182.649
182.955
181.245
181.249
181.269
181.278
181.318
181.336
181.392
181.423
181.491
181.537
181.617
181.675
181.771
181.837
181.95
182.027
182.149
182.247
182.361
182.506
182.584
182.798
182.821
183.122
181.463
181.467
181.487
181.496
181.535
181.553
181.608
181.638
181.705
181.751
181.83
181.886
181.981
182.046
182.158
182.232
182.353
182.448
182.563
182.702
182.783
182.99
183.015
183.311
181.705
181.709
181.728
181.737
181.776
181.794
181.848
181.877
181.944
181.988
182.066
182.121
182.214
182.277
182.388
182.461
182.58
182.672
182.787
182.922
183.004
183.204
183.23
183.52
181.971
181.975
181.994
182.002
182.041
182.058
182.111
182.14
182.205
182.248
182.325
182.379
182.471
182.532
182.641
182.712
182.83
182.919
183.034
183.163
183.245
183.441
183.467
183.751
182.26
182.264
182.283
182.291
182.329
182.345
182.398
182.426
182.49
182.532
182.607
182.66
182.75
182.81
182.917
182.986
183.102
183.188
183.303
183.427
183.51
183.699
183.726
184.004
182.573
182.577
182.595
182.603
182.641
182.656
182.708
182.735
182.798
182.839
182.913
182.964
183.053
183.111
183.216
183.283
183.397
183.48
183.594
183.713
183.797
183.98
184.006
184.278
182.91
182.914
182.932
182.94
182.976
182.991
183.042
183.068
183.13
183.17
183.242
183.292
183.379
183.435
183.538
183.602
183.715
183.795
183.908
184.021
184.105
184.282
184.309
184.573
183.27
183.274
183.292
183.299
183.335
183.35
183.4
183.425
183.485
183.524
183.594
183.642
183.727
183.782
183.883
183.945
184.055
184.132
184.243
184.351
184.436
184.606
184.633
184.891
183.655
183.659
183.676
183.683
183.718
183.732
183.781
183.805
183.864
183.901
183.97
184.016
184.099
184.152
184.25
184.31
184.418
184.492
184.601
184.704
184.788
184.952
184.979
185.23
184.063
184.066
184.084
184.09
184.125
184.137
184.185
184.208
184.266
184.301
184.368
184.413
184.494
184.544
184.64
184.697
184.803
184.874
184.981
185.079
185.162
185.32
185.347
185.591
184.494
184.498
184.515
184.521
184.555
184.566
184.613
184.635
184.691
184.725
184.79
184.833
184.911
184.959
185.053
185.108
185.21
185.278
185.382
185.476
185.559
185.71
185.737
185.974
184.95
184.953
184.97
184.975
185.008
185.019
185.065
185.085
185.14
185.172
185.235
185.276
185.352
185.398
185.489
185.54
185.64
185.705
185.807
185.896
185.977
186.122
186.149
186.378
185.429
185.432
185.448
185.453
185.486
185.495
185.54
185.559
185.612
185.642
185.703
185.742
185.816
185.859
185.947
185.996
186.093
186.154
186.253
186.337
186.418
186.555
186.582
186.804
185.932
185.935
185.951
185.955
185.986
185.995
186.038
186.056
186.107
186.136
186.195
186.231
186.302
186.343
186.428
186.474
186.568
186.626
186.721
186.801
186.879
187.011
187.037
187.251
186.458
186.461
186.476
186.48
186.51
186.518
186.56
186.576
186.625
186.652
186.709
186.743
186.812
186.85
186.932
186.975
187.066
187.12
187.212
187.287
187.364
187.488
187.514
187.72
187.007
187.011
187.025
187.028
187.058
187.064
187.105
187.119
187.167
187.192
187.246
187.278
187.344
187.379
187.459
187.498
187.586
187.636
187.725
187.796
187.87
187.988
188.013
188.209
187.58
187.583
187.598
187.6
187.629
187.634
187.673
187.686
187.732
187.754
187.807
187.836
187.899
187.932
188.008
188.044
188.128
188.175
188.26
188.326
188.399
188.509
188.534
188.721
188.176
188.179
188.193
188.195
188.223
188.227
188.265
188.275
188.319
188.34
188.39
188.416
188.477
188.507
188.58
188.613
188.693
188.736
188.818
188.879
188.949
189.053
189.076
189.255
188.795
188.798
188.812
188.812
188.839
188.842
188.879
188.888
188.93
188.948
188.996
189.02
189.078
189.104
189.174
189.204
189.281
189.32
189.398
189.455
189.522
189.618
189.64
189.811
189.437
189.44
189.453
189.453
189.479
189.481
189.516
189.523
189.563
189.579
189.625
189.646
189.701
189.724
189.791
189.817
189.891
189.926
190
190.052
190.116
190.205
190.225
190.389
190.102
190.104
190.117
190.116
190.141
190.142
190.175
190.181
190.219
190.233
190.276
190.295
190.347
190.367
190.43
190.453
190.523
190.554
190.625
190.672
190.732
190.815
190.832
190.989
190.789
190.791
190.803
190.802
190.826
190.825
190.857
190.861
190.898
190.91
190.95
190.966
191.015
191.032
191.092
191.111
191.177
191.204
191.271
191.313
191.371
191.446
191.464
191.609
191.498
191.5
191.512
191.51
191.533
191.531
191.562
191.564
191.598
191.608
191.646
191.659
191.706
191.72
191.776
191.792
191.854
191.877
191.94
191.977
192.031
192.1
192.116
192.252
192.229
192.231
192.242
192.24
192.262
192.259
192.288
192.289
192.321
192.329
192.364
192.375
192.419
192.429
192.483
192.494
192.553
192.572
192.631
192.663
192.713
192.775
192.79
192.917
192.983
192.984
192.995
192.992
193.013
193.009
193.036
193.036
193.066
193.071
193.105
193.113
193.153
193.161
193.211
193.219
193.274
193.289
193.344
193.371
193.417
193.473
193.486
193.604
193.757
193.759
193.769
193.765
193.786
193.78
193.807
193.804
193.832
193.836
193.867
193.872
193.91
193.915
193.962
193.966
194.018
194.028
194.08
194.101
194.144
194.193
194.204
194.313
194.554
194.555
194.565
194.56
194.58
194.573
194.598
194.594
194.621
194.622
194.65
194.653
194.689
194.69
194.734
194.735
194.783
194.789
194.837
194.853
194.892
194.936
194.944
195.043
195.371
195.372
195.382
195.377
195.395
195.388
195.411
195.406
195.43
195.43
195.456
195.456
195.489
195.487
195.528
195.525
195.57
195.571
195.616
195.627
195.663
195.7
195.705
195.795
196.21
196.211
196.22
196.214
196.232
196.223
196.245
196.238
196.261
196.258
196.282
196.28
196.31
196.305
196.343
196.336
196.378
196.375
196.417
196.423
196.455
196.487
196.488
196.569
197.069
197.07
197.079
197.072
197.089
197.079
197.101
197.092
197.113
197.108
197.13
197.125
197.153
197.145
197.18
197.169
197.208
197.2
197.239
197.24
197.268
197.294
197.293
197.364
197.949
197.95
197.958
197.951
197.967
197.957
197.976
197.966
197.986
197.979
197.999
197.992
198.016
198.005
198.037
198.023
198.058
198.047
198.082
198.078
198.102
198.123
198.118
198.182
198.849
198.85
198.858
198.851
198.866
198.854
198.873
198.861
198.879
198.87
198.888
198.878
198.901
198.887
198.916
198.898
198.93
198.914
198.946
198.937
198.958
198.972
198.965
199.021
199.77
199.771
199.778
199.77
199.785
199.772
199.789
199.776
199.793
199.782
199.798
199.786
199.806
199.789
199.815
199.794
199.823
199.803
199.831
199.818
199.834
199.843
199.833
199.881
200.711
200.711
200.719
200.71
200.724
200.71
200.726
200.712
200.726
200.714
200.728
200.713
200.731
200.711
200.735
200.71
200.737
200.712
200.737
200.718
200.732
200.734
200.722
200.762
201.671
201.672
201.679
201.669
201.683
201.668
201.683
201.667
201.68
201.666
201.677
201.661
201.676
201.653
201.674
201.646
201.67
201.642
201.664
201.64
201.651
201.646
201.632
201.663
202.651
202.652
202.659
202.649
202.661
202.645
202.659
202.642
202.653
202.637
202.647
202.628
202.641
202.615
202.634
202.603
202.624
202.591
202.61
202.581
202.59
202.578
202.563
202.585
203.651
203.651
203.658
203.647
203.659
203.642
203.655
203.636
203.646
203.628
203.636
203.615
203.625
203.597
203.613
203.578
203.597
203.56
203.576
203.541
203.549
203.53
203.513
203.528
204.669
204.67
204.676
204.665
204.676
204.658
204.67
204.649
204.658
204.638
204.644
204.62
204.629
204.598
204.611
204.573
204.589
204.548
204.562
204.521
204.528
204.502
204.484
204.49
205.707
205.707
205.713
205.701
205.711
205.692
205.703
205.681
205.688
205.667
205.67
205.645
205.651
205.617
205.628
205.587
205.6
205.554
205.567
205.52
205.526
205.494
205.474
205.471
206.762
206.762
206.768
206.755
206.765
206.745
206.755
206.732
206.737
206.714
206.716
206.688
206.692
206.655
206.664
206.619
206.63
206.579
206.592
206.538
206.543
206.503
206.484
206.472
207.835
207.835
207.84
207.828
207.837
207.816
207.824
207.8
207.803
207.779
207.779
207.749
207.751
207.711
207.718
207.67
207.678
207.623
207.634
207.575
207.579
207.53
207.514
207.491
208.925
208.925
208.93
208.917
208.925
208.904
208.911
208.885
208.888
208.861
208.859
208.827
208.827
208.785
208.789
208.738
208.745
208.685
208.695
208.631
208.633
208.576
208.56
208.53
210.033
210.032
210.037
210.023
210.031
210.008
210.015
209.988
209.989
209.961
209.957
209.923
209.921
209.876
209.879
209.824
209.829
209.765
209.773
209.702
209.706
209.641
209.624
209.586
211.156
211.155
211.16
211.146
211.153
211.129
211.135
211.107
211.106
211.077
211.071
211.035
211.032
210.984
210.985
210.927
210.931
210.862
210.868
210.791
210.796
210.724
210.706
210.661
212.295
212.294
212.298
212.284
212.29
212.266
212.27
212.241
212.24
212.208
212.202
212.163
212.158
212.108
212.108
212.045
212.05
211.974
211.982
211.898
211.901
211.825
211.806
211.753
213.448
213.447
213.452
213.436
213.442
213.417
213.421
213.39
213.388
213.355
213.348
213.307
213.301
213.247
213.247
213.179
213.185
213.102
213.112
213.023
213.024
212.942
212.922
212.863
214.615
214.615
214.619
214.603
214.608
214.583
214.586
214.554
214.551
214.516
214.508
214.465
214.459
214.402
214.401
214.329
214.335
214.249
214.255
214.163
214.163
214.076
214.055
213.989
215.796
215.796
215.799
215.783
215.788
215.762
215.764
215.732
215.728
215.691
215.684
215.637
215.632
215.57
215.57
215.495
215.498
215.41
215.415
215.319
215.317
215.226
215.204
215.132
216.99
216.989
216.992
216.977
216.981
216.955
216.956
216.922
216.918
216.879
216.872
216.822
216.818
216.753
216.753
216.674
216.677
216.586
216.589
216.49
216.487
216.391
216.369
216.29
218.195
218.195
218.197
218.182
218.185
218.159
218.159
218.125
218.121
218.08
218.073
218.022
218.016
217.95
217.948
217.868
217.869
217.777
217.776
217.676
217.671
217.572
217.548
217.464
219.411
219.411
219.413
219.398
219.401
219.375
219.374
219.34
219.335
219.294
219.285
219.233
219.227
219.159
219.156
219.074
219.073
218.979
218.978
218.876
218.868
218.766
218.742
218.653
220.638
220.638
220.64
220.624
220.627
220.601
220.599
220.567
220.559
220.519
220.508
220.457
220.448
220.38
220.376
220.293
220.291
220.195
220.192
220.088
220.08
219.974
219.949
219.855
221.875
221.875
221.877
221.861
221.864
221.837
221.836
221.803
221.793
221.755
221.742
221.691
221.681
221.613
221.607
221.523
221.52
221.423
221.418
221.313
221.303
221.195
221.17
221.071
223.121
223.121
223.124
223.107
223.11
223.083
223.081
223.049
223.038
223.001
222.986
222.936
222.923
222.856
222.849
222.765
222.76
222.661
222.657
222.549
222.538
222.427
222.402
222.299
224.376
224.376
224.379
224.362
224.365
224.338
224.336
224.304
224.292
224.256
224.239
224.19
224.176
224.109
224.1
224.016
224.011
223.911
223.904
223.796
223.783
223.671
223.645
223.538
225.64
225.64
225.643
225.626
225.629
225.602
225.6
225.567
225.555
225.519
225.501
225.453
225.438
225.371
225.36
225.278
225.27
225.168
225.163
225.052
225.039
224.924
224.898
224.788
226.912
226.912
226.915
226.899
226.902
226.875
226.872
226.84
226.827
226.791
226.772
226.725
226.707
226.641
226.629
226.546
226.538
226.436
226.429
226.317
226.304
226.187
226.161
226.047
228.193
228.193
228.196
228.179
228.182
228.155
228.152
228.119
228.106
228.071
228.05
228.004
227.985
227.919
227.906
227.822
227.812
227.711
227.704
227.589
227.576
227.458
227.432
227.316
229.481
229.481
229.484
229.467
229.47
229.442
229.439
229.407
229.393
229.358
229.335
229.289
229.269
229.204
229.19
229.105
229.094
228.994
228.985
228.869
228.856
228.736
228.71
228.591
230.777
230.777
230.779
230.762
230.765
230.737
230.734
230.701
230.686
230.651
230.627
230.582
230.559
230.495
230.48
230.393
230.382
230.281
230.272
230.156
230.142
230.02
229.995
229.874
232.079
232.079
232.081
232.064
232.066
232.038
232.034
232
231.985
231.95
231.924
231.879
231.854
231.791
231.775
231.687
231.676
231.574
231.563
231.448
231.433
231.311
231.285
231.163
233.386
233.386
233.389
233.371
233.373
233.344
233.339
233.305
233.288
233.253
233.226
233.182
233.154
233.092
233.072
232.988
232.975
232.871
232.86
232.746
232.73
232.607
232.582
232.458
234.697
234.697
234.699
234.681
234.683
234.653
234.648
234.613
234.596
234.559
234.531
234.487
234.457
234.397
234.373
234.292
234.278
234.171
234.16
234.048
234.031
233.908
233.883
233.758
236.008
236.008
236.01
235.992
235.994
235.963
235.958
235.922
235.905
235.868
235.839
235.796
235.764
235.705
235.679
235.599
235.582
235.479
235.466
235.354
235.336
235.214
235.189
235.064
237.316
237.317
237.319
237.3
237.302
237.272
237.267
237.232
237.214
237.178
237.148
237.106
237.073
237.016
236.987
236.91
236.888
236.791
236.777
236.663
236.646
236.525
236.5
236.376
238.619
238.619
238.622
238.604
238.607
238.577
238.573
238.538
238.522
238.487
238.458
238.416
238.384
238.328
238.298
238.224
238.201
238.106
238.092
237.976
237.961
237.841
237.817
237.693
239.914
239.914
239.918
239.9
239.904
239.876
239.874
239.841
239.826
239.793
239.766
239.727
239.695
239.643
239.612
239.542
239.517
239.426
239.409
239.297
239.282
239.162
239.14
239.016
241.2
241.201
241.205
241.189
241.195
241.168
241.169
241.138
241.126
241.095
241.071
241.035
241.006
240.957
240.929
240.862
240.837
240.751
240.73
240.626
240.609
240.489
240.468
240.345
242.481
242.482
242.488
242.473
242.48
242.456
242.458
242.431
242.422
242.395
242.374
242.342
242.316
242.271
242.245
242.184
242.16
242.078
242.062
241.957
241.943
241.823
241.803
241.68
243.762
243.764
243.77
243.756
243.765
243.743
243.747
243.722
243.716
243.692
243.675
243.647
243.624
243.584
243.563
243.505
243.486
243.408
243.395
243.294
243.283
243.165
243.146
243.022
245.053
245.055
245.061
245.049
245.058
245.037
245.042
245.02
245.014
244.994
244.978
244.954
244.933
244.897
244.88
244.824
244.814
244.733
244.732
244.631
244.628
244.511
244.497
244.376
246.364
246.367
246.373
246.36
246.369
246.349
246.353
246.331
246.325
246.306
246.29
246.267
246.247
246.213
246.199
246.142
246.141
246.058
246.065
245.964
245.969
245.856
245.848
245.735
247.708
247.71
247.716
247.702
247.711
247.687
247.692
247.666
247.66
247.637
247.62
247.595
247.574
247.541
247.522
247.47
247.464
247.387
247.392
247.293
247.304
247.192
247.19
247.084
249.094
249.096
249.101
249.085
249.092
249.066
249.067
249.038
249.028
249
248.979
248.949
248.923
248.887
248.861
248.81
248.796
248.721
248.721
248.622
248.634
248.519
248.522
248.415
250.529
250.53
250.534
250.516
250.521
250.491
250.488
250.454
250.439
250.405
250.377
250.341
250.307
250.264
250.229
250.172
250.148
250.068
250.064
249.956
249.968
249.844
249.85
249.735
252.014
252.015
252.017
251.998
251.999
251.967
251.96
251.921
251.899
251.861
251.823
251.781
251.736
251.684
251.637
251.571
251.536
251.444
251.428
251.309
251.314
251.177
251.183
251.054
253.546
253.547
253.549
253.528
253.527
253.492
253.481
253.438
253.411
253.367
253.322
253.272
253.218
253.156
253.098
253.022
252.969
252.865
252.835
252.697
252.69
252.533
252.534
252.381
255.119
255.12
255.121
255.099
255.097
255.059
255.047
255
254.97
254.92
254.872
254.815
254.755
254.685
254.616
254.532
254.461
254.352
254.294
254.15
254.117
253.936
253.924
253.735
256.721
256.722
256.724
256.7
256.699
256.659
256.646
256.597
256.566
256.514
256.463
256.403
256.339
256.264
256.189
256.1
256.017
255.906
255.823
255.68
255.613
255.421
255.383
255.148
258.342
258.342
258.345
258.321
258.319
258.28
258.267
258.218
258.187
258.134
258.083
258.022
257.957
257.883
257.806
257.715
257.628
257.517
257.422
257.283
257.191
257.004
256.94
256.669
259.968
259.969
259.972
259.948
259.948
259.909
259.897
259.849
259.819
259.768
259.718
259.659
259.595
259.523
259.447
259.359
259.273
259.164
259.072
258.935
258.844
258.662
258.594
258.326
261.589
261.59
261.594
261.571
261.572
261.534
261.524
261.478
261.449
261.401
261.353
261.298
261.236
261.168
261.095
261.013
260.93
260.829
260.739
260.61
260.528
260.352
260.296
260.051
263.196
263.197
263.201
263.179
263.181
263.145
263.136
263.093
263.067
263.022
262.977
262.925
262.868
262.805
262.736
262.659
262.582
262.487
262.405
262.285
262.21
262.046
261.995
261.769
264.779
264.781
264.785
264.765
264.768
264.733
264.727
264.686
264.662
264.621
264.579
264.532
264.478
264.421
264.357
264.287
264.214
264.129
264.051
263.942
263.873
263.723
263.676
263.469
266.332
266.335
266.34
266.32
266.324
266.292
266.287
266.25
266.228
266.192
266.152
266.111
266.06
266.009
265.948
265.887
265.819
265.741
265.671
265.57
265.508
265.371
265.327
265.139
267.851
267.854
267.859
267.841
267.846
267.817
267.813
267.779
267.759
267.727
267.689
267.655
267.605
267.563
267.504
267.452
267.387
267.32
267.255
267.162
267.105
266.984
266.943
266.773
269.331
269.334
269.339
269.323
269.329
269.301
269.299
269.268
269.25
269.222
269.188
269.158
269.112
269.076
269.02
268.977
268.915
268.857
268.796
268.715
268.663
268.554
268.515
268.364
270.768
270.771
270.778
270.761
270.769
270.742
270.744
270.714
270.7
270.674
270.644
270.617
270.576
270.544
270.495
270.455
270.4
270.35
270.292
270.224
270.173
270.079
270.043
269.909
272.161
272.164
272.172
272.155
272.165
272.139
272.143
272.115
272.105
272.08
272.055
272.03
271.995
271.966
271.923
271.888
271.839
271.795
271.742
271.686
271.636
271.555
271.521
271.403
273.508
273.511
273.519
273.503
273.515
273.49
273.496
273.469
273.462
273.44
273.419
273.397
273.366
273.341
273.302
273.272
273.228
273.192
273.143
273.095
273.049
272.98
272.948
272.847
274.808
274.811
274.819
274.805
274.817
274.793
274.801
274.776
274.771
274.752
274.734
274.715
274.689
274.667
274.633
274.608
274.568
274.538
274.492
274.455
274.411
274.355
274.324
274.238
276.06
276.063
276.072
276.057
276.072
276.047
276.059
276.034
276.033
276.015
276
275.984
275.961
275.943
275.913
275.893
275.858
275.833
275.794
275.762
275.721
275.677
275.646
275.575
277.264
277.267
277.275
277.264
277.274
277.258
277.264
277.247
277.244
277.231
277.217
277.204
277.184
277.17
277.144
277.127
277.097
277.077
277.041
277.019
276.979
276.946
276.916
276.858
278.42
278.422
278.435
278.415
278.44
278.409
278.432
278.403
278.411
278.394
278.386
278.375
278.358
278.347
278.324
278.312
278.285
278.27
278.239
278.22
278.186
278.162
278.134
278.087
279.529
279.533
279.539
279.535
279.537
279.534
279.531
279.527
279.52
279.515
279.504
279.498
279.483
279.475
279.456
279.447
279.424
279.414
279.385
279.374
279.342
279.326
279.299
279.263
280.591
280.592
280.607
280.586
280.615
280.581
280.612
280.58
280.597
280.58
280.579
280.571
280.56
280.554
280.538
280.532
280.512
280.506
280.482
280.475
280.448
280.438
280.412
280.387
281.607
281.611
281.616
281.614
281.616
281.617
281.613
281.615
281.607
281.61
281.6
281.599
281.589
281.586
281.573
281.57
281.553
281.551
281.529
281.528
281.503
281.499
281.476
281.46
282.578
282.579
282.591
282.577
282.599
282.576
282.6
282.577
282.593
282.58
282.583
282.578
282.572
282.571
282.56
282.56
282.546
282.548
282.529
282.531
282.509
282.511
282.489
282.482
283.504
283.508
283.513
283.511
283.517
283.515
283.517
283.518
283.515
283.519
283.513
283.516
283.509
283.511
283.502
283.505
283.494
283.498
283.482
283.488
283.469
283.475
283.456
283.456
284.388
284.39
284.399
284.391
284.406
284.394
284.409
284.398
284.409
284.403
284.406
284.406
284.403
284.407
284.4
284.405
284.396
284.403
284.39
284.399
284.382
284.394
284.376
284.382
285.23
285.233
285.239
285.237
285.245
285.242
285.248
285.248
285.25
285.253
285.252
285.256
285.254
285.259
285.254
285.262
285.255
285.264
285.253
285.266
285.252
285.266
285.25
285.263
286.032
286.035
286.042
286.037
286.049
286.043
286.053
286.05
286.056
286.058
286.06
286.064
286.064
286.071
286.067
286.076
286.071
286.083
286.074
286.09
286.077
286.095
286.081
286.099
286.796
286.799
286.802
286.805
286.808
286.811
286.814
286.818
286.821
286.825
286.827
286.833
286.834
286.842
286.84
286.851
286.847
286.861
286.854
286.872
286.862
286.883
286.868
286.892
287.521
287.523
287.531
287.525
287.54
287.531
287.546
287.542
287.55
287.554
287.556
287.564
287.565
287.575
287.574
287.586
287.584
287.599
287.594
287.615
287.605
287.629
287.616
287.644
288.211
288.215
288.214
288.225
288.218
288.234
288.226
288.24
288.238
288.247
288.249
288.257
288.26
288.27
288.271
288.284
288.284
288.301
288.297
288.318
288.311
288.337
288.324
288.357
288.866
288.868
288.876
288.868
288.888
288.874
288.895
288.886
288.901
288.901
288.909
288.916
288.92
288.93
288.933
288.947
288.947
288.965
288.963
288.987
288.979
289.008
288.997
289.031
289.488
289.493
289.49
289.504
289.493
289.514
289.501
289.522
289.515
289.531
289.53
289.542
289.545
289.557
289.56
289.575
289.577
289.596
289.594
289.619
289.614
289.644
289.632
289.67
290.079
290.08
290.088
290.083
290.098
290.088
290.109
290.099
290.117
290.115
290.127
290.133
290.139
290.151
290.155
290.171
290.173
290.194
290.193
290.219
290.213
290.246
290.236
290.275
290.639
290.643
290.642
290.652
290.647
290.662
290.655
290.673
290.667
290.685
290.683
290.698
290.701
290.715
290.719
290.736
290.739
290.76
290.76
290.787
290.783
290.816
290.807
290.847
291.171
291.172
291.178
291.176
291.186
291.184
291.197
291.194
291.208
291.21
291.221
291.228
291.236
291.248
291.254
291.271
291.274
291.296
291.297
291.325
291.321
291.356
291.347
291.389
291.674
291.678
291.677
291.686
291.684
291.695
291.693
291.706
291.706
291.719
291.722
291.735
291.74
291.754
291.76
291.778
291.782
291.804
291.805
291.834
291.832
291.866
291.859
291.9
292.153
292.153
292.159
292.157
292.167
292.166
292.177
292.179
292.188
292.195
292.202
292.213
292.22
292.233
292.24
292.258
292.262
292.284
292.288
292.316
292.315
292.349
292.342
292.386
292.604
292.608
292.607
292.616
292.612
292.625
292.624
292.635
292.639
292.649
292.655
292.666
292.673
292.687
292.694
292.713
292.717
292.741
292.743
292.772
292.772
292.806
292.8
292.844
293.034
293.035
293.04
293.038
293.049
293.047
293.058
293.061
293.069
293.077
293.084
293.096
293.103
293.117
293.125
293.143
293.148
293.171
293.175
293.203
293.204
293.239
293.233
293.277
293.44
293.443
293.442
293.45
293.448
293.46
293.459
293.47
293.473
293.485
293.49
293.502
293.509
293.524
293.531
293.55
293.555
293.579
293.582
293.612
293.613
293.647
293.642
293.687
293.825
293.827
293.829
293.832
293.837
293.84
293.847
293.852
293.86
293.868
293.876
293.887
293.895
293.909
293.917
293.935
293.941
293.964
293.968
293.998
293.999
294.035
294.03
294.073
294.19
294.191
294.194
294.196
294.202
294.204
294.211
294.217
294.223
294.233
294.239
294.252
294.259
294.274
294.281
294.3
294.306
294.33
294.333
294.363
294.364
294.4
294.394
294.44
294.535
294.537
294.537
294.544
294.542
294.554
294.552
294.564
294.567
294.578
294.584
294.597
294.604
294.619
294.627
294.645
294.651
294.674
294.678
294.708
294.709
294.745
294.741
294.783
294.862
294.862
294.867
294.865
294.876
294.873
294.886
294.885
294.898
294.903
294.912
294.923
294.931
294.945
294.953
294.971
294.978
295.001
295.005
295.034
295.036
295.071
295.066
295.111
295.171
295.174
295.172
295.181
295.177
295.192
295.186
295.203
295.2
295.216
295.219
295.233
295.239
295.254
295.262
295.281
295.286
295.31
295.314
295.343
295.346
295.379
295.376
295.418
295.465
295.465
295.47
295.467
295.48
295.473
295.49
295.485
295.501
295.503
295.515
295.524
295.532
295.546
295.554
295.573
295.579
295.602
295.607
295.635
295.637
295.671
295.667
295.711
295.742
295.745
295.741
295.754
295.744
295.764
295.753
295.774
295.769
295.786
295.788
295.802
295.809
295.823
295.831
295.849
295.855
295.879
295.883
295.911
295.913
295.948
295.946
295.985
296.005
296.004
296.013
296.003
296.023
296.009
296.033
296.022
296.042
296.042
296.054
296.063
296.071
296.085
296.093
296.111
296.117
296.14
296.144
296.173
296.173
296.21
296.205
296.247
296.253
296.257
296.25
296.268
296.252
296.279
296.261
296.288
296.278
296.298
296.298
296.313
296.318
296.333
296.341
296.358
296.365
296.387
296.392
296.419
296.421
296.456
296.453
296.492
296.49
296.487
296.498
296.486
296.509
296.49
296.518
296.504
296.527
296.523
296.537
296.545
296.554
296.567
296.576
296.592
296.599
296.621
296.626
296.653
296.655
296.688
296.687
296.726
296.711
296.716
296.709
296.726
296.71
296.736
296.718
296.746
296.734
296.755
296.754
296.77
296.775
296.789
296.797
296.814
296.821
296.843
296.847
296.873
296.878
296.908
296.907
296.946
296.924
296.921
296.931
296.92
296.94
296.926
296.95
296.938
296.958
296.957
296.969
296.977
296.986
296.999
297.007
297.024
297.03
297.052
297.057
297.083
297.083
297.118
297.116
297.154
297.122
297.126
297.12
297.135
297.122
297.144
297.13
297.153
297.146
297.163
297.164
297.178
297.184
297.198
297.205
297.222
297.228
297.25
297.254
297.28
297.283
297.314
297.313
297.35
297.312
297.31
297.318
297.31
297.327
297.316
297.335
297.329
297.344
297.345
297.356
297.365
297.372
297.386
297.393
297.41
297.415
297.437
297.441
297.467
297.469
297.5
297.499
297.536
297.49
297.493
297.489
297.5
297.492
297.508
297.5
297.517
297.514
297.529
297.531
297.544
297.549
297.564
297.57
297.587
297.593
297.614
297.617
297.644
297.645
297.677
297.675
297.711
297.66
297.659
297.664
297.661
297.67
297.667
297.679
297.679
297.689
297.693
297.701
297.711
297.718
297.732
297.738
297.755
297.76
297.781
297.784
297.811
297.812
297.842
297.841
297.877
297.819
297.821
297.82
297.826
297.824
297.834
297.832
297.843
297.845
297.855
297.859
297.871
297.877
297.891
297.896
297.913
297.919
297.94
297.944
297.967
297.969
298
297.998
298.033
297.971
297.971
297.974
297.974
297.979
297.981
297.987
297.991
297.997
298.005
298.011
298.021
298.027
298.041
298.046
298.064
298.068
298.089
298.091
298.119
298.119
298.147
298.147
298.181
298.114
298.115
298.115
298.119
298.119
298.127
298.127
298.136
298.138
298.148
298.152
298.164
298.169
298.183
298.188
298.205
298.209
298.232
298.233
298.258
298.258
298.29
298.287
298.321
298.249
298.249
298.251
298.253
298.256
298.26
298.264
298.269
298.274
298.282
298.288
298.298
298.304
298.317
298.322
298.339
298.344
298.363
298.366
298.392
298.393
298.42
298.42
298.452
298.377
298.377
298.378
298.382
298.382
298.389
298.39
298.398
298.4
298.41
298.414
298.426
298.43
298.445
298.449
298.465
298.468
298.491
298.492
298.517
298.517
298.547
298.544
298.577
298.497
298.498
298.499
298.502
298.503
298.509
298.511
298.518
298.521
298.531
298.534
298.546
298.549
298.564
298.567
298.585
298.589
298.609
298.611
298.636
298.636
298.664
298.663
298.694
298.611
298.612
298.613
298.615
298.618
298.622
298.625
298.631
298.635
298.644
298.647
298.659
298.663
298.677
298.68
298.698
298.701
298.721
298.723
298.748
298.748
298.776
298.774
298.805
298.719
298.72
298.72
298.724
298.724
298.73
298.731
298.74
298.741
298.751
298.754
298.766
298.769
298.784
298.786
298.804
298.807
298.828
298.83
298.852
298.853
298.88
298.88
298.909
298.82
298.821
298.822
298.824
298.826
298.831
298.833
298.84
298.843
298.852
298.855
298.867
298.87
298.885
298.887
298.904
298.908
298.927
298.928
298.953
298.952
298.98
298.978
299.008
298.916
298.916
298.917
298.919
298.922
298.925
298.929
298.935
298.938
298.947
298.95
298.961
298.965
298.979
298.981
298.998
299.001
299.022
299.023
299.046
299.047
299.073
299.072
299.1
299.005
299.007
299.006
299.011
299.009
299.018
299.016
299.027
299.026
299.037
299.039
299.051
299.054
299.068
299.07
299.087
299.091
299.109
299.111
299.134
299.134
299.161
299.158
299.188
299.09
299.09
299.093
299.092
299.099
299.097
299.106
299.106
299.114
299.119
299.124
299.135
299.138
299.151
299.155
299.17
299.173
299.193
299.194
299.217
299.217
299.243
299.242
299.269
299.169
299.171
299.169
299.177
299.172
299.184
299.178
299.192
299.189
299.201
299.202
299.214
299.216
299.231
299.233
299.249
299.252
299.27
299.273
299.295
299.295
299.32
299.318
299.347
299.245
299.244
299.248
299.245
299.255
299.249
299.261
299.259
299.268
299.272
299.277
299.288
299.291
299.304
299.307
299.323
299.325
299.344
299.346
299.367
299.367
299.393
299.392
299.418
299.314
299.316
299.313
299.322
299.315
299.329
299.322
299.337
299.332
299.345
299.345
299.358
299.359
299.373
299.376
299.392
299.393
299.412
299.414
299.436
299.436
299.46
299.459