/*--------------------------------*- C++ -*----------------------------------*\
  =========                 |
  \\      /  F ield         | OpenFOAM: The Open Source CFD Toolbox
   \\    /   O peration     | Website:  https://openfoam.org
    \\  /    A nd           | Version:  10
     \\/     M anipulation  |
\*---------------------------------------------------------------------------*/
FoamFile
{
    format      ascii;
    class       volVectorField;
    location    "0.26";
    object      U;
}
// * * * * * * * * * * * * * * * * * * * * * * * * * * * * * * * * * * * * * //

dimensions      [0 1 -1 0 0 0 0];

internalField   nonuniform List<vector> 
4176
(
(497.488 -0.0142927 -4.37537e-09)
(497.473 0.0640139 1.39293e-09)
(497.449 0.0011019 -4.22182e-10)
(497.399 0.0907685 7.38293e-11)
(497.345 0.0505729 7.43192e-11)
(497.27 0.0899735 -4.18868e-10)
(497.18 0.125359 -4.91548e-10)
(497.087 0.0610388 -3.08012e-11)
(496.953 0.224746 3.14261e-10)
(496.848 0.00547855 4.03804e-10)
(496.671 0.343847 3.23972e-10)
(496.549 -0.0684045 3.95857e-10)
(496.338 0.469237 2.85868e-10)
(496.191 -0.138765 -7.37858e-11)
(495.955 0.567142 -2.89054e-10)
(495.772 -0.134798 -2.48262e-10)
(495.536 0.527687 -2.61828e-10)
(495.285 0.0243586 -7.85538e-11)
(495.072 0.334068 2.89289e-10)
(494.729 0.323812 2.1091e-10)
(494.575 -0.0176696 -9.73988e-11)
(494.096 0.772387 -1.7167e-10)
(494.066 -0.517068 4.33482e-11)
(493.443 1.44329 1.35994e-10)
(497.469 0.00477501 -4.37526e-09)
(497.455 0.114833 1.39323e-09)
(497.43 0.076148 -4.22441e-10)
(497.379 0.203669 7.31262e-11)
(497.324 0.185828 7.43048e-11)
(497.246 0.26469 -4.18773e-10)
(497.155 0.321262 -4.92492e-10)
(497.058 0.296137 -3.08072e-11)
(496.924 0.481696 3.14895e-10)
(496.813 0.298608 4.04099e-10)
(496.635 0.662358 3.23714e-10)
(496.507 0.279407 3.95957e-10)
(496.293 0.84982 2.84372e-10)
(496.141 0.259112 -7.37414e-11)
(495.9 1.01185 -2.88953e-10)
(495.712 0.302879 -2.4785e-10)
(495.469 1.04144 -2.63037e-10)
(495.215 0.511405 -7.86149e-11)
(494.995 0.913634 2.88324e-10)
(494.645 0.855978 2.10519e-10)
(494.491 0.627657 -9.73869e-11)
(493.991 1.33164 -1.74039e-10)
(493.955 0.124557 4.41182e-11)
(493.269 1.9934 1.35583e-10)
(497.412 0.0231219 -4.37891e-09)
(497.398 0.161485 1.39248e-09)
(497.374 0.147319 -4.24474e-10)
(497.323 0.308005 7.41626e-11)
(497.272 0.313426 7.39911e-11)
(497.194 0.42688 -4.19719e-10)
(497.107 0.505384 -4.90099e-10)
(497.01 0.51537 -2.914e-11)
(496.881 0.722418 3.1683e-10)
(496.771 0.573265 4.04488e-10)
(496.598 0.960135 3.23033e-10)
(496.473 0.606799 3.95331e-10)
(496.262 1.20561 2.86117e-10)
(496.115 0.634688 -7.37131e-11)
(495.876 1.42806 -2.89308e-10)
(495.696 0.714636 -2.46765e-10)
(495.454 1.52196 -2.65844e-10)
(495.208 0.966658 -8.02e-11)
(494.992 1.45645 2.8907e-10)
(494.652 1.34466 2.10116e-10)
(494.506 1.24688 -9.84147e-11)
(494.015 1.88283 -1.71464e-10)
(493.98 0.838162 4.43847e-11)
(493.271 2.60954 1.36491e-10)
(497.308 0.0418538 -4.37701e-09)
(497.294 0.208988 1.39634e-09)
(497.27 0.219811 -4.25355e-10)
(497.219 0.41432 7.7261e-11)
(497.168 0.443393 7.32485e-11)
(497.09 0.592236 -4.24257e-10)
(497.003 0.692944 -4.90335e-10)
(496.906 0.739002 -3.18116e-11)
(496.777 0.967634 3.10022e-10)
(496.668 0.853571 4.08065e-10)
(496.493 1.26347 3.24215e-10)
(496.369 0.941145 3.93868e-10)
(496.157 1.56828 2.87791e-10)
(496.012 1.01888 -7.52953e-11)
(495.77 1.85296 -2.96555e-10)
(495.592 1.13612 -2.48135e-10)
(495.346 2.01641 -2.63512e-10)
(495.096 1.4272 -8.05198e-11)
(494.89 2.00857 2.91434e-10)
(494.539 1.84157 2.09529e-10)
(494.398 1.85746 -1.01303e-10)
(493.914 2.42067 -1.72366e-10)
(493.885 1.52518 4.25849e-11)
(493.205 3.20629 1.26983e-10)
(497.156 0.0601833 -4.37863e-09)
(497.142 0.255509 1.40261e-09)
(497.119 0.290728 -4.21375e-10)
(497.068 0.518504 7.73239e-11)
(497.018 0.570527 7.65426e-11)
(496.94 0.754405 -4.18994e-10)
(496.855 0.876418 -4.92605e-10)
(496.759 0.95855 -2.98154e-11)
(496.631 1.20751 3.1549e-10)
(496.523 1.12905 4.06198e-10)
(496.35 1.56025 3.24645e-10)
(496.228 1.26993 3.96977e-10)
(496.017 1.92354 2.84516e-10)
(495.875 1.39663 -7.63218e-11)
(495.633 2.27069 -2.94743e-10)
(495.46 1.55082 -2.50823e-10)
(495.21 2.51177 -2.64688e-10)
(494.966 1.87041 -7.96991e-11)
(494.763 2.55359 2.86047e-10)
(494.41 2.33946 2.15327e-10)
(494.271 2.45195 -9.36316e-11)
(493.792 2.94651 -1.69486e-10)
(493.762 2.16775 4.61545e-11)
(493.102 3.76414 1.37758e-10)
(496.956 0.0785059 -4.3908e-09)
(496.942 0.301738 1.40019e-09)
(496.919 0.361494 -4.19817e-10)
(496.868 0.622106 7.27463e-11)
(496.818 0.697359 6.54059e-11)
(496.741 0.91572 -4.24291e-10)
(496.657 1.05946 -4.90495e-10)
(496.561 1.17705 -3.38454e-11)
(496.435 1.44681 3.16072e-10)
(496.327 1.40345 4.11781e-10)
(496.156 1.85616 3.25078e-10)
(496.034 1.59789 3.91462e-10)
(495.825 2.27719 2.81926e-10)
(495.684 1.77428 -7.39552e-11)
(495.442 2.68512 -2.97902e-10)
(495.273 1.96979 -2.48399e-10)
(495.017 3.00244 -2.54256e-10)
(494.786 2.31331 -7.68e-11)
(494.57 3.10308 2.9595e-10)
(494.229 2.83626 2.17488e-10)
(494.084 3.0482 -9.7943e-11)
(493.61 3.47454 -1.80299e-10)
(493.574 2.8146 4.28946e-11)
(492.913 4.32102 1.37987e-10)
(496.707 0.0966519 -4.39041e-09)
(496.693 0.347304 1.39686e-09)
(496.67 0.431472 -4.35772e-10)
(496.62 0.724272 7.29019e-11)
(496.571 0.822736 8.01142e-11)
(496.494 1.07482 -4.23677e-10)
(496.411 1.24039 -5.02252e-10)
(496.316 1.39261 -2.94096e-11)
(496.191 1.68336 3.22656e-10)
(496.084 1.67434 4.0716e-10)
(495.915 2.14862 3.22512e-10)
(495.794 1.92206 4.02697e-10)
(495.587 2.62645 2.9784e-10)
(495.448 2.14828 -7.2104e-11)
(495.207 3.09346 -2.93624e-10)
(495.042 2.3871 -2.45274e-10)
(494.784 3.48208 -2.63826e-10)
(494.564 2.758 -8.24114e-11)
(494.337 3.65048 2.90539e-10)
(494.009 3.32116 2.15037e-10)
(493.859 3.64334 -9.94456e-11)
(493.391 4.00212 -1.80495e-10)
(493.351 3.47115 4.5181e-11)
(492.692 4.88323 1.43019e-10)
(496.41 0.114661 -4.40583e-09)
(496.396 0.392406 1.40701e-09)
(496.373 0.500829 -4.15385e-10)
(496.323 0.82542 7.64407e-11)
(496.275 0.946946 6.72985e-11)
(496.199 1.23232 -4.2104e-10)
(496.117 1.41958 -4.86138e-10)
(496.022 1.60601 -3.07561e-11)
(495.899 1.91758 3.04542e-10)
(495.792 1.94263 4.04879e-10)
(495.626 2.43815 3.33612e-10)
(495.506 2.24334 3.973e-10)
(495.3 2.97211 2.72393e-10)
(495.163 2.51931 -8.08449e-11)
(494.923 3.49729 -2.86746e-10)
(494.762 2.8019 -2.53533e-10)
(494.503 3.95431 -2.60318e-10)
(494.291 3.2003 -6.58232e-11)
(494.058 4.19323 2.94489e-10)
(493.742 3.80162 2.00343e-10)
(493.585 4.23663 -9.97311e-11)
(493.126 4.52486 -1.64475e-10)
(493.082 4.12242 4.26506e-11)
(492.431 5.43822 1.19794e-10)
(496.064 0.13249 -4.41573e-09)
(496.05 0.436955 1.39337e-09)
(496.028 0.569406 -4.37328e-10)
(495.978 0.925343 6.42905e-11)
(495.931 1.0697 6.72065e-11)
(495.855 1.38789 -4.29672e-10)
(495.774 1.59659 -5.01866e-10)
(495.68 1.81677 -3.39875e-11)
(495.558 2.14886 3.11241e-10)
(495.453 2.20762 4.02021e-10)
(495.288 2.724 3.22051e-10)
(495.17 2.56085 3.96035e-10)
(494.966 3.31329 2.8085e-10)
(494.831 2.88634 -7.96747e-11)
(494.593 3.89568 -2.93643e-10)
(494.435 3.21287 -2.50635e-10)
(494.176 4.41806 -2.64736e-10)
(493.973 3.63962 -7.68213e-11)
(493.734 4.72917 2.91158e-10)
(493.43 4.27546 2.07236e-10)
(493.267 4.82734 -1.01805e-10)
(492.817 5.04285 -1.75653e-10)
(492.769 4.76932 4.44107e-11)
(492.127 5.9866 1.36149e-10)
(495.67 0.150136 -4.39917e-09)
(495.656 0.480958 1.42236e-09)
(495.634 0.637196 -4.18613e-10)
(495.585 1.02406 8.75107e-11)
(495.538 1.19099 8.576e-11)
(495.463 1.54155 -4.12937e-10)
(495.383 1.77142 -4.85316e-10)
(495.29 2.0249 -1.66696e-11)
(495.17 2.3772 3.29824e-10)
(495.066 2.46929 4.18973e-10)
(494.903 3.00608 3.40621e-10)
(494.786 2.87446 4.12134e-10)
(494.584 3.64989 2.9951e-10)
(494.452 3.24914 -6.71273e-11)
(494.215 4.28855 -2.80189e-10)
(494.061 3.6197 -2.40116e-10)
(493.802 4.87368 -2.51043e-10)
(493.606 4.07519 -6.58307e-11)
(493.363 5.2576 3.05161e-10)
(493.071 4.74311 2.18834e-10)
(492.902 5.41335 -8.97893e-11)
(492.463 5.55413 -1.63594e-10)
(492.411 5.41006 5.38511e-11)
(491.778 6.52664 1.45312e-10)
(495.227 0.16757 -4.41952e-09)
(495.213 0.52436 1.41118e-09)
(495.192 0.704102 -4.284e-10)
(495.143 1.12146 8.00947e-11)
(495.097 1.31067 7.89403e-11)
(495.022 1.69315 -4.21264e-10)
(494.944 1.94387 -4.90773e-10)
(494.851 2.2302 -1.85303e-11)
(494.733 2.60231 3.28312e-10)
(494.63 2.72735 4.17529e-10)
(494.469 3.28404 3.41214e-10)
(494.354 3.18375 4.14921e-10)
(494.154 3.98144 3.02262e-10)
(494.025 3.60711 -6.55478e-11)
(493.79 4.67538 -2.7576e-10)
(493.64 4.02167 -2.34297e-10)
(493.381 5.32104 -2.43664e-10)
(493.193 4.50646 -5.957e-11)
(492.946 5.77766 3.15741e-10)
(492.665 5.20428 2.29603e-10)
(492.491 5.99281 -1.01598e-10)
(492.064 6.05745 -1.97599e-10)
(492.008 6.04438 2.46645e-11)
(491.386 7.05789 1.14192e-10)
(494.736 0.184771 -4.42753e-09)
(494.722 0.567117 1.41421e-09)
(494.701 0.770046 -4.31833e-10)
(494.653 1.21744 7.47435e-11)
(494.607 1.42862 7.37868e-11)
(494.533 1.84257 -4.27625e-10)
(494.456 2.11379 -4.99276e-10)
(494.365 2.43253 -2.8467e-11)
(494.248 2.82405 3.18704e-10)
(494.147 2.98163 4.08357e-10)
(493.987 3.55769 3.31017e-10)
(493.875 3.48846 4.0598e-10)
(493.677 4.30764 2.91415e-10)
(493.55 3.95986 -7.5424e-11)
(493.317 5.05581 -2.90572e-10)
(493.172 4.41818 -2.48202e-10)
(492.914 5.7602 -2.60903e-10)
(492.732 4.93308 -7.28682e-11)
(492.483 6.28878 2.97422e-10)
(492.213 5.65872 2.11152e-10)
(492.034 6.56402 -9.68008e-11)
(491.62 6.55138 -1.68389e-10)
(491.56 6.67151 5.06432e-11)
(490.949 7.57977 1.40702e-10)
(494.196 0.20171 -4.43621e-09)
(494.182 0.609169 1.41419e-09)
(494.162 0.834925 -4.38224e-10)
(494.114 1.31187 6.89214e-11)
(494.069 1.54467 6.54087e-11)
(493.996 1.98962 -4.40389e-10)
(493.92 2.28098 -5.14191e-10)
(493.83 2.63168 -4.50266e-11)
(493.715 3.04219 3.02204e-10)
(493.615 3.2319 3.90033e-10)
(493.458 3.82678 3.05113e-10)
(493.347 3.78831 3.80162e-10)
(493.152 4.62819 2.58589e-10)
(493.028 4.30694 -8.11299e-11)
(492.797 5.42939 -2.66949e-10)
(492.656 4.80854 -2.31072e-10)
(492.399 6.19102 -2.4289e-10)
(492.224 5.35466 -6.03943e-11)
(491.973 6.79025 3.10111e-10)
(491.715 6.10531 2.21498e-10)
(491.532 7.12656 -8.87975e-11)
(491.129 7.03545 -1.63313e-10)
(491.067 7.2899 5.60341e-11)
(490.467 8.09174 1.4389e-10)
(493.607 0.218363 -4.43678e-09)
(493.594 0.650464 1.43901e-09)
(493.573 0.898649 -4.39545e-10)
(493.526 1.40464 4.9732e-11)
(493.482 1.65865 6.239e-11)
(493.41 2.13411 -4.32021e-10)
(493.335 2.44522 -4.93563e-10)
(493.246 2.82742 -7.51322e-12)
(493.133 3.25648 3.22075e-10)
(493.035 3.47789 3.90979e-10)
(492.88 4.09103 3.18538e-10)
(492.772 4.08301 4.0394e-10)
(492.578 4.9428 3.00956e-10)
(492.458 4.64801 -6.21761e-11)
(492.23 5.79576 -3.0038e-10)
(492.093 5.19224 -2.72204e-10)
(491.838 6.61308 -2.79377e-10)
(491.669 5.7706 -7.89442e-11)
(491.416 7.28162 3.04532e-10)
(491.17 6.54365 2.27215e-10)
(490.982 7.67972 -1.01307e-10)
(490.593 7.50859 -1.92263e-10)
(490.528 7.89821 3.92564e-11)
(489.941 8.59328 1.41178e-10)
(492.969 0.234706 -4.46024e-09)
(492.956 0.690951 1.40094e-09)
(492.936 0.961127 -4.31298e-10)
(492.889 1.49562 1.06499e-10)
(492.846 1.77041 8.8125e-11)
(492.775 2.27585 -4.29781e-10)
(492.702 2.60626 -5.14151e-10)
(492.614 3.01947 -5.32242e-11)
(492.503 3.46662 3.19832e-10)
(492.407 3.71931 4.33594e-10)
(492.254 4.35015 3.39768e-10)
(492.148 4.37224 3.98517e-10)
(491.957 5.25117 2.6665e-10)
(491.84 4.98273 -8.39928e-11)
(491.614 6.15459 -2.76582e-10)
(491.482 5.56881 -2.43275e-10)
(491.229 7.02594 -2.69251e-10)
(491.067 6.18019 -9.02211e-11)
(490.813 7.76229 2.64054e-10)
(490.578 6.97346 1.98096e-10)
(490.387 8.2231 -8.85083e-11)
(490.011 7.96996 -1.681e-10)
(489.943 8.49522 3.94911e-11)
(489.37 9.08386 1.15924e-10)
(492.282 0.250719 -4.45418e-09)
(492.269 0.730585 1.45271e-09)
(492.249 1.02228 -4.38947e-10)
(492.203 1.5847 4.68916e-11)
(492.161 1.87977 6.07556e-11)
(492.091 2.41463 -4.31006e-10)
(492.019 2.76385 -4.86884e-10)
(491.933 3.20754 3.70815e-13)
(491.824 3.67226 3.24558e-10)
(491.73 3.95578 3.93421e-10)
(491.58 4.60377 3.26015e-10)
(491.477 4.65563 4.12741e-10)
(491.288 5.55295 3.1118e-10)
(491.175 5.31072 -8.7764e-11)
(490.952 6.50555 -3.33379e-10)
(490.823 5.93782 -2.68861e-10)
(490.573 7.42924 -2.69706e-10)
(490.418 6.5826 -6.52115e-11)
(490.163 8.23147 3.20243e-10)
(489.94 7.39444 2.04617e-10)
(489.745 8.75606 -1.27647e-10)
(489.383 8.41925 -1.81419e-10)
(489.312 9.08032 5.29474e-11)
(488.753 9.56275 1.53556e-10)
(491.546 0.26638 -4.47845e-09)
(491.532 0.769319 1.41764e-09)
(491.513 1.08203 -4.57875e-10)
(491.467 1.67176 4.3237e-11)
(491.427 1.98659 7.1505e-11)
(491.358 2.55026 -4.05257e-10)
(491.288 2.91773 -4.83967e-10)
(491.204 3.39133 -1.78072e-11)
(491.096 3.87308 3.2207e-10)
(491.004 4.18692 4.05513e-10)
(490.857 4.85146 3.15346e-10)
(490.756 4.93274 3.81598e-10)
(490.571 5.84773 2.91936e-10)
(490.461 5.63157 -5.74223e-11)
(490.241 6.84831 -2.83161e-10)
(490.117 6.29887 -2.4571e-10)
(489.869 7.82273 -2.66216e-10)
(489.721 6.97699 -8.15085e-11)
(489.467 8.68835 2.78337e-10)
(489.255 7.80626 1.81472e-10)
(489.057 9.27707 -1.3944e-10)
(488.709 8.85715 -1.783e-10)
(488.634 9.65396 7.09627e-11)
(488.09 10.0287 1.50405e-10)
(490.759 0.281665 -4.4808e-09)
(490.746 0.807102 1.44429e-09)
(490.727 1.14029 -4.24946e-10)
(490.682 1.75668 9.80837e-11)
(490.643 2.09069 9.4867e-11)
(490.575 2.68253 -4.1059e-10)
(490.507 3.06766 -4.77062e-10)
(490.424 3.57055 6.6745e-12)
(490.319 4.0687 3.63422e-10)
(490.23 4.41233 4.18344e-10)
(490.085 5.09278 2.99889e-10)
(489.988 5.20308 3.78671e-10)
(489.806 6.13502 2.59298e-10)
(489.699 5.94477 -1.09496e-10)
(489.482 7.18242 -3.25721e-10)
(489.364 6.65156 -2.71194e-10)
(489.118 8.20615 -2.83405e-10)
(488.977 7.36261 -8.48252e-11)
(488.724 9.13227 2.91779e-10)
(488.523 8.20863 2.09892e-10)
(488.322 9.7857 -9.6093e-11)
(487.989 9.28319 -1.64101e-10)
(487.91 10.2153 5.99285e-11)
(487.382 10.4811 1.54571e-10)
(489.923 0.296544 -4.49816e-09)
(489.91 0.84387 1.43434e-09)
(489.892 1.19695 -4.46432e-10)
(489.848 1.83933 7.19472e-11)
(489.809 2.19192 6.21659e-11)
(489.743 2.81124 -4.54792e-10)
(489.676 3.2134 -5.23877e-10)
(489.596 3.74492 -4.30552e-11)
(489.493 4.25881 3.05783e-10)
(489.406 4.63163 3.94962e-10)
(489.265 5.3273 3.13501e-10)
(489.17 5.46616 3.83604e-10)
(488.992 6.4143 2.55315e-10)
(488.889 6.24977 -1.18045e-10)
(488.676 7.50736 -3.44279e-10)
(488.562 6.9953 -2.94373e-10)
(488.32 8.57905 -2.70973e-10)
(488.185 7.73895 -4.37791e-11)
(487.934 9.56277 3.3206e-10)
(487.744 8.60115 2.36218e-10)
(487.54 10.2815 -7.54934e-11)
(487.223 9.69709 -1.53001e-10)
(487.139 10.7637 6.8261e-11)
(486.628 10.9196 1.5892e-10)
(489.037 0.310984 -4.52528e-09)
(489.023 0.879544 1.44873e-09)
(489.006 1.2519 -4.18282e-10)
(488.963 1.91954 7.69909e-11)
(488.926 2.29006 8.79656e-11)
(488.861 2.93616 -4.06563e-10)
(488.796 3.35467 -5.03161e-10)
(488.718 3.91415 -4.68773e-11)
(488.618 4.44307 3.24671e-10)
(488.533 4.84445 4.34935e-10)
(488.395 5.55461 3.27857e-10)
(488.304 5.72152 4.14063e-10)
(488.129 6.68507 3.05602e-10)
(488.031 6.54598 -9.84044e-11)
(487.821 7.82256 -2.99731e-10)
(487.713 7.32949 -2.35068e-10)
(487.474 8.94091 -2.76165e-10)
(487.346 8.10544 -1.06038e-10)
(487.096 9.97947 2.82895e-10)
(486.919 8.9834 2.09304e-10)
(486.712 10.7638 -1.29076e-10)
(486.41 10.0985 -1.8122e-10)
(486.322 11.2986 5.59556e-11)
(485.827 11.3437 1.22434e-10)
(488.1 0.324945 -4.51681e-09)
(488.087 0.914038 1.46375e-09)
(488.07 1.30498 -4.19742e-10)
(488.028 1.99713 1.11642e-10)
(487.992 2.38489 1.06149e-10)
(487.928 3.05704 -4.45721e-10)
(487.866 3.4912 -5.50105e-10)
(487.789 4.07793 -5.55512e-11)
(487.692 4.62116 3.07522e-10)
(487.611 5.05045 4.04751e-10)
(487.476 5.77431 3.28782e-10)
(487.388 5.96871 4.10712e-10)
(487.217 6.94682 2.96677e-10)
(487.123 6.83283 -7.34778e-11)
(486.918 8.12742 -2.81836e-10)
(486.815 7.65345 -2.31376e-10)
(486.58 9.29113 -2.38358e-10)
(486.459 8.4614 -8.13433e-11)
(486.212 10.382 2.55248e-10)
(486.045 9.35501 1.76997e-10)
(485.836 11.2321 -1.29644e-10)
(485.55 10.4871 -1.9409e-10)
(485.458 11.8194 2.96222e-11)
(484.981 11.753 1.31402e-10)
(487.112 0.338388 -4.54793e-09)
(487.099 0.947258 1.42002e-09)
(487.083 1.35606 -4.44425e-10)
(487.042 2.0719 1.12191e-10)
(487.007 2.47617 8.27515e-11)
(486.946 3.17359 -4.4726e-10)
(486.885 3.62268 -5.27616e-10)
(486.811 4.23595 -1.16102e-11)
(486.717 4.79274 3.71761e-10)
(486.639 5.24927 4.43867e-10)
(486.507 5.98603 3.44403e-10)
(486.423 6.20733 3.98057e-10)
(486.256 7.19912 2.52832e-10)
(486.167 7.10983 -9.67465e-11)
(485.966 8.42139 -2.87871e-10)
(485.869 7.96651 -2.53757e-10)
(485.638 9.62907 -2.83775e-10)
(485.525 8.80601 -1.02726e-10)
(485.28 10.77 3.00972e-10)
(485.124 9.71562 2.32632e-10)
(484.914 11.6854 -9.61878e-11)
(484.643 10.8625 -1.8587e-10)
(484.547 12.3257 1.5917e-11)
(484.088 12.1471 1.36291e-10)
(486.074 0.351274 -4.56354e-09)
(486.061 0.97912 1.42515e-09)
(486.046 1.40499 -4.46054e-10)
(486.006 2.14366 1.18036e-10)
(485.973 2.56366 9.27868e-11)
(485.913 3.28555 -4.43629e-10)
(485.854 3.74881 -5.28922e-10)
(485.783 4.38788 -6.11573e-11)
(485.692 4.95746 3.23226e-10)
(485.617 5.44056 4.50268e-10)
(485.488 6.1894 3.55593e-10)
(485.409 6.43701 4.08806e-10)
(485.246 7.44157 2.63536e-10)
(485.161 7.37651 -8.82604e-11)
(484.965 8.70398 -2.78572e-10)
(484.874 8.26809 -2.49704e-10)
(484.647 9.95409 -2.79195e-10)
(484.541 9.13843 -9.36382e-11)
(484.3 11.1431 3.12272e-10)
(484.155 10.0648 2.41939e-10)
(483.944 12.1228 -8.65223e-11)
(483.69 11.224 -1.77352e-10)
(483.589 12.8169 3.08034e-11)
(483.149 12.5256 1.09261e-10)
(484.985 0.363572 -4.58507e-09)
(484.972 1.00955 1.47089e-09)
(484.958 1.45166 -4.22361e-10)
(484.918 2.21224 7.47595e-11)
(484.887 2.64715 3.70593e-11)
(484.829 3.39266 -4.61363e-10)
(484.773 3.86927 -5.0458e-10)
(484.704 4.53337 -4.49245e-11)
(484.616 5.11495 3.29787e-10)
(484.544 5.62394 4.4168e-10)
(484.42 6.38405 3.3054e-10)
(484.345 6.65737 4.24947e-10)
(484.186 7.67377 3.2236e-10)
(484.106 7.63248 -9.39733e-11)
(483.915 8.97477 -3.49088e-10)
(483.83 8.55768 -2.74097e-10)
(483.608 10.2657 -2.63681e-10)
(483.51 9.45795 -8.88295e-11)
(483.272 11.5009 3.07927e-10)
(483.138 10.402 2.28565e-10)
(482.926 12.5432 -1.13312e-10)
(482.689 11.5709 -1.63795e-10)
(482.585 13.292 8.1934e-11)
(482.164 12.888 1.42931e-10)
(483.844 0.37526 -4.5685e-09)
(483.832 1.0385 1.50017e-09)
(483.818 1.49598 -4.08449e-10)
(483.78 2.27752 8.63552e-11)
(483.75 2.72645 4.22747e-11)
(483.694 3.49468 -4.63369e-10)
(483.641 3.98379 -5.11228e-10)
(483.575 4.67212 -1.1244e-12)
(483.49 5.26484 3.69057e-10)
(483.422 5.79903 4.22395e-10)
(483.301 6.56955 3.04428e-10)
(483.23 6.86799 3.95212e-10)
(483.076 7.89532 2.84668e-10)
(483.002 7.87735 -8.48358e-11)
(482.815 9.23335 -2.89625e-10)
(482.736 8.83486 -2.2535e-10)
(482.519 10.5634 -2.75165e-10)
(482.429 9.76406 -1.07976e-10)
(482.196 11.8427 2.81306e-10)
(482.072 10.7265 2.00401e-10)
(481.861 12.9461 -9.75394e-11)
(481.64 11.9022 -1.54502e-10)
(481.533 13.7498 8.76743e-11)
(481.131 13.2338 1.43352e-10)
(482.653 0.386324 -4.57817e-09)
(482.641 1.06593 1.47504e-09)
(482.628 1.53789 -4.69362e-10)
(482.591 2.33941 9.85469e-11)
(482.563 2.80145 6.91981e-11)
(482.509 3.59145 -4.70965e-10)
(482.458 4.09214 -4.96196e-10)
(482.395 4.80382 -2.26228e-11)
(482.313 5.40681 3.09771e-10)
(482.249 5.96545 4.40394e-10)
(482.132 6.74549 3.44691e-10)
(482.066 7.06847 3.96485e-10)
(481.916 8.1058 3.07771e-10)
(481.847 8.1107 -9.61264e-11)
(481.666 9.47933 -3.42286e-10)
(481.593 9.09922 -2.56477e-10)
(481.381 10.8468 -2.86975e-10)
(481.299 10.0563 -9.78332e-11)
(481.07 12.1682 3.11215e-10)
(480.957 11.0376 1.95821e-10)
(480.747 13.3308 -1.37851e-10)
(480.542 12.2172 -1.7468e-10)
(480.433 14.1889 2.80342e-11)
(480.052 13.5623 1.08531e-10)
(481.41 0.396751 -4.65214e-09)
(481.398 1.09182 1.45544e-09)
(481.386 1.57734 -4.71214e-10)
(481.35 2.39783 6.93057e-11)
(481.324 2.87204 6.94376e-11)
(481.272 3.68282 -4.49706e-10)
(481.224 4.19414 -5.08876e-10)
(481.164 4.92826 -4.58867e-12)
(481.086 5.54054 3.57063e-10)
(481.025 6.12285 4.53386e-10)
(480.913 6.91148 3.80596e-10)
(480.851 7.25837 4.03355e-10)
(480.706 8.30475 2.7924e-10)
(480.643 8.3321 -1.02593e-10)
(480.466 9.71229 -3.204e-10)
(480.401 9.35036 -2.62323e-10)
(480.194 11.1156 -2.70026e-10)
(480.12 10.3341 -6.15549e-11)
(479.896 12.4771 3.24314e-10)
(479.793 11.3346 2.26564e-10)
(479.585 13.6968 -1.38566e-10)
(479.397 12.5156 -2.00517e-10)
(479.285 14.6089 2.85874e-11)
(478.923 13.8734 1.24601e-10)
(480.116 0.406532 -4.62689e-09)
(480.105 1.11613 1.51381e-09)
(480.093 1.61429 -4.15999e-10)
(480.058 2.45273 8.21954e-11)
(480.034 2.93814 3.51883e-11)
(479.984 3.7687 -4.81678e-10)
(479.939 4.28965 -5.27654e-10)
(479.881 5.04527 -9.91371e-12)
(479.807 5.66584 3.58706e-10)
(479.75 6.27095 4.66754e-10)
(479.642 7.06717 3.4655e-10)
(479.585 7.4373 3.81864e-10)
(479.446 8.49175 2.67803e-10)
(479.388 8.54109 -1.09118e-10)
(479.217 9.93179 -3.15927e-10)
(479.158 9.58784 -2.46741e-10)
(478.957 11.3694 -2.40627e-10)
(478.891 10.5972 -2.41276e-11)
(478.672 12.769 3.13877e-10)
(478.58 11.6166 1.74738e-10)
(478.374 14.0427 -1.27151e-10)
(478.203 12.7979 -1.79976e-10)
(478.088 15.0105 6.40673e-11)
(477.747 14.1673 1.72974e-10)
(478.771 0.415653 -4.63019e-09)
(478.76 1.13885 1.48712e-09)
(478.749 1.6487 -4.93512e-10)
(478.715 2.50404 7.63164e-11)
(478.693 2.99968 1.05858e-10)
(478.645 3.84901 -4.46593e-10)
(478.602 4.37858 -5.41165e-10)
(478.548 5.15471 -9.1904e-12)
(478.477 5.78252 3.24515e-10)
(478.424 6.40956 3.91207e-10)
(478.321 7.2123 3.47819e-10)
(478.269 7.60493 4.53155e-10)
(478.134 8.66639 2.93022e-10)
(478.083 8.73722 -1.21546e-10)
(477.917 10.1374 -3.11255e-10)
(477.865 9.81119 -2.25011e-10)
(477.67 11.6078 -2.65922e-10)
(477.612 10.8451 -8.93252e-11)
(477.399 13.0437 3.28048e-10)
(477.317 11.8828 2.01872e-10)
(477.114 14.3677 -1.46501e-10)
(476.96 13.0639 -1.85788e-10)
(476.843 15.3925 7.64479e-11)
(476.522 14.4423 1.46353e-10)
(477.374 0.424099 -4.70716e-09)
(477.363 1.15994 1.46603e-09)
(477.353 1.68052 -4.83286e-10)
(477.321 2.55171 6.38728e-11)
(477.3 3.05659 5.8042e-11)
(477.254 3.92365 -4.73778e-10)
(477.214 4.46083 -5.30787e-10)
(477.163 5.25649 -2.09242e-11)
(477.096 5.89049 3.38667e-10)
(477.047 6.53854 4.29379e-10)
(476.948 7.34669 3.55302e-10)
(476.901 7.76104 4.36785e-10)
(476.772 8.82836 3.06406e-10)
(476.726 8.92012 -8.75253e-11)
(476.567 10.3285 -3.06284e-10)
(476.522 10.0199 -2.48443e-10)
(476.332 11.8303 -2.59986e-10)
(476.283 11.0774 -5.53923e-11)
(476.075 13.3007 3.36153e-10)
(476.004 12.133 2.35394e-10)
(475.805 14.6709 -7.74356e-11)
(475.668 13.3125 -2.08275e-10)
(475.548 15.7547 1.47731e-11)
(475.249 14.6991 1.18964e-10)
(475.926 0.431853 -4.6493e-09)
(475.915 1.17936 1.53561e-09)
(475.906 1.70969 -4.42932e-10)
(475.875 2.59565 1.04081e-10)
(475.856 3.10878 8.89609e-11)
(475.812 3.99254 -4.50007e-10)
(475.775 4.53632 -5.13788e-10)
(475.727 5.35054 -7.48787e-12)
(475.664 5.98966 3.46889e-10)
(475.618 6.65782 4.31169e-10)
(475.524 7.47023 3.50281e-10)
(475.482 7.9055 4.19945e-10)
(475.358 8.97744 2.81566e-10)
(475.319 9.08951 -1.12541e-10)
(475.165 10.5049 -3.46438e-10)
(475.128 10.2135 -2.96041e-10)
(474.944 12.0363 -3.12817e-10)
(474.904 11.2934 -4.356e-11)
(474.702 13.5397 3.3821e-10)
(474.641 12.3665 2.24847e-10)
(474.446 14.9523 -9.06297e-11)
(474.325 13.5436 -1.6963e-10)
(474.203 16.0957 5.32251e-11)
(473.926 14.9365 1.47893e-10)
(474.426 0.438901 -4.68434e-09)
(474.415 1.19708 1.51384e-09)
(474.407 1.73616 -4.82214e-10)
(474.377 2.63581 1.04297e-10)
(474.36 3.15617 7.67575e-11)
(474.319 4.05559 -4.7863e-10)
(474.284 4.60495 -5.02794e-10)
(474.239 5.43677 -1.31218e-11)
(474.18 6.07994 3.29466e-10)
(474.139 6.76734 4.58603e-10)
(474.049 7.58286 3.58112e-10)
(474.012 8.03827 4.15219e-10)
(473.893 9.11354 3.21301e-10)
(473.86 9.24526 -9.51237e-11)
(473.712 10.6662 -3.41607e-10)
(473.682 10.3917 -2.48905e-10)
(473.505 12.2254 -2.80589e-10)
(473.474 11.4926 -9.0101e-11)
(473.277 13.7602 3.40008e-10)
(473.228 12.5829 2.138e-10)
(473.037 15.2119 -1.31046e-10)
(472.932 13.7576 -1.58503e-10)
(472.808 16.414 5.40262e-11)
(472.554 15.1533 1.25539e-10)
(472.874 0.445235 -4.75384e-09)
(472.864 1.21307 1.52011e-09)
(472.856 1.75991 -4.46271e-10)
(472.828 2.67212 6.39716e-11)
(472.812 3.19871 8.32698e-11)
(472.773 4.11273 -4.33573e-10)
(472.742 4.66663 -5.43218e-10)
(472.7 5.51508 -5.80764e-12)
(472.644 6.16126 3.77004e-10)
(472.607 6.86702 4.21594e-10)
(472.522 7.68452 3.65985e-10)
(472.49 8.15931 4.67738e-10)
(472.377 9.23663 2.88993e-10)
(472.35 9.38736 -8.99017e-11)
(472.208 10.8124 -2.89507e-10)
(472.185 10.5542 -2.80161e-10)
(472.014 12.3972 -2.74738e-10)
(471.992 11.6746 -4.19771e-11)
(471.802 13.9615 3.07834e-10)
(471.764 12.7812 2.20175e-10)
(471.578 15.45 -7.76368e-11)
(471.487 13.9548 -1.88128e-10)
(471.363 16.7093 6.11615e-11)
(471.132 15.3495 1.73189e-10)
(471.27 0.450855 -4.73521e-09)
(471.26 1.22735 1.56402e-09)
(471.254 1.78093 -4.16039e-10)
(471.227 2.7046 9.95305e-11)
(471.213 3.23637 4.46721e-11)
(471.176 4.16391 -4.76817e-10)
(471.148 4.72132 -5.12212e-10)
(471.109 5.5854 2.1806e-11)
(471.057 6.23353 4.05611e-10)
(471.024 6.95679 4.56673e-10)
(470.944 7.77514 3.27086e-10)
(470.917 8.26859 4.24219e-10)
(470.809 9.34669 3.16771e-10)
(470.788 9.51583 -6.54035e-11)
(470.651 10.9435 -2.70499e-10)
(470.637 10.7012 -2.62399e-10)
(470.472 12.5516 -3.24003e-10)
(470.459 11.8389 -8.4391e-11)
(470.275 14.1432 3.23389e-10)
(470.248 12.9605 2.32899e-10)
(470.067 15.6661 -5.74965e-11)
(469.992 14.1353 -1.77116e-10)
(469.867 16.9809 6.91367e-12)
(469.658 15.5246 1.26004e-10)
(469.615 0.455767 -4.81406e-09)
(469.605 1.23993 1.49603e-09)
(469.6 1.79925 -5.02675e-10)
(469.574 2.73325 5.07701e-11)
(469.562 3.26918 4.47053e-11)
(469.527 4.20916 -4.99951e-10)
(469.501 4.76901 -5.60615e-10)
(469.466 5.64772 -4.58011e-11)
(469.418 6.29669 3.20248e-10)
(469.389 7.03657 4.11508e-10)
(469.313 7.85463 3.28417e-10)
(469.291 8.36602 4.06053e-10)
(469.189 9.44363 2.6972e-10)
(469.174 9.63065 -1.31136e-10)
(469.043 11.0594 -3.61872e-10)
(469.036 10.8326 -3.01313e-10)
(468.877 12.6888 -3.18024e-10)
(468.874 11.9856 -1.02767e-10)
(468.696 14.3051 2.83209e-10)
(468.68 13.1205 1.78719e-10)
(468.505 15.8595 -1.49144e-10)
(468.445 14.2985 -2.1403e-10)
(468.319 17.2282 1.42039e-11)
(468.134 15.6782 1.14562e-10)
(467.908 0.459984 -4.76851e-09)
(467.898 1.25083 1.54164e-09)
(467.894 1.81491 -4.91951e-10)
(467.869 2.75813 1.15717e-10)
(467.859 3.29719 8.49322e-11)
(467.826 4.24852 -4.81211e-10)
(467.803 4.80974 -4.94956e-10)
(467.771 5.70204 3.4543e-12)
(467.726 6.35074 3.49434e-10)
(467.702 7.10632 4.88458e-10)
(467.631 7.92289 3.85055e-10)
(467.614 8.4515 4.34504e-10)
(467.517 9.52733 3.46957e-10)
(467.508 9.73174 -7.97146e-11)
(467.383 11.1601 -3.2841e-10)
(467.384 10.9486 -2.89313e-10)
(467.231 12.8087 -3.26117e-10)
(467.236 12.115 -6.47259e-11)
(467.065 14.4473 3.06597e-10)
(467.06 13.2609 1.79344e-10)
(466.891 16.03 -1.00041e-10)
(466.845 14.4432 -1.90268e-10)
(466.721 17.4502 1.45853e-11)
(466.559 15.8102 1.58393e-10)
(466.149 0.463517 -4.78186e-09)
(466.139 1.26008 1.55666e-09)
(466.136 1.82796 -4.87773e-10)
(466.112 2.7793 1.23689e-10)
(466.104 3.32048 9.18875e-11)
(466.073 4.28206 -4.76571e-10)
(466.053 4.84359 -4.89854e-10)
(466.024 5.74844 1.13402e-11)
(465.983 6.39571 3.58158e-10)
(465.962 7.16605 4.28493e-10)
(465.896 7.97991 3.23866e-10)
(465.884 8.52495 4.49826e-10)
(465.792 9.59768 2.91713e-10)
(465.79 9.81896 -1.33911e-10)
(465.671 11.2455 -3.15993e-10)
(465.679 11.049 -2.77262e-10)
(465.533 12.9114 -3.13178e-10)
(465.547 12.2271 -5.15565e-11)
(465.382 14.5702 3.23203e-10)
(465.388 13.3821 1.92499e-10)
(465.225 16.1781 -8.65974e-11)
(465.193 14.5681 -1.78848e-10)
(465.072 17.6452 3.61215e-11)
(464.932 15.9207 1.77994e-10)
(464.338 0.466377 -4.82131e-09)
(464.328 1.26771 1.61078e-09)
(464.325 1.83844 -4.62875e-10)
(464.303 2.79681 6.55038e-11)
(464.296 3.33912 9.18914e-11)
(464.268 4.30989 -4.21162e-10)
(464.25 4.87065 -5.19191e-10)
(464.224 5.78701 -3.74838e-11)
(464.187 6.43171 3.67092e-10)
(464.17 7.21583 4.93458e-10)
(464.109 8.02571 3.74711e-10)
(464.102 8.58636 4.17228e-10)
(464.015 9.65458 3.13876e-10)
(464.019 9.89218 -6.08568e-11)
(463.907 11.3154 -3.3172e-10)
(463.922 11.1336 -3.04636e-10)
(463.782 12.9966 -2.85418e-10)
(463.806 12.3219 -3.81897e-11)
(463.647 14.6737 3.25558e-10)
(463.663 13.4844 1.80451e-10)
(463.506 16.3044 -1.16721e-10)
(463.488 14.6722 -1.60728e-10)
(463.37 17.8119 4.38989e-11)
(463.254 16.0096 1.09799e-10)
(462.474 0.46857 -4.87004e-09)
(462.465 1.27373 1.54762e-09)
(462.463 1.84637 -4.98929e-10)
(462.441 2.8107 5.09054e-11)
(462.437 3.35316 2.99368e-11)
(462.41 4.33205 -5.32597e-10)
(462.395 4.89101 -5.2819e-10)
(462.372 5.81785 5.65265e-11)
(462.339 6.45883 4.18543e-10)
(462.326 7.25578 5.02796e-10)
(462.269 8.06038 4.04797e-10)
(462.267 8.63581 4.67523e-10)
(462.186 9.69804 3.22059e-10)
(462.196 9.95133 -9.57504e-11)
(462.09 11.3695 -3.40492e-10)
(462.113 11.2023 -2.92288e-10)
(461.979 13.064 -3.15715e-10)
(462.012 12.3991 -1.0338e-10)
(461.859 14.7577 2.76037e-10)
(461.887 13.5678 1.61685e-10)
(461.735 16.4092 -1.10573e-10)
(461.731 14.7564 -1.29411e-10)
(461.616 17.9501 1.03602e-10)
(461.522 16.076 1.86515e-10)
(460.558 0.470097 -4.91945e-09)
(460.549 1.27815 1.56292e-09)
(460.547 1.85177 -4.67077e-10)
(460.527 2.82099 4.39396e-11)
(460.524 3.36263 5.03426e-11)
(460.5 4.34859 -4.83462e-10)
(460.488 4.90471 -5.23216e-10)
(460.467 5.84102 2.14317e-11)
(460.437 6.47716 3.35702e-10)
(460.428 7.28598 4.48e-10)
(460.376 8.08403 3.85052e-10)
(460.379 8.6734 4.0635e-10)
(460.304 9.72813 2.86712e-10)
(460.32 9.99649 -1.036e-10)
(460.219 11.4079 -3.20327e-10)
(460.25 11.2549 -2.46068e-10)
(460.123 13.1134 -3.09322e-10)
(460.165 12.4584 -7.01552e-11)
(460.019 14.8217 3.44847e-10)
(460.058 13.6319 1.75033e-10)
(459.912 16.4924 -1.41821e-10)
(459.921 14.8209 -1.8767e-10)
(459.81 18.0609 6.67045e-11)
(459.737 16.1206 1.74385e-10)
(458.589 0.470956 -4.87107e-09)
(458.58 1.28095 1.59436e-09)
(458.579 1.85464 -4.90075e-10)
(458.56 2.82766 5.91725e-11)
(458.559 3.36753 3.64017e-11)
(458.537 4.35949 -4.63578e-10)