/*--------------------------------*- C++ -*----------------------------------*\
  =========                 |
  \\      /  F ield         | OpenFOAM: The Open Source CFD Toolbox
   \\    /   O peration     | Website:  https://openfoam.org
    \\  /    A nd           | Version:  10
     \\/     M anipulation  |
\*---------------------------------------------------------------------------*/
FoamFile
{
    format      ascii;
    class       volScalarField;
    location    "0.11";
    object      Ma;
}
// * * * * * * * * * * * * * * * * * * * * * * * * * * * * * * * * * * * * * //

dimensions      [0 0 0 0 0 0 0];

internalField   nonuniform List<scalar> 
4176
(
1.84022
1.84015
1.83996
1.83972
1.83931
1.83892
1.83829
1.83777
1.83691
1.83628
1.83519
1.83443
1.83314
1.83223
1.83079
1.82966
1.82821
1.82667
1.82537
1.82327
1.82233
1.81942
1.81924
1.81547
1.84017
1.8401
1.8399
1.83965
1.83924
1.83885
1.83821
1.83767
1.83679
1.83613
1.83501
1.83422
1.8329
1.83196
1.83048
1.82933
1.82784
1.82627
1.82493
1.82279
1.82184
1.81881
1.81859
1.81444
1.84002
1.83995
1.83977
1.83952
1.83912
1.83872
1.83811
1.83757
1.83674
1.83608
1.835
1.83423
1.83293
1.83202
1.83056
1.82944
1.82796
1.82644
1.82513
1.82304
1.82215
1.81917
1.81895
1.81467
1.83954
1.83947
1.83929
1.83904
1.83865
1.83825
1.83764
1.83711
1.83626
1.8356
1.83453
1.83376
1.83246
1.83156
1.83009
1.82898
1.82749
1.82594
1.8247
1.82255
1.82169
1.81875
1.81856
1.81447
1.83877
1.8387
1.83851
1.83826
1.83788
1.83748
1.83687
1.83635
1.83552
1.83488
1.83381
1.83306
1.83176
1.83088
1.82941
1.82833
1.82682
1.8253
1.82409
1.82192
1.82107
1.81817
1.81797
1.81402
1.83769
1.83762
1.83744
1.8372
1.83682
1.83643
1.83583
1.83531
1.83448
1.83383
1.83279
1.83204
1.83076
1.82989
1.82843
1.82737
1.82583
1.82439
1.8231
1.821
1.82013
1.81726
1.81702
1.81307
1.83629
1.83622
1.83604
1.8358
1.83542
1.83503
1.83444
1.83392
1.83312
1.83249
1.83145
1.8307
1.82944
1.82857
1.82712
1.82609
1.82455
1.82317
1.82182
1.8198
1.8189
1.81607
1.81581
1.81188
1.83461
1.83454
1.83437
1.83413
1.83376
1.83337
1.8328
1.83228
1.83148
1.83084
1.82983
1.82909
1.82785
1.827
1.82556
1.82455
1.82301
1.82168
1.8203
1.81835
1.81742
1.81464
1.81437
1.81049
1.8326
1.83253
1.83236
1.83212
1.83175
1.83137
1.8308
1.83029
1.82952
1.82889
1.82788
1.82715
1.82592
1.82508
1.82366
1.82267
1.82114
1.81986
1.81846
1.81658
1.81562
1.8129
1.8126
1.80879
1.83032
1.83025
1.83008
1.82984
1.82948
1.82911
1.82855
1.82805
1.82727
1.82665
1.82567
1.82496
1.82375
1.82292
1.82152
1.82055
1.81903
1.81779
1.81638
1.81457
1.81359
1.81093
1.81062
1.80687
1.82771
1.82764
1.82747
1.82723
1.82688
1.82651
1.82595
1.82546
1.82471
1.82411
1.82312
1.82242
1.82123
1.82042
1.81904
1.81809
1.81659
1.81539
1.81397
1.81222
1.81122
1.80864
1.80831
1.80463
1.82482
1.82475
1.82458
1.82436
1.82401
1.82365
1.82311
1.82262
1.82187
1.82128
1.82032
1.81964
1.81847
1.81768
1.81632
1.8154
1.81391
1.81275
1.81133
1.80965
1.80863
1.80612
1.80578
1.80217
1.82161
1.82154
1.82138
1.82115
1.82081
1.82045
1.81991
1.81944
1.81871
1.81814
1.81719
1.81652
1.81536
1.8146
1.81326
1.81236
1.81089
1.80977
1.80835
1.80674
1.80571
1.80328
1.80293
1.7994
1.81812
1.81806
1.8179
1.81768
1.81734
1.817
1.81648
1.81601
1.81529
1.81472
1.8138
1.81315
1.81202
1.81127
1.80996
1.80909
1.80764
1.80656
1.80515
1.8036
1.80257
1.80021
1.79986
1.7964
1.81432
1.81425
1.8141
1.81388
1.81355
1.81321
1.8127
1.81225
1.81155
1.811
1.81009
1.80945
1.80834
1.80761
1.80632
1.80548
1.80406
1.80302
1.80162
1.80013
1.7991
1.79681
1.79647
1.79309
1.81024
1.81018
1.81002
1.80982
1.8095
1.80917
1.80867
1.80822
1.80754
1.807
1.80612
1.80551
1.80442
1.80372
1.80246
1.80164
1.80025
1.79925
1.79786
1.79644
1.7954
1.7932
1.79285
1.78956
1.80585
1.80579
1.80564
1.80543
1.80512
1.80479
1.80431
1.80389
1.80321
1.8027
1.80183
1.80123
1.80017
1.79949
1.79826
1.79747
1.79611
1.79514
1.79378
1.79242
1.79138
1.78926
1.78891
1.78571
1.80119
1.80112
1.80098
1.80078
1.80048
1.80017
1.79969
1.79928
1.79863
1.79813
1.79729
1.79672
1.79569
1.79503
1.79383
1.79307
1.79174
1.79082
1.78948
1.78818
1.78715
1.78511
1.78475
1.78165
1.79621
1.79615
1.79601
1.79582
1.79552
1.79521
1.79476
1.79436
1.79373
1.79325
1.79243
1.79187
1.79087
1.79024
1.78907
1.78835
1.78705
1.78616
1.78485
1.78362
1.78259
1.78064
1.78028
1.77727
1.79097
1.79091
1.79077
1.79059
1.7903
1.79001
1.78957
1.78918
1.78857
1.78811
1.78732
1.7868
1.78582
1.78523
1.78408
1.7834
1.78213
1.78128
1.78
1.77883
1.77782
1.77595
1.77559
1.77267
1.78542
1.78536
1.78522
1.78504
1.78477
1.78449
1.78406
1.7837
1.7831
1.78266
1.78189
1.78139
1.78044
1.77988
1.77877
1.77812
1.77689
1.77609
1.77484
1.77373
1.77272
1.77094
1.77058
1.76776
1.7796
1.77954
1.77941
1.77924
1.77898
1.77871
1.7783
1.77795
1.77738
1.77696
1.77623
1.77575
1.77484
1.77431
1.77323
1.77262
1.77143
1.77067
1.76945
1.7684
1.76742
1.76572
1.76536
1.76264
1.77348
1.77342
1.7733
1.77313
1.77288
1.77262
1.77223
1.7719
1.77135
1.77095
1.77024
1.76979
1.76891
1.76841
1.76737
1.7668
1.76564
1.76493
1.76375
1.76276
1.7618
1.76018
1.75983
1.75721
1.76709
1.76704
1.76692
1.76677
1.76653
1.76629
1.76591
1.76559
1.76507
1.7647
1.76402
1.7636
1.76276
1.76229
1.76129
1.76075
1.75964
1.75897
1.75784
1.75691
1.75596
1.75444
1.7541
1.75158
1.76041
1.76036
1.76025
1.7601
1.75987
1.75964
1.75928
1.759
1.75849
1.75814
1.75748
1.75709
1.75628
1.75585
1.75489
1.75439
1.75332
1.7527
1.75161
1.75074
1.74982
1.74838
1.74805
1.74564
1.75348
1.75343
1.75332
1.75318
1.75297
1.75276
1.75241
1.75214
1.75166
1.75135
1.75072
1.75036
1.74959
1.74919
1.74827
1.74781
1.74678
1.74621
1.74516
1.74435
1.74346
1.74211
1.7418
1.73949
1.74626
1.7462
1.74611
1.74597
1.74577
1.74557
1.74525
1.745
1.74454
1.74424
1.74364
1.74332
1.74258
1.74221
1.74133
1.74092
1.73993
1.73941
1.7384
1.73765
1.7368
1.73553
1.73524
1.73303
1.73878
1.73873
1.73864
1.73852
1.73832
1.73814
1.73783
1.7376
1.73718
1.73691
1.73635
1.73606
1.73535
1.73502
1.73419
1.73381
1.73287
1.73239
1.73144
1.73074
1.72993
1.72875
1.72847
1.72637
1.73103
1.73098
1.73089
1.73078
1.73059
1.73042
1.73014
1.72993
1.72952
1.72928
1.72874
1.72848
1.72781
1.72753
1.72673
1.7264
1.7255
1.72507
1.72416
1.72353
1.72275
1.72166
1.7214
1.7194
1.72303
1.72298
1.7229
1.7228
1.72263
1.72247
1.7222
1.72202
1.72164
1.72143
1.72092
1.7207
1.72006
1.71981
1.71906
1.71877
1.71792
1.71754
1.71668
1.7161
1.71537
1.71437
1.71412
1.71223
1.71476
1.71472
1.71464
1.71454
1.71438
1.71424
1.71399
1.71382
1.71346
1.71328
1.7128
1.71261
1.71201
1.7118
1.71108
1.71084
1.71004
1.70971
1.7089
1.70838
1.70769
1.70677
1.70654
1.70477
1.70625
1.70621
1.70614
1.70605
1.70591
1.70578
1.70555
1.7054
1.70507
1.70492
1.70447
1.70431
1.70375
1.70358
1.7029
1.70271
1.70195
1.70167
1.70091
1.70045
1.6998
1.69897
1.69876
1.6971
1.69748
1.69744
1.69738
1.69729
1.69716
1.69705
1.69683
1.69671
1.6964
1.69626
1.69585
1.69572
1.69519
1.69506
1.69442
1.69427
1.69356
1.69334
1.69262
1.69222
1.69162
1.69086
1.69067
1.68913
1.68848
1.68844
1.68838
1.68831
1.68819
1.68809
1.6879
1.68779
1.68751
1.68741
1.68702
1.68692
1.68643
1.68634
1.68574
1.68564
1.68497
1.6848
1.68413
1.68379
1.68324
1.68256
1.68239
1.68096
1.67923
1.67919
1.67914
1.67907
1.67896
1.67888
1.6787
1.67861
1.67835
1.67826
1.67791
1.67784
1.67738
1.67733
1.67677
1.67671
1.67608
1.67596
1.67534
1.67506
1.67456
1.67396
1.67381
1.6725
1.66975
1.66972
1.66967
1.66961
1.66951
1.66944
1.66929
1.66922
1.66898
1.66893
1.6686
1.66856
1.66814
1.66812
1.6676
1.66759
1.667
1.66693
1.66636
1.66614
1.66569
1.66516
1.66504
1.66384
1.66003
1.66
1.65996
1.6599
1.65982
1.65976
1.65961
1.65956
1.65935
1.65931
1.65901
1.65901
1.65862
1.65863
1.65816
1.65818
1.65764
1.65762
1.65709
1.65693
1.65652
1.65606
1.65599
1.65489
1.6501
1.65006
1.65003
1.64998
1.64991
1.64986
1.64974
1.64971
1.64952
1.64951
1.64924
1.64926
1.6489
1.64896
1.64852
1.64858
1.64808
1.64812
1.64762
1.64753
1.64716
1.64677
1.64674
1.64576
1.63993
1.63989
1.63986
1.63982
1.63976
1.63972
1.63961
1.63959
1.63942
1.63943
1.63919
1.63924
1.63892
1.63901
1.6386
1.63871
1.63825
1.63834
1.63789
1.63785
1.63752
1.63721
1.6372
1.63633
1.62955
1.62952
1.62949
1.62946
1.6294
1.62938
1.62929
1.62929
1.62914
1.62918
1.62896
1.62904
1.62875
1.62887
1.6285
1.62866
1.62824
1.62837
1.62796
1.62798
1.6277
1.62745
1.62748
1.62672
1.61894
1.61891
1.61888
1.61886
1.61881
1.6188
1.61872
1.61873
1.6186
1.61866
1.61847
1.61858
1.61831
1.61847
1.61814
1.61833
1.61795
1.61814
1.61777
1.61785
1.61761
1.61743
1.6175
1.61682
1.60812
1.6081
1.60808
1.60806
1.60802
1.60803
1.60796
1.608
1.60789
1.60797
1.6078
1.60794
1.6077
1.6079
1.60759
1.60783
1.60748
1.60772
1.60739
1.60753
1.60733
1.60723
1.60733
1.60674
1.59709
1.59706
1.59705
1.59703
1.597
1.59702
1.59696
1.59701
1.59692
1.59702
1.59688
1.59704
1.59684
1.59706
1.59679
1.59707
1.59676
1.59705
1.59675
1.59696
1.59678
1.59676
1.59689
1.5964
1.58586
1.58583
1.58582
1.58582
1.5858
1.58583
1.58579
1.58586
1.58579
1.58591
1.58579
1.58598
1.5858
1.58606
1.58582
1.58614
1.58586
1.5862
1.58593
1.5862
1.58606
1.58612
1.58627
1.58588
1.57441
1.57439
1.57438
1.57438
1.57437
1.57441
1.57438
1.57446
1.57441
1.57455
1.57446
1.57467
1.57452
1.57481
1.57461
1.57496
1.57471
1.5751
1.57486
1.5752
1.57508
1.57521
1.57539
1.5751
1.56278
1.56276
1.56276
1.56276
1.56277
1.56281
1.56281
1.5629
1.56287
1.56303
1.56296
1.5632
1.56308
1.5634
1.56323
1.56362
1.5634
1.56384
1.56363
1.56403
1.56393
1.56414
1.56434
1.56414
1.55094
1.55092
1.55092
1.55093
1.55094
1.55099
1.551
1.55111
1.5511
1.55128
1.55123
1.5515
1.5514
1.55176
1.55161
1.55204
1.55185
1.55234
1.55216
1.55261
1.55254
1.55283
1.55303
1.55294
1.53892
1.5389
1.53891
1.53893
1.53895
1.53901
1.53904
1.53916
1.53917
1.53937
1.53935
1.53964
1.53957
1.53995
1.53983
1.54031
1.54015
1.54068
1.54052
1.54105
1.54099
1.54136
1.54156
1.54158
1.5267
1.52668
1.52669
1.52672
1.52674
1.52682
1.52685
1.52699
1.52702
1.52724
1.52724
1.52755
1.52751
1.52792
1.52783
1.52834
1.52821
1.52879
1.52866
1.52924
1.5292
1.52966
1.52985
1.52998
1.51432
1.5143
1.51432
1.51435
1.51439
1.51447
1.51452
1.51468
1.51472
1.51496
1.51498
1.51532
1.5153
1.51574
1.51568
1.51623
1.51612
1.51675
1.51664
1.51729
1.51725
1.51781
1.51799
1.51822
1.50175
1.50173
1.50175
1.50178
1.50183
1.50192
1.50198
1.50215
1.50221
1.50247
1.50251
1.50287
1.50287
1.50335
1.5033
1.5039
1.50381
1.5045
1.50439
1.50512
1.50507
1.50573
1.5059
1.50623
1.48903
1.48901
1.48903
1.48907
1.48913
1.48923
1.48931
1.48949
1.48957
1.48984
1.4899
1.49029
1.49031
1.49082
1.49079
1.49143
1.49135
1.4921
1.492
1.4928
1.49275
1.4935
1.49367
1.49409
1.47613
1.47611
1.47613
1.47618
1.47624
1.47635
1.47644
1.47663
1.47672
1.47701
1.47709
1.4775
1.47754
1.47808
1.47807
1.47875
1.47869
1.47949
1.47939
1.48028
1.48022
1.48104
1.48122
1.48172
1.46309
1.46308
1.4631
1.46315
1.46322
1.46334
1.46344
1.46365
1.46375
1.46406
1.46415
1.46459
1.46464
1.46522
1.46522
1.46595
1.46588
1.46676
1.46664
1.4676
1.46755
1.46844
1.46864
1.46922
1.44989
1.44987
1.4499
1.44995
1.45003
1.45016
1.45026
1.45048
1.4506
1.45093
1.45103
1.45149
1.45155
1.45217
1.45217
1.45295
1.45287
1.45382
1.45371
1.45472
1.45469
1.45563
1.45584
1.4565
1.43657
1.43655
1.43659
1.43664
1.43673
1.43686
1.43698
1.4372
1.43733
1.43768
1.43779
1.43828
1.43834
1.439
1.43899
1.43984
1.43975
1.44075
1.44065
1.44171
1.44169
1.44269
1.44291
1.44364
1.42309
1.42308
1.42311
1.42317
1.42326
1.42339
1.42352
1.42376
1.4239
1.42426
1.42437
1.4249
1.42495
1.42566
1.42564
1.42653
1.42646
1.42748
1.42741
1.4285
1.42851
1.42955
1.42978
1.43058
1.40952
1.4095
1.40954
1.4096
1.4097
1.40983
1.40997
1.41022
1.41036
1.41075
1.41085
1.41141
1.41146
1.4122
1.4122
1.4131
1.41305
1.4141
1.41405
1.41517
1.4152
1.41629
1.41653
1.41739
1.3958
1.39578
1.39583
1.39588
1.39599
1.39612
1.39627
1.39653
1.39666
1.39707
1.39718
1.39776
1.39782
1.39857
1.39859
1.3995
1.39948
1.40055
1.40052
1.40167
1.40171
1.40284
1.40309
1.40402
1.38199
1.38198
1.38203
1.38208
1.3822
1.38233
1.38249
1.38274
1.38289
1.3833
1.38342
1.38401
1.38409
1.38484
1.38488
1.38581
1.3858
1.38689
1.38688
1.38805
1.38811
1.38928
1.38954
1.39052
1.36806
1.36804
1.36809
1.36814
1.36826
1.3684
1.36857
1.36881
1.36899
1.36939
1.36952
1.37011
1.3702
1.37097
1.37102
1.37196
1.37197
1.37307
1.37308
1.37427
1.37435
1.37555
1.37581
1.37686
1.35405
1.35403
1.35408
1.35414
1.35425
1.35439
1.35457
1.3548
1.355
1.35539
1.35555
1.35613
1.35624
1.35701
1.35707
1.35802
1.35805
1.35916
1.35918
1.3604
1.36049
1.36172
1.36199
1.36308
1.33992
1.3399
1.33995
1.34
1.34012
1.34026
1.34044
1.34067
1.34089
1.34126
1.34145
1.34201
1.34214
1.34291
1.34299
1.34394
1.34398
1.3451
1.34514
1.34638
1.34647
1.34774
1.34801
1.34915
1.32572
1.3257
1.32574
1.3258
1.32592
1.32606
1.32624
1.32647
1.3267
1.32706
1.32727
1.32782
1.32798
1.32873
1.32883
1.32978
1.32984
1.33097
1.33102
1.33227
1.33238
1.33367
1.33394
1.33512
1.3114
1.31138
1.31143
1.31148
1.3116
1.31174
1.31193
1.31216
1.31239
1.31274
1.31297
1.31351
1.31369
1.31443
1.31455
1.3155
1.31557
1.31671
1.31677
1.31803
1.31815
1.31946
1.31974
1.32095
1.29702
1.29699
1.29704
1.2971
1.29722
1.29736
1.29755
1.29778
1.29801
1.29836
1.29861
1.29913
1.29933
1.30007
1.3002
1.30116
1.30124
1.30238
1.30245
1.30373
1.30386
1.30518
1.30546
1.30671
1.28252
1.28249
1.28254
1.2826
1.28272
1.28286
1.28305
1.28328
1.28353
1.28387
1.28413
1.28465
1.28486
1.2856
1.28574
1.2867
1.28679
1.28794
1.28802
1.28931
1.28944
1.29079
1.29107
1.29235
1.26795
1.26793
1.26798
1.26803
1.26816
1.2683
1.26849
1.26872
1.26898
1.26932
1.2696
1.27011
1.27034
1.27107
1.27123
1.2722
1.2723
1.27345
1.27354
1.27483
1.27498
1.27633
1.27662
1.27792
1.25327
1.25325
1.2533
1.25336
1.25349
1.25363
1.25383
1.25406
1.25433
1.25467
1.25496
1.25547
1.25572
1.25645
1.25662
1.25759
1.2577
1.25886
1.25896
1.26026
1.26041
1.26178
1.26206
1.26339
1.23853
1.23851
1.23856
1.23862
1.23876
1.23891
1.23911
1.23935
1.23963
1.23997
1.24028
1.24078
1.24106
1.24178
1.24197
1.24294
1.24306
1.24423
1.24434
1.24564
1.2458
1.24718
1.24746
1.2488
1.2237
1.22368
1.22373
1.2238
1.22394
1.22409
1.22431
1.22456
1.22484
1.22519
1.22552
1.22601
1.22632
1.22702
1.22725
1.2282
1.22834
1.22951
1.22963
1.23094
1.2311
1.23248
1.23277
1.23412
1.20884
1.20882
1.20887
1.20894
1.20909
1.20925
1.20947
1.20973
1.21002
1.21038
1.21072
1.21121
1.21154
1.21223
1.21249
1.21343
1.21359
1.21476
1.21488
1.21619
1.21636
1.21774
1.21802
1.21938
1.19393
1.19391
1.19397
1.19404
1.19419
1.19435
1.19458
1.19484
1.19514
1.1955
1.19585
1.19634
1.1967
1.19736
1.19766
1.19857
1.19876
1.19991
1.20004
1.20135
1.20152
1.2029
1.20318
1.20455
1.17906
1.17904
1.17909
1.17916
1.17931
1.17947
1.17969
1.17995
1.18025
1.18061
1.18097
1.18145
1.18182
1.18247
1.18279
1.18367
1.1839
1.18501
1.18517
1.18646
1.18664
1.18801
1.18829
1.18965
1.16421
1.16418
1.16423
1.1643
1.16443
1.16459
1.16481
1.16506
1.16534
1.16569
1.16604
1.16651
1.16688
1.16751
1.16785
1.16869
1.16895
1.17003
1.1702
1.17148
1.17165
1.17302
1.17329
1.17465
1.14944
1.14941
1.14945
1.14951
1.14963
1.14977
1.14997
1.1502
1.15047
1.15079
1.15112
1.15156
1.15192
1.15252
1.15286
1.15367
1.15394
1.15498
1.15518
1.15643
1.1566
1.15796
1.15822
1.15958
1.13471
1.13468
1.13471
1.13476
1.13486
1.13498
1.13515
1.13535
1.13559
1.13588
1.13618
1.13658
1.13692
1.13748
1.1378
1.13856
1.13884
1.13983
1.14004
1.14126
1.14142
1.14278
1.14303
1.14439
1.12003
1.11999
1.12002
1.12005
1.12013
1.12022
1.12037
1.12054
1.12074
1.12099
1.12126
1.12161
1.12191
1.12242
1.12271
1.12342
1.12368
1.12462
1.12481
1.126
1.12616
1.12751
1.12774
1.12911
1.10529
1.10525
1.10526
1.10528
1.10535
1.10542
1.10554
1.10568
1.10585
1.10607
1.10629
1.1066
1.10686
1.10732
1.10757
1.10823
1.10843
1.10933
1.10948
1.11064
1.11075
1.1121
1.1123
1.11369
1.09042
1.09036
1.09038
1.09038
1.09045
1.09049
1.09062
1.09072
1.09089
1.09107
1.09128
1.09155
1.09178
1.0922
1.09238
1.09304
1.09314
1.09406
1.09409
1.09525
1.09527
1.0966
1.09676
1.09811
1.07524
1.07518
1.0752
1.0752
1.07527
1.07532
1.07544
1.07555
1.07572
1.07589
1.07609
1.07635
1.07658
1.07696
1.07713
1.07778
1.07779
1.07874
1.07866
1.07983
1.07976
1.08105
1.08114
1.08241
1.05964
1.05959
1.05961
1.05963
1.0597
1.05978
1.05991
1.06005
1.06023
1.06044
1.06066
1.06094
1.06119
1.06157
1.06178
1.06239
1.06244
1.06335
1.06326
1.06441
1.06428
1.06557
1.06559
1.06678
1.04348
1.04343
1.04346
1.0435
1.0436
1.04371
1.04387
1.04406
1.04429
1.04454
1.04482
1.04515
1.04546
1.04588
1.04617
1.04677
1.04693
1.0478
1.04777
1.04894
1.04878
1.05012
1.05007
1.05129
1.02669
1.02664
1.02669
1.02674
1.02688
1.02702
1.02724
1.02748
1.02777
1.0281
1.02846
1.02887
1.02927
1.02978
1.03018
1.03084
1.03112
1.03204
1.0321
1.03335
1.03321
1.03464
1.03456
1.03586
1.0092
1.00915
1.00922
1.00929
1.00946
1.00964
1.00992
1.01021
1.01059
1.01097
1.01144
1.01193
1.01246
1.01307
1.01361
1.01439
1.01481
1.01589
1.01604
1.01746
1.01738
1.01899
1.0189
1.02039
0.991066
0.991018
0.991098
0.991186
0.991383
0.991602
0.99192
0.992261
0.992702
0.993159
0.993715
0.994297
0.994943
0.995664
0.996357
0.997256
0.997872
0.999105
0.999449
1.00107
1.00115
1.003
1.00298
1.00474
0.972323
0.972282
0.972359
0.972471
0.972676
0.972929
0.973267
0.973658
0.974129
0.97466
0.975259
0.975934
0.976651
0.977479
0.978295
0.979293
0.980141
0.981428
0.982108
0.983831
0.984207
0.986343
0.98649
0.988688
0.953099
0.95306
0.953136
0.953257
0.953469
0.953736
0.954089
0.954502
0.954997
0.955559
0.956194
0.956913
0.957682
0.958569
0.959465
0.960538
0.961532
0.962851
0.963847
0.965555
0.966351
0.968636
0.969087
0.971841
0.933495
0.933458
0.933531
0.933652
0.933864
0.934132
0.934489
0.934904
0.935405
0.935973
0.936619
0.937347
0.938136
0.939037
0.939965
0.941061
0.942111
0.943452
0.944578
0.946255
0.947356
0.949596
0.950376
0.953585
0.913657
0.913618
0.913686
0.913802
0.914009
0.914269
0.914619
0.915023
0.915517
0.916071
0.916709
0.917421
0.918203
0.919084
0.920007
0.921078
0.922127
0.923441
0.924566
0.926216
0.927327
0.92952
0.930348
0.933543
0.893692
0.893648
0.893711
0.893817
0.894015
0.89426
0.894596
0.894979
0.895456
0.895982
0.896599
0.897275
0.898033
0.89887
0.899764
0.900782
0.901798
0.903046
0.904118
0.905709
0.906709
0.908855
0.909553
0.912494
0.873717
0.873668
0.873725
0.87382
0.874005
0.874231
0.87455
0.874906
0.87536
0.87585
0.876439
0.87707
0.877793
0.878575
0.879427
0.880377
0.881345
0.882508
0.883521
0.885013
0.885934
0.887955
0.888594
0.891309
0.853812
0.853756
0.853808
0.853888
0.854062
0.854264
0.854564
0.854888
0.855317
0.855764
0.856323
0.856899
0.857586
0.858302
0.859109
0.859982
0.860896
0.861963
0.862919
0.8643
0.865151
0.867023
0.867622
0.870137
0.834061
0.833997
0.834049
0.834108
0.834275
0.834448
0.834734
0.835018
0.835428
0.835822
0.836359
0.836867
0.837527
0.838162
0.838934
0.839718
0.840582
0.841549
0.842445
0.843718
0.844504
0.84622
0.846786
0.849084
0.814515
0.814446
0.814497
0.814533
0.814696
0.814834
0.815112
0.815348
0.815747
0.816077
0.816601
0.817027
0.817675
0.81821
0.818966
0.819638
0.82047
0.82133
0.822165
0.823325
0.82406
0.825613
0.82615
0.82825
0.795234
0.795161
0.795204
0.79523
0.795375
0.795496
0.795747
0.795956
0.796322
0.796612
0.7971
0.797471
0.798082
0.798541
0.799262
0.799837
0.800632
0.801383
0.802173
0.803211
0.803899
0.80529
0.805803
0.807687
0.776249
0.776175
0.776206
0.776229
0.776347
0.776461
0.776673
0.776871
0.777185
0.777459
0.777885
0.778231
0.778771
0.779192
0.779842
0.780357
0.781089
0.781743
0.782498
0.783394
0.784048
0.78528
0.785771
0.787463
0.757599
0.757523
0.757544
0.757561
0.757659
0.757761
0.757942
0.758121
0.758394
0.758645
0.759016
0.759335
0.759809
0.760195
0.760772
0.761235
0.7619
0.76247
0.763182
0.763934
0.764567
0.765643
0.766114
0.767599
0.739302
0.739226
0.739238
0.739248
0.739329
0.739414
0.739571
0.739727
0.739965
0.740186
0.740513
0.740795
0.741215
0.741556
0.742072
0.742476
0.743079
0.743568
0.744231
0.744852
0.745472
0.746388
0.74684
0.748142
0.721385
0.721308
0.721313
0.721314
0.72138
0.72145
0.721584
0.721717
0.721925
0.722115
0.722402
0.722645
0.723018
0.723312
0.723773
0.724119
0.724663
0.725075
0.725684
0.726196
0.726799
0.727553
0.727991
0.729096
0.703857
0.703781
0.703779
0.703773
0.703825
0.703879
0.703992
0.704101
0.70428
0.704439
0.70469
0.704894
0.705223
0.705469
0.705879
0.706166
0.706657
0.706993
0.707549
0.707962
0.708538
0.709139
0.709565
0.710498
0.686737
0.686659
0.686652
0.686638
0.686677
0.686717
0.68681
0.686897
0.68705
0.687179
0.687396
0.687563
0.687851
0.688051
0.688414
0.688646
0.689084
0.689352
0.689856
0.690179
0.690716
0.691175
0.691595
0.692347
0.670028
0.669951
0.669938
0.669917
0.669944
0.669969
0.670044
0.670109
0.670237
0.670337
0.670523
0.670653
0.670902
0.671058
0.671376
0.671553
0.671943
0.672143
0.672598
0.672837
0.673331
0.673661
0.674072
0.674671
0.653739
0.653663
0.653645
0.653617
0.653634
0.653645
0.653703
0.653748
0.653852
0.653926
0.654081
0.654178
0.65439
0.654504
0.65478
0.654906
0.655249
0.655387
0.655793
0.655954
0.656403
0.656624
0.657023
0.657462
0.637874
0.637798
0.637776
0.637742
0.637748
0.637747
0.637789
0.637814
0.637896
0.637943
0.638071
0.638134
0.638313
0.638385
0.638622
0.638698
0.638998
0.639075
0.639436
0.639522
0.639927
0.64005
0.640438
0.640732
0.622435
0.622359
0.622334
0.622294
0.622291
0.622278
0.622305
0.622312
0.622373
0.622397
0.622497
0.62253
0.622676
0.622712
0.622911
0.622942
0.6232
0.623222
0.62354
0.623556
0.623921
0.623955
0.624322
0.624471
0.607421
0.607347
0.607318
0.607274
0.607262
0.607238
0.60725
0.607241
0.607282
0.607282
0.607358
0.607361
0.607477
0.607476
0.607641
0.607627
0.607847
0.607815
0.608093
0.608044
0.608371
0.608323
0.608663
0.608689
0.592834
0.592761
0.592729
0.59268
0.59266
0.592626
0.592626
0.5926
0.592623
0.592602
0.592654
0.592631
0.592718
0.592684
0.592815
0.592761
0.592944
0.592862
0.593103
0.592991
0.593282
0.593156
0.593468
0.593376
0.57867
0.578599
0.578564
0.578511
0.578484
0.57844
0.578427
0.578387
0.578393
0.578352
0.578382
0.578332
0.578393
0.578327
0.578427
0.578334
0.578483
0.578353
0.578557
0.578387
0.578643
0.578442
0.578726
0.578535
0.564927
0.564857
0.56482
0.564763
0.564729
0.564677
0.564653
0.564599
0.56459
0.56453
0.564539
0.564466
0.564502
0.564407
0.564478
0.564349
0.564466
0.564293
0.564463
0.564238
0.564463
0.564191
0.56445
0.56416
0.551599
0.551532
0.551493
0.551433
0.551393
0.551332
0.551298
0.551231
0.551207
0.55113
0.55112
0.551025
0.551038
0.550915
0.550959
0.550797
0.550884
0.55067
0.550809
0.550533
0.550729
0.550391
0.550631
0.550251
0.538683
0.538618
0.538576
0.538513
0.538468
0.5384
0.538357
0.538279
0.538241
0.538148
0.538121
0.538005
0.537997
0.537849
0.537869
0.537676
0.537736
0.537484
0.537596
0.537272
0.537443
0.537043
0.537266
0.536802
0.526172
0.526108
0.526066
0.526
0.52595
0.525876
0.525823
0.525735
0.525685
0.525577
0.525534
0.5254
0.525372
0.5252
0.525197
0.524976
0.525011
0.524724
0.524811
0.524443
0.524591
0.524136
0.524344
0.523804
0.514059
0.513997
0.513954
0.513886
0.513831
0.513751
0.513691
0.513593
0.513532
0.51341
0.513353
0.513201
0.513156
0.512963
0.51294
0.512692
0.512705
0.512386
0.512449
0.512042
0.512169
0.511662
0.511856
0.511248
0.502337
0.502278
0.502233
0.502164
0.502105
0.50202
0.501952
0.501845
0.501774
0.50164
0.50157
0.501402
0.50134
0.501128
0.501085
0.500814
0.500806
0.500457
0.5005
0.500056
0.500165
0.499611
0.499793
0.499121
0.490999
0.490942
0.490896
0.490825
0.490763
0.490673
0.490599
0.490484
0.490404
0.490259
0.490176
0.489994
0.489917
0.489687
0.489627
0.489334
0.489306
0.488932
0.488955
0.488478
0.48857
0.487973
0.488144
0.487415
0.480037
0.479982
0.479936
0.479864
0.479799
0.479704
0.479624
0.479502
0.479413
0.479258
0.479164
0.478969
0.478878
0.478631
0.478555
0.478242
0.478197
0.477799
0.477803
0.477297
0.477372
0.476736
0.476897
0.476115
0.469441
0.469388
0.469342
0.469269
0.469201
0.469102
0.469018
0.468889
0.468792
0.468628
0.468524
0.468316
0.468213
0.467952
0.467861
0.46753
0.467469
0.467048
0.467036
0.466502
0.466562
0.465891
0.466042
0.465214
0.459206
0.459155
0.459109
0.459035
0.458964
0.458862
0.458773
0.458638
0.458534
0.458361
0.458248
0.458029
0.457914
0.45764
0.457535
0.457188
0.457111
0.456671
0.456642
0.456084
0.456129
0.455427
0.455567
0.454696
0.44932
0.449271
0.449224
0.44915
0.449078
0.448972
0.448879
0.448739
0.448628
0.448448
0.448326
0.448098
0.447972
0.447685
0.447568
0.447207
0.447115
0.446657
0.446614
0.446034
0.446065
0.445333
0.445464
0.444555
0.439777
0.43973
0.439683
0.439608
0.439534
0.439426
0.439329
0.439184
0.439068
0.43888
0.43875
0.438513
0.438378
0.43808
0.437951
0.437576
0.437471
0.436998
0.436939
0.43634
0.436357
0.4356
0.435721
0.434775
0.430567
0.430522
0.430475
0.4304
0.430324
0.430214
0.430114
0.429964
0.429843
0.42965
0.429513
0.429267
0.429123
0.428815
0.428676
0.428289
0.428171
0.427684
0.427612
0.426995
0.426998
0.426219
0.42633
0.425351
0.421681
0.421638
0.421591
0.421516
0.421439
0.421326
0.421223
0.42107
0.420944
0.420745
0.420602
0.420349
0.420197
0.41988
0.419731
0.419333
0.419205
0.418705
0.41862
0.417989
0.417979
0.41718
0.41728
0.416273
0.413113
0.413072
0.413026
0.41295
0.412872
0.412758
0.412652
0.412495
0.412365
0.412161
0.412013
0.411753
0.411595
0.411269
0.411112
0.410704
0.410567
0.410054
0.40996
0.409314
0.409293
0.408478
0.408568
0.407536
0.404848
0.40481
0.404764
0.404688
0.404609
0.404493
0.404385
0.404225
0.404092
0.403883
0.403731
0.403465
0.403301
0.402968
0.402805
0.402387
0.402243
0.40172
0.401618
0.400959
0.400931
0.4001
0.400183
0.399133
0.396888
0.396851
0.396805
0.39673
0.39665
0.396533
0.396423
0.39626
0.396124
0.395911
0.395755
0.395484
0.395315
0.394974
0.394806
0.394379
0.394231
0.393695
0.393589
0.392916
0.392885
0.392038
0.392117
0.391054
0.389212
0.389177
0.389132
0.389056
0.388976
0.388858
0.388747
0.388582
0.388444
0.388227
0.388068
0.387792
0.387619
0.387273
0.3871
0.386666
0.386512
0.385968
0.385858
0.385175
0.385139
0.384281
0.384356
0.383282
0.381823
0.38179
0.381745
0.381669
0.381589
0.38147
0.381357
0.38119
0.38105
0.38083
0.380667
0.380388
0.380211
0.379859
0.379682
0.379242
0.379084
0.378532
0.378417
0.377725
0.377685
0.376817
0.376888
0.375805
0.374705
0.374673
0.374628
0.374553
0.374473
0.374352
0.374239
0.37407
0.373929
0.373706
0.373541
0.373258
0.373078
0.372722
0.372541
0.372097
0.371933
0.371376
0.371256
0.370558
0.370512
0.369637
0.369703
0.368611
0.367854
0.367823
0.367779
0.367704
0.367623
0.367502
0.367389
0.367218
0.367075
0.36685
0.366683
0.366396
0.366214
0.365854
0.36567
0.365221
0.365053
0.364492
0.364366
0.363663
0.363612
0.362731
0.362791
0.361692
0.36126
0.36123
0.361187
0.361112
0.361032
0.36091
0.360796
0.360624
0.360479
0.360253
0.360084
0.359794
0.359609
0.359247
0.359059
0.358607
0.358434
0.35787
0.357739
0.357032
0.356975
0.356089
0.356144
0.355039
0.354916
0.354888
0.354844
0.35477
0.35469
0.354568
0.354453
0.35428
0.354135
0.353906
0.353736
0.353444
0.353257
0.352892
0.352701
0.352246
0.35207
0.351503
0.351367
0.350657
0.350594
0.349705
0.349755
0.348646
0.348815
0.348788
0.348745
0.348671
0.348591
0.348468
0.348353
0.348179
0.348034
0.347803
0.347632
0.347338
0.34715
0.346782
0.346589
0.346131
0.345952
0.345382
0.345242
0.34453
0.344462
0.34357
0.343615
0.342502
0.342949
0.342923
0.342881
0.342807
0.342727
0.342604
0.34249
0.342314
0.342169
0.341936
0.341765
0.341469
0.34128
0.340909
0.340715
0.340255
0.340074
0.339501
0.339358
0.338644
0.338572
0.337678
0.337719
0.336603
0.337311
0.337286
0.337245
0.337171
0.337092
0.336968
0.336854
0.336677
0.336532
0.336298
0.336127
0.335828
0.33564
0.335266
0.335072
0.334608
0.334427
0.333851
0.333707
0.33299
0.332916
0.33202
0.332057
0.330941
0.331895
0.331871
0.33183
0.331757
0.331678
0.331554
0.33144
0.331263
0.331118
0.330882
0.330712
0.330411
0.330224
0.329846
0.329654
0.329187
0.329007
0.328427
0.328283
0.327563
0.327489
0.32659
0.326625
0.325509
0.326694
0.326671
0.32663
0.326557
0.326479
0.326354
0.326242
0.326063
0.32592
0.325681
0.325513
0.325208
0.325024
0.324643
0.324454
0.323981
0.323804
0.32322
0.323079
0.322354
0.322283
0.32138
0.321414
0.3203
0.321701
0.321678
0.321639
0.321565
0.321488
0.321363
0.321252
0.321071
0.32093
0.320689
0.320524
0.320215
0.320035
0.319648
0.319464
0.318985
0.318814
0.318223
0.318089
0.317357
0.317292
0.316384
0.316419
0.315308
0.316911
0.316889
0.316849
0.316776
0.3167
0.316574
0.316464
0.316282
0.316143
0.315899
0.315738
0.315425
0.315249
0.314857
0.314679
0.314193
0.31403
0.31343
0.313305
0.312564
0.312507
0.311595
0.311632
0.310525
0.312316
0.312294
0.312256
0.312182
0.312107
0.31198
0.311873
0.311688
0.311553
0.311306
0.311148
0.310831
0.31066
0.310262
0.310091
0.309598
0.309443
0.308836
0.308719
0.307971
0.307921
0.307007
0.307044
0.305944
0.307912
0.307891
0.307853
0.307779
0.307706
0.307578
0.307472
0.307286
0.307153
0.306903
0.306749
0.306429
0.306263
0.30586
0.305696
0.305196
0.305049
0.304433
0.304326
0.303571
0.303527
0.302613
0.30265
0.301554
0.303693
0.303672
0.303635
0.303561
0.303488
0.303359
0.303256
0.303068
0.302938
0.302686
0.302535
0.302211
0.30205
0.301643
0.301484
0.300979
0.30084
0.300217
0.300119
0.299358
0.299318
0.298404
0.29844
0.297349
0.299653
0.299633
0.299596
0.299522
0.299451
0.299321
0.299219
0.29903
0.298903
0.298648
0.298502
0.298174
0.298019
0.297606
0.297454
0.296943
0.296812
0.296183
0.296093
0.295327
0.295291
0.294377
0.294412
0.293326
0.295787
0.295767
0.295731
0.295656
0.295587
0.295455
0.295357
0.295164
0.295042
0.294783
0.294644
0.294309
0.294163
0.293741
0.293601
0.293079
0.292961
0.292322
0.29224
0.291472
0.291438
0.290527
0.29056
0.289481
0.292091
0.292071
0.292036
0.29196
0.291894
0.29176
0.291666
0.291469
0.291353
0.291087
0.290957
0.290613
0.290479
0.290046
0.28992
0.289386
0.28928
0.288633
0.288558
0.287788
0.287757
0.286849
0.28688
0.285809
0.288559
0.288539
0.288505
0.288428
0.288364
0.288227
0.288138
0.287936
0.287828
0.287553
0.287435
0.28708
0.286959
0.286515
0.286402
0.285859
0.285762
0.285111
0.28504
0.284271
0.28424
0.283336
0.283365
0.282301
0.285188
0.285168
0.285136
0.285057
0.284996
0.284855
0.284773
0.284563
0.284465
0.284181
0.284074
0.28371
0.2836
0.283147
0.283042
0.282495
0.282403
0.281751
0.281683
0.280915
0.280885
0.279985
0.280012
0.278957
0.281972
0.281951
0.281921