/*--------------------------------*- C++ -*----------------------------------*\
  =========                 |
  \\      /  F ield         | OpenFOAM: The Open Source CFD Toolbox
   \\    /   O peration     | Website:  https://openfoam.org
    \\  /    A nd           | Version:  10
     \\/     M anipulation  |
\*---------------------------------------------------------------------------*/
FoamFile
{
    format      ascii;
    class       volScalarField;
    location    "0.11";
    object      p;
}
// * * * * * * * * * * * * * * * * * * * * * * * * * * * * * * * * * * * * * //

dimensions      [1 -1 -2 0 0 0 0];

internalField   nonuniform List<scalar> 
4176
(
1608.87
1609.07
1609.58
1610.21
1611.28
1612.3
1613.93
1615.33
1617.51
1619.3
1621.99
1624.21
1627.32
1630.09
1633.46
1636.96
1640.25
1644.88
1647.84
1653.83
1656.17
1663.79
1664.97
1673.7
1608.72
1608.91
1609.37
1609.98
1610.94
1611.94
1613.41
1614.78
1616.77
1618.51
1620.99
1623.12
1626.03
1628.63
1631.83
1635.07
1638.21
1642.49
1645.31
1650.87
1652.97
1660.43
1661.67
1671.44
1609.92
1610.11
1610.58
1611.2
1612.18
1613.2
1614.7
1616.09
1618.12
1619.88
1622.42
1624.59
1627.58
1630.21
1633.51
1636.78
1640.04
1644.42
1647.22
1652.94
1655.01
1662.36
1663.5
1672.96
1611.54
1611.73
1612.19
1612.8
1613.76
1614.76
1616.23
1617.59
1619.59
1621.3
1623.81
1625.89
1628.86
1631.39
1634.69
1637.86
1641.11
1645.52
1648.04
1653.92
1655.86
1663.1
1664.16
1673.02
1614.07
1614.26
1614.72
1615.33
1616.28
1617.28
1618.74
1620.11
1622.08
1623.81
1626.29
1628.39
1631.34
1633.87
1637.17
1640.29
1643.66
1647.89
1650.58
1656.37
1658.38
1665.57
1666.72
1675.56
1617.29
1617.48
1617.93
1618.54
1619.48
1620.47
1621.9
1623.26
1625.21
1626.93
1629.37
1631.45
1634.36
1636.87
1640.14
1643.19
1646.61
1650.63
1653.55
1659.09
1661.17
1668.28
1669.5
1678.43
1621.31
1621.5
1621.94
1622.55
1623.47
1624.46
1625.88
1627.23
1629.15
1630.86
1633.28
1635.35
1638.23
1640.71
1643.97
1646.97
1650.41
1654.3
1657.31
1662.7
1664.86
1671.87
1673.12
1681.95
1626.07
1626.26
1626.7
1627.3
1628.22
1629.19
1630.6
1631.94
1633.83
1635.52
1637.91
1639.96
1642.81
1645.25
1648.49
1651.44
1654.88
1658.64
1661.74
1666.95
1669.19
1676.09
1677.38
1686.11
1631.61
1631.8
1632.23
1632.83
1633.73
1634.7
1636.09
1637.41
1639.29
1640.96
1643.32
1645.34
1648.17
1650.57
1653.79
1656.68
1660.12
1663.76
1666.93
1671.96
1674.28
1681.05
1682.38
1690.98
1637.92
1638.1
1638.53
1639.12
1640.02
1640.98
1642.34
1643.65
1645.51
1647.15
1649.49
1651.48
1654.27
1656.64
1659.83
1662.66
1666.09
1669.62
1672.84
1677.7
1680.11
1686.69
1688.07
1696.54
1645
1645.19
1645.61
1646.19
1647.08
1648.03
1649.38
1650.67
1652.5
1654.12
1656.43
1658.39
1661.15
1663.47
1666.63
1669.4
1672.82
1676.24
1679.5
1684.2
1686.66
1693.08
1694.5
1702.83
1652.87
1653.05
1653.47
1654.05
1654.92
1655.85
1657.19
1658.46
1660.26
1661.87
1664.14
1666.06
1668.79
1671.07
1674.2
1676.9
1680.29
1683.62
1686.9
1691.44
1693.95
1700.2
1701.64
1709.82
1661.53
1661.71
1662.13
1662.69
1663.55
1664.47
1665.78
1667.04
1668.81
1670.39
1672.63
1674.52
1677.21
1679.44
1682.53
1685.17
1688.53
1691.76
1695.07
1699.44
1702
1708.07
1709.52
1717.55
1670.99
1671.17
1671.58
1672.13
1672.98
1673.88
1675.17
1676.41
1678.15
1679.7
1681.91
1683.76
1686.41
1688.59
1691.64
1694.21
1697.54
1700.68
1703.99
1708.2
1710.79
1716.68
1718.14
1726
1681.26
1681.43
1681.84
1682.39
1683.21
1684.1
1685.37
1686.58
1688.3
1689.81
1691.98
1693.79
1696.41
1698.53
1701.54
1704.04
1707.33
1710.36
1713.68
1717.72
1720.35
1726.06
1727.52
1735.21
1692.34
1692.52
1692.91
1693.45
1694.27
1695.14
1696.38
1697.56
1699.25
1700.73
1702.86
1704.63
1707.19
1709.26
1712.23
1714.65
1717.91
1720.84
1724.14
1728.01
1730.68
1736.18
1737.67
1745.17
1704.26
1704.43
1704.82
1705.35
1706.15
1707
1708.21
1709.37
1711.02
1712.46
1714.55
1716.27
1718.79
1720.8
1723.71
1726.07
1729.28
1732.11
1735.38
1739.09
1741.78
1747.09
1748.6
1755.9
1717.02
1717.19
1717.57
1718.09
1718.87
1719.7
1720.88
1722.01
1723.62
1725.02
1727.06
1728.73
1731.2
1733.15
1736.01
1738.28
1741.44
1744.17
1747.41
1750.96
1753.67
1758.77
1760.31
1767.4
1730.63
1730.8
1731.17
1731.68
1732.44
1733.24
1734.4
1735.5
1737.07
1738.43
1740.42
1742.04
1744.45
1746.33
1749.13
1751.32
1754.43
1757.05
1760.25
1763.64
1766.36
1771.25
1772.82
1779.68
1745.11
1745.28
1745.64
1746.13
1746.87
1747.65
1748.78
1749.84
1751.37
1752.68
1754.62
1756.18
1758.53
1760.35
1763.08
1765.19
1768.23
1770.74
1773.91
1777.12
1779.86
1784.54
1786.12
1792.77
1760.47
1760.64
1760.99
1761.47
1762.18
1762.94
1764.03
1765.05
1766.54
1767.8
1769.69
1771.19
1773.48
1775.22
1777.88
1779.9
1782.87
1785.27
1788.38
1791.44
1794.17
1798.63
1800.24
1806.65
1776.73
1776.9
1777.23
1777.69
1778.38
1779.11
1780.17
1781.15
1782.59
1783.8
1785.63
1787.07
1789.29
1790.95
1793.55
1795.47
1798.37
1800.65
1803.7
1806.6
1809.32
1813.56
1815.18
1821.36
1793.9
1794.06
1794.38
1794.83
1795.49
1796.19
1797.21
1798.15
1799.54
1800.7
1802.47
1803.83
1805.99
1807.57
1810.09
1811.91
1814.73
1816.9
1819.87
1822.61
1825.32
1829.32
1830.96
1836.89
1811.99
1812.14
1812.46
1812.88
1813.52
1814.19
1815.17
1816.06
1817.4
1818.5
1820.2
1821.5
1823.58
1825.08
1827.52
1829.24
1831.98
1834.02
1836.92
1839.5
1842.18
1845.95
1847.58
1853.26
1831.01
1831.17
1831.46
1831.87
1832.48
1833.12
1834.05
1834.9
1836.18
1837.22
1838.86
1840.08
1842.09
1843.49
1845.85
1847.47
1850.13
1852.04
1854.86
1857.27
1859.92
1863.45
1865.07
1870.49
1850.98
1851.13
1851.42
1851.81
1852.39
1852.99
1853.89
1854.68
1855.91
1856.88
1858.45
1859.6
1861.53
1862.84
1865.11
1866.62
1869.19
1870.97
1873.71
1875.95
1878.55
1881.85
1883.45
1888.6
1871.92
1872.07
1872.34
1872.71
1873.26
1873.83
1874.68
1875.42
1876.59
1877.5
1879
1880.06
1881.91
1883.12
1885.31
1886.7
1889.18
1890.83
1893.47
1895.56
1898.09
1901.15
1902.75
1907.63
1893.83
1893.98
1894.24
1894.59
1895.11
1895.64
1896.44
1897.14
1898.25
1899.09
1900.51
1901.49
1903.25
1904.37
1906.46
1907.74
1910.11
1911.63
1914.18
1916.1
1918.56
1921.37
1922.96
1927.56
1916.74
1916.88
1917.13
1917.46
1917.95
1918.44
1919.2
1919.85
1920.89
1921.66
1923.02
1923.91
1925.58
1926.59
1928.59
1929.74
1932.02
1933.39
1935.85
1937.59
1939.98
1942.54
1944.12
1948.41
1940.66
1940.8
1941.03
1941.33
1941.8
1942.25
1942.97
1943.56
1944.54
1945.24
1946.52
1947.32
1948.91
1949.81
1951.71
1952.73
1954.91
1956.13
1958.49
1960.06
1962.37
1964.67
1966.24
1970.23
1965.6
1965.74
1965.95
1966.24
1966.67
1967.09
1967.75
1968.29
1969.21
1969.84
1971.04
1971.75
1973.25
1974.05
1975.84
1976.74
1978.81
1979.88
1982.13
1983.52
1985.74
1987.8
1989.34
1993.02
1991.59
1991.72
1991.92
1992.18
1992.58
1992.96
1993.58
1994.06
1994.91
1995.47
1996.6
1997.22
1998.63
1999.31
2001.01
2001.78
2003.73
2004.65
2006.78
2008
2010.12
2011.94
2013.45
2016.8
2018.63
2018.76
2018.94
2019.19
2019.55
2019.9
2020.46
2020.89
2021.68
2022.17
2023.21
2023.74
2025.06
2025.63
2027.23
2027.86
2029.71
2030.47
2032.49
2033.51
2035.52
2037.11
2038.6
2041.61
2046.75
2046.87
2047.04
2047.27
2047.6
2047.9
2048.42
2048.79
2049.51
2049.93
2050.89
2051.33
2052.56
2053.02
2054.52
2055.02
2056.76
2057.35
2059.26
2060.09
2061.99
2063.33
2064.79
2067.45
2075.96
2076.08
2076.24
2076.44
2076.74
2077
2077.47
2077.78
2078.44
2078.78
2079.67
2080.02
2081.15
2081.5
2082.89
2083.26
2084.89
2085.32
2087.11
2087.75
2089.54
2090.64
2092.04
2094.36
2106.28
2106.4
2106.54
2106.72
2106.99
2107.22
2107.64
2107.89
2108.49
2108.75
2109.56
2109.81
2110.85
2111.08
2112.37
2112.6
2114.12
2114.4
2116.08
2116.52
2118.19
2119.05
2120.38
2122.35
2137.74
2137.85
2137.97
2138.13
2138.37
2138.56
2138.93
2139.13
2139.66
2139.85
2140.58
2140.74
2141.68
2141.8
2142.99
2143.07
2144.48
2144.59
2146.16
2146.41
2147.97
2148.59
2149.83
2151.44
2170.34
2170.45
2170.56
2170.7
2170.9
2171.06
2171.38
2171.53
2171.99
2172.11
2172.75
2172.82
2173.67
2173.67
2174.75
2174.69
2175.99
2175.92
2177.38
2177.43
2178.89
2179.27
2180.42
2181.67
2204.11
2204.22
2204.31
2204.44
2204.61
2204.73
2205
2205.09
2205.49
2205.54
2206.1
2206.07
2206.83
2206.71
2207.68
2207.48
2208.67
2208.43
2209.77
2209.61
2210.96
2211.11
2212.17
2213.06
2239.08
2239.18
2239.26
2239.37
2239.51
2239.59
2239.81
2239.85
2240.19
2240.16
2240.64
2240.51
2241.18
2240.94
2241.81
2241.46
2242.53
2242.11
2243.34
2242.97
2244.21
2244.11
2245.09
2245.65
2275.26
2275.36
2275.43
2275.51
2275.62
2275.67
2275.84
2275.82
2276.1
2275.99
2276.4
2276.17
2276.75
2276.39
2277.16
2276.66
2277.62
2277.02
2278.13
2277.54
2278.67
2278.3
2279.18
2279.46
2312.69
2312.79
2312.84
2312.9
2312.98
2312.98
2313.11
2313.03
2313.24
2313.06
2313.38
2313.07
2313.55
2313.07
2313.73
2313.08
2313.94
2313.15
2314.16
2313.33
2314.36
2313.72
2314.5
2314.45
2351.38
2351.47
2351.51
2351.55
2351.59
2351.56
2351.64
2351.51
2351.64
2351.39
2351.63
2351.22
2351.6
2351
2351.56
2350.76
2351.52
2350.54
2351.45
2350.39
2351.32
2350.39
2351.09
2350.67
2391.35
2391.44
2391.47
2391.48
2391.49
2391.42
2391.45
2391.26
2391.33
2391
2391.15
2390.64
2390.93
2390.21
2390.67
2389.71
2390.36
2389.19
2390.01
2388.71
2389.56
2388.33
2388.97
2388.18
2432.63
2432.72
2432.73
2432.73
2432.7
2432.59
2432.56
2432.32
2432.32
2431.91
2431.98
2431.37
2431.56
2430.71
2431.06
2429.96
2430.5
2429.14
2429.86
2428.32
2429.09
2427.57
2428.15
2427
2475.25
2475.33
2475.33
2475.3
2475.24
2475.09
2475.01
2474.7
2474.63
2474.14
2474.13
2473.41
2473.5
2472.53
2472.78
2471.51
2471.95
2470.39
2471.01
2469.22
2469.94
2468.09
2468.64
2467.1
2519.21
2519.29
2519.27
2519.22
2519.13
2518.94
2518.8
2518.43
2518.29
2517.72
2517.62
2516.8
2516.79
2515.69
2515.83
2514.4
2514.74
2512.97
2513.5
2511.46
2512.11
2509.94
2510.5
2508.51
2564.54
2564.62
2564.58
2564.51
2564.38
2564.15
2563.95
2563.53
2563.31
2562.66
2562.47
2561.55
2561.44
2560.2
2560.24
2558.65
2558.88
2556.9
2557.35
2555.03
2555.63
2553.1
2553.7
2551.28
2611.25
2611.33
2611.27
2611.18
2611.01
2610.74
2610.49
2610
2609.72
2608.98
2608.7
2607.67
2607.47
2606.1
2606.03
2604.26
2604.4
2602.21
2602.58
2599.97
2600.53
2597.63
2598.26
2595.41
2659.36
2659.44
2659.37
2659.25
2659.04
2658.73
2658.42
2657.88
2657.52
2656.69
2656.33
2655.19
2654.89
2653.38
2653.22
2651.27
2651.32
2648.89
2649.21
2646.29
2646.86
2643.54
2644.19
2640.93
2708.88
2708.95
2708.87
2708.73
2708.49
2708.13
2707.77
2707.16
2706.73
2705.82
2705.38
2704.12
2703.73
2702.08
2701.82
2699.69
2699.66
2696.98
2697.25
2694
2694.64
2690.87
2691.53
2687.87
2759.82
2759.89
2759.79
2759.63
2759.35
2758.95
2758.54
2757.87
2757.36
2756.37
2755.84
2754.48
2754
2752.19
2751.86
2749.52
2749.44
2746.49
2746.75
2743.14
2743.79
2739.67
2740.29
2736.24
2812.18
2812.25
2812.13
2811.95
2811.64
2811.21
2810.73
2810
2809.43
2808.35
2807.75
2806.26
2805.71
2803.74
2803.34
2800.79
2800.68
2797.43
2797.73
2793.73
2794.37
2789.92
2790.5
2786.07
2865.97
2866.04
2865.91
2865.71
2865.36
2864.89
2864.36
2863.57
2862.94
2861.77
2861.1
2859.49
2858.88
2856.72
2856.3
2853.49
2853.39
2849.8
2850.14
2845.82
2846.4
2841.65
2842.17
2837.38
2921.2
2921.26
2921.12
2920.9
2920.51
2920.01
2919.43
2918.59
2917.89
2916.63
2915.91
2914.15
2913.52
2911.14
2910.74
2907.64
2907.59
2903.68
2903.98
2899.42
2899.9
2894.87
2895.33
2890.17
2977.85
2977.91
2977.75
2977.52
2977.1
2976.57
2975.94
2975.04
2974.29
2972.93
2972.19
2970.25
2969.64
2967.01
2966.67
2963.26
2963.21
2959.09
2959.29
2954.51
2954.9
2949.6
2949.99
2944.48
3035.92
3036
3035.82
3035.58
3035.12
3034.56
3033.88
3032.92
3032.15
3030.66
3029.94
3027.79
3027.23
3024.38
3024
3020.44
3020.29
3016
3016.09
3011.11
3011.4
3005.83
3006.17
3000.3
3095.42
3095.51
3095.29
3095.07
3094.56
3094
3093.26
3092.23
3091.48
3089.84
3089.13
3086.84
3086.22
3083.26
3082.79
3079.11
3078.85
3074.41
3074.39
3069.21
3069.42
3063.59
3063.87
3057.66
3156.35
3156.43
3156.2
3155.98
3155.42
3154.87
3154.07
3153.02
3152.2
3150.51
3149.73
3147.37
3146.68
3143.63
3143.06
3139.27
3138.9
3134.32
3134.2
3128.84
3128.95
3122.89
3123.1
3116.57
3218.69
3218.78
3218.54
3218.3
3217.73
3217.14
3216.29
3215.27
3214.34
3212.63
3211.79
3209.36
3208.59
3205.46
3204.81
3200.91
3200.45
3195.74
3195.52
3189.98
3190
3183.71
3183.86
3177.01
3282.44
3282.54
3282.3
3282.04
3281.46
3280.86
3279.96
3278.96
3277.89
3276.24
3275.27
3272.82
3271.97
3268.77
3268.03
3264.04
3263.49
3258.66
3258.34
3252.64
3252.58
3246.06
3246.16
3239.01
3347.61
3347.71
3347.47
3347.2
3346.61
3345.99
3345.07
3344.05
3342.89
3341.29
3340.16
3337.76
3336.8
3333.54
3332.72
3328.66
3328.01
3323.06
3322.66
3316.81
3316.66
3309.94
3309.98
3302.54
3414.21
3414.3
3414.07
3413.79
3413.19
3412.56
3411.6
3410.58
3409.35
3407.78
3406.53
3404.16
3403.07
3399.78
3398.89
3394.74
3394.02
3388.96
3388.48
3382.47
3382.25
3375.33
3375.32
3367.61
3482.22
3482.33
3482.09
3481.81
3481.19
3480.55
3479.58
3478.54
3477.26
3475.7
3474.34
3472
3470.78
3467.5
3466.5
3462.28
3461.48
3456.32
3455.76
3449.62
3449.32
3442.22
3442.16
3434.19
3551.68
3551.79
3551.55
3551.27
3550.64
3549.99
3548.99
3547.94
3546.61
3545.05
3543.61
3541.27
3539.95
3536.66
3535.56
3531.28
3530.4
3525.14
3524.5
3518.23
3517.86
3510.59
3510.47
3502.27
3622.6
3622.71
3622.46
3622.18
3621.54
3620.88
3619.85
3618.79
3617.41
3615.85
3614.32
3611.98
3610.56
3607.24
3606.05
3601.7
3600.75
3595.39
3594.68
3588.29
3587.85
3580.42
3580.25
3571.82
3694.99
3695.11
3694.85
3694.57
3693.9
3693.23
3692.17
3691.08
3689.65
3688.09
3686.46
3684.11
3682.6
3679.23
3677.97
3673.54
3672.53
3667.05
3666.28
3659.77
3659.25
3651.68
3651.46
3642.83
3768.85
3768.98
3768.71
3768.42
3767.73
3767.04
3765.93
3764.82
3763.33
3761.74
3760.01
3757.66
3756.03
3752.63
3751.29
3746.76
3745.69
3740.12
3739.27
3732.65
3732.06
3724.35
3724.07
3715.27
3844.2
3844.33
3844.04
3843.74
3843.01
3842.3
3841.14
3839.99
3838.43
3836.8
3834.96
3832.61
3830.84
3827.42
3825.97
3821.36
3820.24
3814.55
3813.63
3806.91
3806.25
3798.42
3798.09
3789.12
3920.98
3921.12
3920.81
3920.49
3919.73
3918.97
3917.76
3916.55
3914.92
3913.24
3911.28
3908.93
3906.98
3903.58
3901.98
3897.33
3896.13
3890.34
3889.35
3882.53
3881.8
3873.87
3873.49
3864.37
3999.14
3999.28
3998.96
3998.6
3997.81
3996.99
3995.73
3994.46
3992.76
3991.01
3988.94
3986.58
3984.46
3981.1
3979.3
3974.67
3973.33
3967.48
3966.43
3959.53
3958.73
3950.71
3950.28
3941.04
4078.53
4078.67
4078.34
4077.96
4077.14
4076.27
4074.97
4073.64
4071.87
4070.06
4067.91
4065.52
4063.23
4059.93
4057.9
4053.36
4051.82
4045.98
4044.86
4037.89
4037.02
4028.93
4028.46
4019.12
4158.99
4159.13
4158.8
4158.4
4157.57
4156.68
4155.36
4153.99
4152.19
4150.34
4148.12
4145.72
4143.3
4140.05
4137.82
4133.39
4131.64
4125.86
4124.63
4117.63
4116.71
4108.57
4108.07
4098.64
4240.3
4240.44
4240.13
4239.74
4238.93
4238.05
4236.74
4235.38
4233.59
4231.74
4229.51
4227.13
4224.64
4221.45
4219.06
4214.76
4212.8
4207.14
4205.75
4198.8
4197.82
4189.65
4189.13
4179.65
4322.29
4322.44
4322.17
4321.81
4321.06
4320.23
4318.98
4317.69
4315.96
4314.18
4312
4309.69
4307.2
4304.12
4301.64
4297.49
4295.36
4289.85
4288.31
4281.4
4280.4
4272.21
4271.7
4262.17
4404.84
4405.02
4404.8
4404.5
4403.83
4403.11
4401.97
4400.8
4399.2
4397.56
4395.51
4393.33
4390.94
4388.01
4385.55
4381.58
4379.36
4374.04
4372.38
4365.52
4364.53
4356.29
4355.8
4346.24
4488.03
4488.24
4488.07
4487.86
4487.3
4486.7
4485.72
4484.71
4483.29
4481.84
4479.97
4478.01
4475.79
4473.07
4470.74
4467
4464.81
4459.73
4458.01
4451.29
4450.26
4441.97
4441.5
4431.87
4572.12
4572.36
4572.24
4572.13
4571.66
4571.21
4570.37
4569.54
4568.31
4567.08
4565.42
4563.72
4561.71
4559.25
4557.15
4553.66
4551.64
4546.82
4545.2
4538.64
4537.7
4529.35
4528.91
4519.13
4657.62
4657.9
4657.8
4657.78
4657.37
4657.04
4656.29
4655.64
4654.52
4653.51
4652.02
4650.55
4648.74
4646.54
4644.74
4641.42
4639.8
4635.06
4633.88
4627.38
4626.8
4618.47
4618.15
4608.23
4745.26
4745.62
4745.45
4745.55
4745.04
4744.89
4744.01
4743.58
4742.36
4741.58
4740.08
4738.81
4737.1
4735.06
4733.63
4730.12
4729.34
4724.14
4723.91
4717.16
4717.23
4709.04
4709.05
4699.51
4835.96
4836.29
4836.18
4836.14
4835.71
4835.35
4834.56
4833.89
4832.76
4831.78
4830.31
4828.97
4827.21
4825.34
4823.74
4820.42
4819.75
4814.63
4814.66
4808.01
4808.47
4800.42
4800.89
4791.99
4930.59
4930.89
4930.75
4930.6
4930.05
4929.51
4928.56
4927.66
4926.32
4925.07
4923.37
4921.78
4919.78
4917.78
4915.74
4912.72
4911.43
4906.61
4906.51
4899.81
4900.51
4892.29
4893.14
4884.31
5029.89
5030.16
5029.93
5029.66
5028.92
5028.15
5026.91
5025.68
5023.97
5022.32
5020.18
5018.15
5015.67
5013.23
5010.62
5007.36
5005.39
5000.57
4999.92
4992.94
4993.7
4984.99
4986.1
4976.89
5134.3
5134.6
5134.23
5133.85
5132.87
5131.86
5130.25
5128.67
5126.47
5124.35
5121.6
5119
5115.81
5112.72
5109.31
5105.41
5102.62
5097.14
5095.88
5088.08
5088.65
5079.09
5080.32
5070.28
5243.98
5244.32
5243.79
5243.35
5242.1
5240.9
5238.9
5237.05
5234.23
5231.81
5228.23
5225.2
5221.04
5217.27
5212.91
5208.06
5204.41
5197.52
5195.59
5186.43
5186.36
5175.47
5176.53
5165.14
5358.73
5359.03
5358.52
5357.86
5356.57
5355.05
5352.91
5350.6
5347.6
5344.5
5340.66
5336.79
5332.16
5327.51
5322.22
5316.69
5311.37
5303.82
5300.25
5289.76
5288.34
5275.59
5275.95
5262.39
5478.01
5478.28
5477.77
5477.02
5475.65
5473.99
5471.7
5469.16
5465.93
5462.51
5458.34
5454.03
5448.93
5443.7
5437.73
5431.48
5424.89
5417.14
5410.92
5400.32
5396.43
5381.81
5380.65
5363.82
5601.09
5601.34
5600.85
5600.06
5598.66
5596.94
5594.58
5591.94
5588.6
5585.03
5580.69
5576.17
5570.83
5565.3
5558.97
5552.31
5545.11
5536.95
5529.34
5518.85
5511.99
5497.21
5493.52
5472.8
5727.13
5727.39
5726.91
5726.14
5724.75
5723.04
5720.68
5718.05
5714.71
5711.14
5706.79
5702.25
5696.87
5691.3
5684.9
5678.18
5670.85
5662.61
5654.68
5644.27
5636.38
5622.19
5616.57
5594.03
5855.25
5855.54
5855.09
5854.36
5853.02
5851.37
5849.08
5846.53
5843.27
5839.8
5835.55
5831.14
5825.87
5820.46
5814.19
5807.67
5800.48
5792.47
5784.85
5774.51
5767.44
5753.11
5748.61
5727.95
5984.64
5984.95
5984.54
5983.88
5982.6
5981.06
5978.87
5976.46
5973.32
5970.04
5965.95
5961.77
5956.71
5951.57
5945.55
5939.36
5932.47
5924.88
5917.65
5907.78
5901.29
5887.54
5883.46
5864.23
6114.5
6114.86
6114.49
6113.91
6112.71
6111.29
6109.22
6106.99
6104.02
6100.97
6097.08
6093.18
6088.37
6083.58
6077.87
6072.08
6065.56
6058.49
6051.66
6042.43
6036.38
6023.51
6019.69
6001.78
6244.18
6244.59
6244.24
6243.77
6242.64
6241.38
6239.43
6237.41
6234.6
6231.83
6228.14
6224.6
6220.03
6215.66
6210.26
6204.94
6198.81
6192.3
6185.89
6177.29
6171.75
6159.79
6156.19
6139.6
6373.1
6373.56
6373.2
6372.89
6371.77
6370.74
6368.85
6367.13
6364.41
6362.03
6358.44
6355.39
6350.95
6347.15
6341.95
6337.22
6331.42
6325.52
6319.55
6311.62
6306.47
6295.51
6292.12
6276.87
6500.75
6501.24
6500.89
6500.71
6499.64
6498.83
6496.99
6495.59
6492.93
6490.98
6487.46
6484.96
6480.58
6477.45
6472.32
6468.37
6462.74
6457.52
6452
6444.73
6439.97
6430.01
6426.83
6412.92
6626.68
6627.18
6626.92
6626.75
6625.88
6625.08
6623.54
6622.17
6619.9
6618.02
6614.95
6612.59
6608.69
6605.83
6601.15
6597.63
6592.41
6587.85
6582.59
6576.13
6571.71
6562.78
6559.79
6547.2
6750.54
6751.04
6750.86
6750.72
6750
6749.27
6747.96
6746.69
6744.74
6742.97
6740.32
6738.1
6734.71
6732.02
6727.91
6724.67
6719.98
6715.93
6711
6705.46
6701.31
6693.35
6690.54
6679.25
6871.99
6872.51
6872.39
6872.29
6871.7
6871.06
6869.94
6868.81
6867.11
6865.53
6863.21
6861.2
6858.22
6855.79
6852.15
6849.26
6845.04
6841.49
6836.93
6832.3
6828.29
6821.31
6818.71
6808.69
6990.8
6991.31
6991.25
6991.2
6990.72
6990.19
6989.23
6988.25
6986.77
6985.4
6983.36
6981.6
6978.98
6976.85
6973.62
6971.09
6967.32
6964.26
6960.13
6956.21
6952.36
6946.44
6944.01
6935.22
7106.72
7107.24
7107.22
7107.23
7106.84
7106.41
7105.6
7104.78
7103.51
7102.33
7100.56
7099.05
7096.75
7094.93
7092.09
7089.93
7086.58
7083.99
7080.28
7077
7073.36
7068.44
7066.18
7058.58
7219.59
7220.1
7220.12
7220.18
7219.88
7219.56
7218.88
7218.22
7217.13
7216.16
7214.63
7213.37
7211.37
7209.84
7207.36
7205.55
7202.61
7200.45
7197.16
7194.46
7191.13
7187.14
7184.99
7178.54
7329.24
7329.75
7329.81
7329.92
7329.7
7329.47
7328.92
7328.4
7327.5
7326.71
7325.42
7324.39
7322.68
7321.43
7319.29
7317.82
7315.25
7313.51
7310.61
7308.43
7305.47
7302.33
7300.3
7294.91
7435.58
7436.08
7436.17
7436.32
7436.18
7436.04
7435.62
7435.23
7434.49
7433.88
7432.81
7432.01
7430.56
7429.59
7427.75
7426.62
7424.4
7423.06
7420.54
7418.85
7416.24
7413.84
7411.96
7407.55
7538.51
7539
7539.12
7539.31
7539.24
7539.18
7538.87
7538.61
7538.03
7537.59
7536.71
7536.12
7534.93
7534.21
7532.67
7531.84
7529.96
7528.99
7526.83
7525.61
7523.36
7521.57
7519.83
7516.39
7637.97
7638.46
7638.6
7638.82
7638.81
7638.84
7638.63
7638.49
7638.05
7637.77
7637.08
7636.69
7635.73
7635.25
7633.98
7633.45
7631.87
7631.25
7629.42
7628.63
7626.72
7625.5
7623.91
7621.38
7733.93
7734.4
7734.57
7734.83
7734.87
7734.97
7734.85
7734.82
7734.52
7734.39
7733.87
7733.67
7732.92
7732.67
7731.65
7731.38
7730.1
7729.8
7728.28
7727.88
7726.27
7725.54
7724.2
7722.48
7826.38
7826.84
7827.02
7827.3
7827.41
7827.56
7827.54
7827.61
7827.43
7827.43
7827.08
7827.04
7826.49
7826.45
7825.67
7825.66
7824.63
7824.64
7823.41
7823.38
7822.05
7821.78
7820.66
7819.68
7915.31
7915.76
7915.96
7916.27
7916.41
7916.63
7916.68
7916.84
7916.78
7916.91
7916.7
7916.83
7916.46
7916.61
7916.05
7916.26
7915.49
7915.78
7914.81
7915.13
7914.07
7914.25
7913.36
7913
8000.76
8001.19
8001.41
8001.73
8001.92
8002.19
8002.31
8002.56
8002.59
8002.84
8002.77
8003.04
8002.84
8003.17
8002.81
8003.23
8002.69
8003.23
8002.51
8003.15
8002.33
8002.93
8002.25
8002.46
8082.75
8083.17
8083.4
8083.74
8083.96
8084.28
8084.47
8084.79
8084.92
8085.26
8085.32
8085.72
8085.67
8086.16
8085.98
8086.6
8086.26
8087.04
8086.54
8087.47
8086.87
8087.85
8087.34
8088.09
8161.35
8161.75
8161.98
8162.34
8162.59
8162.95
8163.2
8163.59
8163.8
8164.24
8164.4
8164.92
8165.01
8165.65
8165.63
8166.42
8166.27
8167.26
8166.96
8168.15
8167.74
8169.06
8168.69
8169.93
8236.6
8236.98
8237.23
8237.59
8237.88
8238.27
8238.57
8239.02
8239.3
8239.83
8240.08
8240.71
8240.92
8241.69
8241.82
8242.77
8242.78
8243.96
8243.83
8245.26
8245.01
8246.65
8246.4
8248.07
8308.59
8308.96
8309.2
8309.58
8309.89
8310.31
8310.65
8311.15
8311.5
8312.1
8312.45
8313.17
8313.49
8314.37
8314.63
8315.72
8315.87
8317.23
8317.25
8318.89
8318.78
8320.7
8320.54
8322.6
8377.4
8377.75
8378
8378.38
8378.7
8379.16
8379.53
8380.08
8380.49
8381.15
8381.58
8382.38
8382.8
8383.78
8384.15
8385.37
8385.65
8387.16
8387.31
8389.14
8389.15
8391.31
8391.25
8393.64
8443.11
8443.44
8443.69
8444.07
8444.42
8444.9
8445.3
8445.89
8446.35
8447.07
8447.56
8448.44
8448.94
8450.02
8450.48
8451.81
8452.2
8453.84
8454.11
8456.11
8456.23
8458.61
8458.62
8461.31
8505.81
8506.12
8506.38
8506.77
8507.12
8507.62
8508.05
8508.68
8509.18
8509.95
8510.5
8511.44
8512.01
8513.17
8513.73
8515.15
8515.64
8517.4
8517.77
8519.91
8520.13
8522.7
8522.78
8525.71
8565.61
8565.9
8566.16
8566.54
8566.91
8567.43
8567.88
8568.54
8569.08
8569.89
8570.49
8571.49
8572.13
8573.35
8573.99
8575.49
8576.07
8577.93
8578.39
8580.66
8580.96
8583.69
8583.8
8587.03
8622.6
8622.87
8623.12
8623.51
8623.89
8624.42
8624.89
8625.57
8626.14
8627
8627.64
8628.69
8629.38
8630.67
8631.37
8632.95
8633.6
8635.54
8636.09
8638.47
8638.84
8641.72
8641.88
8645.3
8676.87
8677.14
8677.38
8677.77
8678.15
8678.69
8679.19
8679.89
8680.48
8681.37
8682.05
8683.14
8683.88
8685.22
8685.98
8687.62
8688.34
8690.36
8690.97
8693.45
8693.88
8696.89
8697.1
8700.68
8728.54
8728.79
8729.04
8729.42
8729.81
8730.35
8730.86
8731.58
8732.2
8733.11
8733.82
8734.95
8735.73
8737.12
8737.92
8739.62
8740.4
8742.48
8743.16
8745.71
8746.21
8749.32
8749.57
8753.3
8777.71
8777.94
8778.18
8778.56
8778.95
8779.5
8780.02
8780.76
8781.39
8782.33
8783.07
8784.23
8785.04
8786.46
8787.31
8789.05
8789.89
8792.01
8792.75
8795.37
8795.92
8799.12
8799.41
8803.27
8824.47
8824.68
8824.92
8825.3
8825.69
8826.25
8826.77
8827.52
8828.17
8829.12
8829.88
8831.06
8831.91
8833.36
8834.25
8836.02
8836.9
8839.07
8839.86
8842.53
8843.13
8846.4
8846.72
8850.7
8868.92
8869.12
8869.36
8869.73
8870.12
8870.68
8871.21
8871.96
8872.63
8873.59
8874.37
8875.57
8876.44
8877.92
8878.83
8880.64
8881.54
8883.75
8884.58
8887.29
8887.94
8891.26
8891.62
8895.68
8911.16
8911.35
8911.58
8911.95
8912.34
8912.9
8913.43
8914.19
8914.86
8915.84
8916.63
8917.85
8918.73
8920.23
8921.16
8922.99
8923.92
8926.16
8927.01
8929.76
8930.43
8933.8
8934.18
8938.31
8951.29
8951.47
8951.7
8952.06
8952.45
8953.01
8953.54
8954.31
8954.98
8955.97
8956.76
8958
8958.88
8960.4
8961.34
8963.2
8964.13
8966.41
8967.26
8970.04
8970.71
8974.12
8974.5
8978.67
8989.41
8989.58
8989.79
8990.15
8990.54
8991.09
8991.63
8992.4
8993.07
8994.06
8994.86
8996.1
8996.99
8998.53
8999.47
9001.35
9002.28
9004.58
9005.43
9008.25
9008.91
9012.35
9012.72
9016.9
9025.59
9025.76
9025.97
9026.32
9026.7
9027.26
9027.79
9028.56
9029.23
9030.23
9031.02
9032.27
9033.16
9034.71
9035.65
9037.54
9038.48
9040.79
9041.64
9044.47
9045.12
9048.58
9048.94
9053.13
9059.94
9060.1
9060.3
9060.65
9061.03
9061.58
9062.11
9062.87
9063.54
9064.54
9065.34
9066.59
9067.48
9069.03
9069.97
9071.87
9072.8
9075.12
9075.97
9078.81
9079.46
9082.92
9083.28
9087.47
9092.54
9092.69
9092.89
9093.23
9093.6
9094.15
9094.67
9095.44
9096.1
9097.1
9097.89
9099.15
9100.04
9101.58
9102.53
9104.42
9105.36
9107.68
9108.52
9111.36
9112.01
9115.47
9115.83
9120.01
9123.48
9123.61
9123.81
9124.14
9124.51
9125.05
9125.57
9126.33
9126.99
9127.99
9128.78
9130.03
9130.91
9132.46
9133.4
9135.29
9136.23
9138.54
9139.38
9142.21
9142.87
9146.32
9146.68
9150.85
9152.82
9152.94
9153.14
9153.47
9153.83
9154.37
9154.88
9155.64
9156.29
9157.29
9158.06
9159.32
9160.19
9161.73
9162.67
9164.55
9165.49
9167.79
9168.64
9171.45
9172.11
9175.54
9175.9
9180.06
9180.65
9180.77
9180.95
9181.28
9181.63
9182.17
9182.67
9183.43
9184.07
9185.06
9185.83
9187.08
9187.95
9189.49
9190.42
9192.29
9193.22
9195.51
9196.35
9199.15
9199.81
9203.23
9203.58
9207.72
9207.04
9207.15
9207.33
9207.65
9208
9208.53
9209.03
9209.78
9210.41
9211.4
9212.16
9213.41
9214.26
9215.8
9216.71
9218.58
9219.5
9221.78
9222.61
9225.4
9226.06
9229.44
9229.8
9233.91
9232.06
9232.16
9232.34
9232.66
9232.99
9233.52
9234.01
9234.76
9235.38
9236.37
9237.11
9238.36
9239.2
9240.73
9241.63
9243.49
9244.39
9246.66
9247.49
9250.25
9250.88
9254.29
9254.62
9258.71
9255.77
9255.87
9256.05
9256.36
9256.69
9257.21
9257.69
9258.43
9259.05
9260.03
9260.76
9262
9262.82
9264.35
9265.23
9267.09
9267.97
9270.23
9271.04
9273.79
9274.41
9277.79
9278.11
9282.16
9278.24
9278.34
9278.51
9278.82
9279.14
9279.66
9280.13
9280.87
9281.47
9282.45
9283.16
9284.4
9285.2
9286.73
9287.58
9289.45
9290.29
9292.56
9293.33
9296.08
9296.67
9300.03
9300.34
9304.35
9299.54
9299.63
9299.8
9300.1
9300.42
9300.93
9301.39
9302.13
9302.71
9303.69
9304.38
9305.62
9306.4
9307.93
9308.75
9310.62
9311.43
9313.7
9314.43
9317.18
9317.73
9321.07
9321.36
9325.34
9319.71
9319.8
9319.96
9320.26
9320.57
9321.08
9321.53
9322.26
9322.83
9323.81
9324.48
9325.72
9326.46
9328
9328.78
9330.66
9331.43
9333.71
9334.39
9337.15
9337.65
9340.98
9341.25
9345.18
9338.82
9338.9
9339.06
9339.35
9339.65
9340.16
9340.6
9341.33
9341.88
9342.86
9343.51
9344.75
9345.46
9347.01
9347.75
9349.64
9350.36
9352.65
9353.29
9356.04
9356.5
9359.82
9360.06
9363.94
9356.91
9356.99
9357.14
9357.43
9357.73
9358.23
9358.65
9359.39
9359.92
9360.9
9361.52
9362.77
9363.45
9365.01
9365.7
9367.61
9368.27
9370.58
9371.15
9373.93
9374.34
9377.63
9377.85
9381.68
9374.03
9374.11
9374.26
9374.55
9374.83
9375.34
9375.74
9376.48
9376.99
9377.97
9378.56
9379.82
9380.47
9382.03
9382.69
9384.6
9385.22
9387.54
9388.06
9390.84
9391.21
9394.48
9394.68
9398.46
9390.23
9390.31
9390.45
9390.74
9391.02
9391.52
9391.91
9392.65
9393.14
9394.12
9394.69
9395.95
9396.57
9398.13
9398.76
9400.67
9401.26
9403.57
9404.05
9406.83
9407.17
9410.41
9410.6
9414.34
9405.56
9405.64
9405.77
9406.06
9406.32
9406.83
9407.21
9407.94
9408.41
9409.4
9409.94
9411.21
9411.79
9413.36
9413.95
9415.88
9416.4
9418.74
9419.16
9421.94
9422.25
9425.47
9425.64
9429.34
9420.05
9420.13
9420.26
9420.55
9420.8
9421.31
9421.67
9422.41
9422.85
9423.85
9424.36
9425.64
9426.17
9427.77
9428.29
9430.26
9430.71
9433.07
9433.45
9436.22
9436.5
9439.69
9439.85
9443.5
9433.74
9433.82
9433.95
9434.24
9434.48
9434.99
9435.33
9436.08
9436.49
9437.51
9437.97
9439.28
9439.76
9441.39
9441.84
9443.83
9444.25
9446.6
9446.95
9449.7
9449.97
9453.12
9453.27
9456.86
9446.68
9446.76
9446.88
9447.17
9447.4
9447.92
9448.23
9449
9449.37
9450.42
9450.83
9452.16
9452.58
9454.24
9454.65
9456.65
9457.03
9459.37
9459.7
9462.42
9462.68
9465.79
9465.94
9469.48
9458.9
9458.97
9459.08
9459.38
9459.59
9460.13
9460.41
9461.19
9461.53
9462.6
9462.97
9464.32
9464.7
9466.37
9466.75
9468.74
9469.09
9471.42
9471.74
9474.43
9474.67
9477.75
9477.89
9481.38
9470.42
9470.49
9470.6
9470.9
9471.1
9471.64
9471.9
9472.7
9473.01
9474.08
9474.42
9475.78
9476.14
9477.8
9478.16
9480.13
9480.47
9482.78
9483.08
9485.74
9485.98
9489.02
9489.16
9492.6
9481.28
9481.36
9481.46
9481.76
9481.95
9482.49
9482.74
9483.53
9483.83
9484.9
9485.23
9486.58
9486.92
9488.57
9488.91
9490.87
9491.2
9493.49
9493.77
9496.41
9496.63
9499.64
9499.77
9503.17
9491.51
9491.59
9491.68
9491.98
9492.17
9492.7
9492.95
9493.74
9494.03
9495.08
9495.4
9496.74
9497.08
9498.71
9499.04
9500.98
9501.3
9503.56
9503.84
9506.44
9506.66
9509.63
9509.76
9513.12
9501.14
9501.21
9501.31
9501.61
9501.78
9502.31
9502.55
9503.33
9503.62
9504.66
9504.98
9506.3
9506.63
9508.24
9508.57
9510.49
9510.8
9513.04
9513.31
9515.88
9516.09
9519.03
9519.15
9522.47
9510.18
9510.26
9510.36
9510.65
9510.82
9511.35
9511.58
9512.36
9512.63
9513.67
9513.97
9515.29
9515.6
9517.21
9517.52
9519.42
9519.72
9521.94
9522.2
9524.75
9524.95
9527.85
9527.97
9531.25
9518.68
9518.75
9518.85
9519.13
9519.32
9519.82
9520.07
9520.82
9521.1
9522.12
9522.42
9523.72
9524.02
9525.61
9525.92
9527.8
9528.09
9530.29
9530.54
9533.06
9533.25
9536.12
9536.24
9539.48
9526.65
9526.71
9526.83
9527.08
9527.29
9527.75
9528.03
9528.74
9529.04
9530.03
9530.34
9531.62
9531.92
9533.49
9533.78
9535.65
9535.93
9538.1
9538.34
9540.84
9541.03
9543.87
9543.98
9547.18
9534.1
9534.16
9534.29
9534.51
9534.75
9535.17
9535.49
9536.14
9536.49
9537.42
9537.76
9538.99
9539.31
9540.86
9541.14
9543
9543.26
9545.41
9545.65
9548.12
9548.3
9551.11
9551.22
9554.38
9541.07
9541.12