/*--------------------------------*- C++ -*----------------------------------*\
  =========                 |
  \\      /  F ield         | OpenFOAM: The Open Source CFD Toolbox
   \\    /   O peration     | Website:  https://openfoam.org
    \\  /    A nd           | Version:  10
     \\/     M anipulation  |
\*---------------------------------------------------------------------------*/
FoamFile
{
    format      ascii;
    class       surfaceScalarField;
    location    "0.11";
    object      phi;
}
// * * * * * * * * * * * * * * * * * * * * * * * * * * * * * * * * * * * * * //

dimensions      [1 0 -1 0 0 0 0];

internalField   nonuniform List<scalar> 
8154
(
-6.59106e-09
-2.47019e-08
-6.20965e-08
-1.02694e-07
-1.87531e-07
-2.53866e-07
-4.0295e-07
-5.01383e-07
-7.24482e-07
-8.75989e-07
-1.1621e-06
-1.40528e-06
-1.7395e-06
-2.10301e-06
-2.43253e-06
-2.9327e-06
-3.33074e-06
-4.045e-06
-4.64184e-06
-5.54887e-06
-6.88031e-06
-7.28489e-06
-6.86116e-06
-0.000277617
-0.000832902
2.35079e-08
-0.00138838
9.44317e-08
-0.00194411
2.09838e-07
-0.00250033
3.71225e-07
-0.00305694
5.67174e-07
-0.00361441
8.04899e-07
-0.00417236
1.05862e-06
-0.00473151
1.34869e-06
-0.00529127
1.65594e-06
-0.00585249
1.98958e-06
-0.0064146
2.32603e-06
-0.00697811
2.66661e-06
-0.00754333
3.04499e-06
-0.00810913
3.36869e-06
-0.00867843
3.78838e-06
-0.00924584
4.06787e-06
-0.00982078
4.512e-06
-0.0103895
4.86579e-06
-0.010971
5.08512e-06
-0.0115406
5.22724e-06
-0.0121305
5.0627e-06
-0.0127021
3.99144e-06
-0.0133004
2.423e-06
-0.000277638
-0.000832966
2.5571e-08
-0.00138848
1.0256e-07
-0.00194425
2.30157e-07
-0.0025005
4.02805e-07
-0.00305715
6.23862e-07
-0.00361463
8.74776e-07
-0.00417261
1.1748e-06
-0.00473177
1.4764e-06
-0.00529155
1.83068e-06
-0.00585278
2.13862e-06
-0.00641489
2.53072e-06
-0.00697843
2.82384e-06
-0.00754359
3.24135e-06
-0.00810949
3.48569e-06
-0.00867864
3.85201e-06
-0.00924621
4.05472e-06
-0.00982106
4.33446e-06
-0.0103896
4.95049e-06
-0.0109711
4.6291e-06
-0.0115403
5.18287e-06
-0.0121293
5.28952e-06
-0.0127004
5.0125e-06
-0.0132979
4.20444e-06
-0.000277661
-0.000833035
2.05986e-08
-0.0013886
8.2949e-08
-0.0019444
1.84141e-07
-0.0025007
3.24011e-07
-0.00305738
4.91978e-07
-0.0036149
6.93531e-07
-0.00417287
9.0395e-07
-0.00473208
1.14273e-06
-0.00529181
1.36551e-06
-0.00585312
1.60967e-06
-0.00641513
1.8094e-06
-0.00697879
2.0095e-06
-0.00754377
2.15116e-06
-0.00810978
2.23405e-06
-0.00867877
2.30101e-06
-0.00924642
2.15102e-06
-0.0098216
2.29127e-06
-0.0103892
1.85912e-06
-0.0109716
1.73407e-06
-0.0115403
1.34854e-06
-0.0121289
1.12005e-06
-0.0126995
6.96132e-07
-0.0132936
4.96378e-07
-0.00027768
-0.000833091
2.48434e-08
-0.00138869
9.99435e-08
-0.00194453
2.22194e-07
-0.00250085
3.91563e-07
-0.00305755
5.96264e-07
-0.00361508
8.43142e-07
-0.00417308
1.10294e-06
-0.00473227
1.40007e-06
-0.00529201
1.6762e-06
-0.00585327
1.98549e-06
-0.00641527
2.2345e-06
-0.00697887
2.50699e-06
-0.00754379
2.68852e-06
-0.00810979
2.84817e-06
-0.00867856
2.93566e-06
-0.00924649
2.84441e-06
-0.0098211
2.92294e-06
-0.010389
2.22885e-06
-0.0109711
2.46108e-06
-0.01154
1.68461e-06
-0.0121284
1.1739e-06
-0.0126992
3.5697e-07
-0.013293
-1.88475e-07
-0.000277703
-0.00083316
3.29929e-08
-0.0013888
1.32418e-07
-0.00194468
2.95592e-07
-0.00250103
5.20576e-07
-0.00305778
7.99196e-07
-0.00361531
1.12978e-06
-0.00417334
1.49637e-06
-0.00473251
1.89963e-06
-0.00529228
2.31509e-06
-0.00585348
2.7452e-06
-0.0064155
3.16128e-06
-0.006979
3.55892e-06
-0.0075439
3.92302e-06
-0.00810982
4.21443e-06
-0.0086784
4.47503e-06
-0.0092465
4.56567e-06
-0.00982033
4.68032e-06
-0.0103892
4.35076e-06
-0.0109703
4.31925e-06
-0.0115394
3.64084e-06
-0.0121275
3.18129e-06
-0.0126986
2.24473e-06
-0.0132931
1.32948e-06
-0.000277735
-0.000833253
3.6932e-08
-0.00138895
1.48128e-07
-0.00194489
3.30887e-07
-0.00250129
5.82786e-07
-0.00305808
8.95947e-07
-0.00361565
1.26699e-06
-0.00417371
1.68136e-06
-0.00473289
2.13534e-06
-0.00529268
2.60792e-06
-0.00585385
3.09357e-06
-0.00641585
3.57017e-06
-0.00697932
4.02177e-06
-0.00754414
4.44156e-06
-0.00811002
4.77857e-06
-0.00867844
5.07859e-06
-0.00924656
5.20267e-06
-0.00981994
5.3203e-06
-0.0103891
5.03341e-06
-0.0109695
4.91883e-06
-0.0115389
4.17354e-06
-0.0121265
3.64116e-06
-0.0126976
2.61085e-06
-0.0132917
1.59257e-06
-0.00027777
-0.000833359
4.07822e-08
-0.00138912
1.63489e-07
-0.00194513
3.6526e-07
-0.00250159
6.43422e-07
-0.00305843
9.89684e-07
-0.00361604
1.40023e-06
-0.00417414
1.85966e-06
-0.00473333
2.364e-06
-0.00529313
2.8903e-06
-0.00585429
3.43291e-06
-0.00641627
3.96583e-06
-0.0069797
4.47429e-06
-0.00754443
4.94392e-06
-0.00811027
5.32927e-06
-0.00867851
5.66309e-06
-0.00924662
5.81665e-06
-0.0098196
5.94985e-06
-0.0103889
5.67126e-06
-0.0109687
5.55006e-06
-0.0115383
4.76717e-06
-0.0121255
4.1589e-06
-0.0126966
2.96205e-06
-0.0132901
1.7767e-06
-0.000277809
-0.000833477
4.44893e-08
-0.00138932
1.78257e-07
-0.0019454
3.98267e-07
-0.00250192
7.01449e-07
-0.00305883
1.07922e-06
-0.00361648
1.52695e-06
-0.00417462
2.02917e-06
-0.00473383
2.58007e-06
-0.00529364
3.15732e-06
-0.00585478
3.75231e-06
-0.00641673
4.33942e-06
-0.00698012
4.90007e-06
-0.00754477
5.41902e-06
-0.00811056
5.84812e-06
-0.00867862
6.2149e-06
-0.00924671
6.3964e-06
-0.00981927
6.53524e-06
-0.0103887
6.28287e-06
-0.0109679
6.13026e-06
-0.0115377
5.33287e-06
-0.0121242
4.77956e-06
-0.0126953
3.33528e-06
-0.0132882
1.99803e-06
-0.000277853
-0.000833605
4.81483e-08
-0.00138953
1.92822e-07
-0.00194569
4.30765e-07
-0.00250228
7.58468e-07
-0.00305926
1.16693e-06
-0.00361696
1.65068e-06
-0.00417514
2.19383e-06
-0.00473438
2.78961e-06
-0.0052942
3.4151e-06
-0.00585534
4.06022e-06
-0.00641726
4.69869e-06
-0.00698061
5.30979e-06
-0.00754516
5.87591e-06
-0.00811089
6.3477e-06
-0.00867876
6.74609e-06
-0.0092468
6.95306e-06
-0.00981897
7.09261e-06
-0.0103885
6.8593e-06
-0.010967
6.68308e-06
-0.011537
5.85053e-06
-0.0121228
4.87396e-06
-0.0126939
3.6643e-06
-0.0132862
2.19193e-06
-0.0002779
-0.000833746
5.17552e-08
-0.00138976
2.07175e-07
-0.00194601
4.62761e-07
-0.00250268
8.14554e-07
-0.00305972
1.25303e-06
-0.00361748
1.77189e-06
-0.00417572
2.35469e-06
-0.00473498
2.99336e-06
-0.00529482
3.6647e-06
-0.00585595
4.35709e-06
-0.00641784
5.04365e-06
-0.00698114
5.70216e-06
-0.0075456
6.31299e-06
-0.00811125
6.82576e-06
-0.00867892
7.25521e-06
-0.0092469
7.48566e-06
-0.0098187
7.62442e-06
-0.0103883
7.40671e-06
-0.0109662
7.20691e-06
-0.0115363
6.35879e-06
-0.0121212
5.53897e-06
-0.0126924
4.00865e-06
-0.0132839
2.38426e-06
-0.00027795
-0.000833897
5.53299e-08
-0.00139001
2.21403e-07
-0.00194635
4.94492e-07
-0.0025031
8.70185e-07
-0.00306023
1.33842e-06
-0.00361804
1.89198e-06
-0.00417633
2.51371e-06
-0.00473563
3.19434e-06
-0.00529549
3.90986e-06
-0.00585661
4.64748e-06
-0.00641847
5.37933e-06
-0.00698172
6.0823e-06
-0.00754608
6.73468e-06
-0.00811164
7.28617e-06
-0.00867912
7.74588e-06
-0.009247
8.00097e-06
-0.00981844
8.14573e-06
-0.0103881
7.93004e-06
-0.0109653
7.70297e-06
-0.0115354
6.824e-06
-0.0121196
5.97437e-06
-0.0126907
4.32985e-06
-0.0132815
2.56975e-06
-0.000278005
-0.00083406
5.88602e-08
-0.00139027
2.35463e-07
-0.00194672
5.25868e-07
-0.00250356
9.25267e-07
-0.00306077
1.42302e-06
-0.00361865
2.01112e-06
-0.004177
2.67143e-06
-0.00473632
3.39356e-06
-0.0052962
4.15228e-06
-0.00585731
4.93347e-06
-0.00641914
5.70819e-06
-0.00698234
6.45255e-06
-0.0075466
7.14292e-06
-0.00811207
7.72957e-06
-0.00867934
8.21667e-06
-0.00924711
8.49483e-06
-0.00981819
8.64648e-06
-0.0103878
8.42859e-06
-0.0109644
8.16741e-06
-0.0115345
7.25113e-06
-0.012118
6.3425e-06
-0.0126889
4.62646e-06
-0.0132789
2.74142e-06
-0.000278063
-0.000834233
6.23503e-08
-0.00139056
2.49368e-07
-0.00194711
5.56937e-07
-0.00250405
9.79874e-07
-0.00306134
1.50704e-06
-0.00361929
2.12954e-06
-0.0041777
2.82845e-06
-0.00473706
3.59184e-06
-0.00529696
4.39349e-06
-0.00585807
5.21774e-06
-0.00641987
6.03396e-06
-0.00698301
6.81756e-06
-0.00754716
7.54269e-06
-0.00811253
8.16079e-06
-0.00867959
8.67159e-06
-0.00924724
8.96968e-06
-0.00981794
9.12565e-06
-0.0103875
8.90807e-06
-0.0109634
8.60721e-06
-0.0115336
7.64606e-06
-0.0121162
6.67651e-06
-0.012687
4.87362e-06
-0.0132761
2.89042e-06
-0.000278124
-0.000834417
6.5796e-08
-0.00139086
2.63097e-07
-0.00194752
5.87611e-07
-0.00250456
1.03383e-06
-0.00306195
1.5901e-06
-0.00361998
2.24683e-06
-0.00417845
2.98409e-06
-0.00473784
3.78888e-06
-0.00529777
4.63334e-06
-0.00585886
5.50028e-06
-0.00642063
6.3574e-06
-0.00698371
7.1789e-06
-0.00754775
7.93657e-06
-0.00811301
8.58273e-06
-0.00867986
9.11313e-06
-0.00924736
9.4271e-06
-0.0098177
9.5857e-06
-0.0103872
9.37041e-06
-0.0109624
9.0275e-06
-0.0115326
8.0214e-06
-0.0121144
6.98275e-06
-0.012685
5.03803e-06
-0.0132732
3.0177e-06
-0.000278189
-0.000834611
6.92099e-08
-0.00139118
2.76691e-07
-0.00194796
6.17973e-07
-0.00250511
1.0872e-06
-0.0030626
1.67224e-06
-0.0036207
2.36274e-06
-0.00417924
3.13804e-06
-0.00473867
3.98377e-06
-0.00529862
4.871e-06
-0.0058597
5.78089e-06
-0.00642143
6.67904e-06
-0.00698444
7.53831e-06
-0.00754838
8.32767e-06
-0.00811352
8.99989e-06
-0.00868015
9.5464e-06
-0.0092475
9.87138e-06
-0.00981746
1.00288e-05
-0.0103868
9.81351e-06
-0.0109614
9.42938e-06
-0.0115315
8.38429e-06
-0.0121124
7.28218e-06
-0.012683
5.25515e-06
-0.0132702
3.1497e-06
-0.000278258
-0.000834816
7.25888e-08
-0.00139152
2.90138e-07
-0.00194843
6.47951e-07
-0.00250569
1.13981e-06
-0.00306328
1.75304e-06
-0.00362147
2.47668e-06
-0.00418008
3.28914e-06
-0.00473954
4.1752e-06
-0.00529951
5.10451e-06
-0.00586058
6.05681e-06
-0.00642227
6.996e-06
-0.00698521
7.89332e-06
-0.00754903
8.71479e-06
-0.00811405
9.41286e-06
-0.00868046
9.97421e-06
-0.00924764
1.03067e-05
-0.00981723
1.04563e-05
-0.0103864
1.02285e-05
-0.0109603
9.81023e-06
-0.0115304
8.72763e-06
-0.0121104
7.5643e-06
-0.0126809
5.47372e-06
-0.013267
3.27329e-06
-0.00027833
-0.000835032
7.59305e-08
-0.00139187
3.03423e-07
-0.00194891
6.77524e-07
-0.00250629
1.19156e-06
-0.00306399
1.83234e-06
-0.00362227
2.58809e-06
-0.00418095
3.43658e-06
-0.00474046
4.36157e-06
-0.00530045
5.33181e-06
-0.00586151
6.32581e-06
-0.00642315
7.30565e-06
-0.00698602
8.24118e-06
-0.00754971
9.09559e-06
-0.00811459
9.82061e-06
-0.00868077
1.0398e-05
-0.00924777
1.07383e-05
-0.00981698
1.08786e-05
-0.010386
1.06342e-05
-0.0109592
1.01812e-05
-0.0115292
9.06179e-06
-0.0121083
7.83628e-06
-0.0126786
5.67549e-06
-0.0132637
3.38928e-06
-0.000278406
-0.000835257
7.92033e-08
-0.00139224
3.16422e-07
-0.00194942
7.06398e-07
-0.00250693
1.242e-06
-0.00306474
1.90937e-06
-0.00362311
2.69611e-06
-0.00418187
3.57911e-06
-0.00474142
4.5413e-06
-0.00530143
5.55047e-06
-0.00586247
6.58416e-06
-0.00642407
7.60324e-06
-0.00698686
8.57633e-06
-0.00755042
9.46405e-06
-0.00811516
1.02172e-05
-0.0086811
1.08128e-05
-0.00924789
1.11629e-05
-0.00981672
1.12961e-05
-0.0103855
1.10372e-05
-0.0109581
1.05451e-05
-0.011528
9.39193e-06
-0.0121061
8.10407e-06
-0.0126763
5.87063e-06
-0.0132603
3.50002e-06
-0.000278484
-0.000835493
8.23577e-08
-0.00139263
3.28943e-07
-0.00194995
7.34207e-07
-0.00250759
1.29051e-06
-0.00306552
1.98339e-06
-0.00362398
2.79958e-06
-0.00418282
3.71526e-06
-0.00474242
4.71258e-06
-0.00530245
5.7584e-06
-0.00586348
6.82954e-06
-0.00642503
7.88558e-06
-0.00698774
8.89443e-06
-0.00755116
9.81469e-06
-0.00811574
1.05965e-05
-0.00868144
1.12124e-05
-0.00924802
1.15754e-05
-0.00981645
1.17053e-05
-0.010385
1.14345e-05
-0.0109569
1.09029e-05
-0.0115267
9.7224e-06
-0.0121039
8.37459e-06
-0.012674
6.06578e-06
-0.0132568
3.6095e-06
-0.000278566
-0.000835738
8.53095e-08
-0.00139303
3.40664e-07
-0.0019505
7.60244e-07
-0.00250828
1.33598e-06
-0.00306633
2.05277e-06
-0.0036249
2.8967e-06
-0.00418381
3.84305e-06
-0.00474346
4.87298e-06
-0.00530351
5.95264e-06
-0.00586453
7.05798e-06
-0.00642603
8.14783e-06
-0.00698865
9.18951e-06
-0.00755193
1.014e-05
-0.00811634
1.09493e-05
-0.00868179
1.15863e-05
-0.00924814
1.19649e-05
-0.00981617
1.20966e-05
-0.0103845
1.18184e-05
-0.0109558
1.12512e-05
-0.0115254
1.00515e-05
-0.0121016
8.6488e-06
-0.0126715
6.26675e-06
-0.0132532
3.72144e-06
-0.000278651
-0.000835992
8.79779e-08
-0.00139345
3.5127e-07
-0.00195108
7.83866e-07
-0.00250899
1.37732e-06
-0.00306717
2.11606e-06
-0.00362583
2.9854e-06
-0.00418483
3.95989e-06
-0.00474453
5.01996e-06
-0.00530461
6.13061e-06
-0.00586561
7.26715e-06
-0.00642707
8.3873e-06
-0.00698959
9.45806e-06
-0.00755273
1.04353e-05
-0.00811697
1.12692e-05
-0.00868216
1.19259e-05
-0.00924826
1.23207e-05
-0.00981589
1.24583e-05
-0.0103839
1.218e-05
-0.0109545
1.15912e-05
-0.0115239
1.03726e-05
-0.0120992
8.92028e-06
-0.012669
6.475e-06
-0.0132495
3.83888e-06
-0.000278739
-0.000836254
9.02678e-08
-0.00139388
3.60388e-07
-0.00195167
8.04222e-07
-0.00250973
1.41312e-06
-0.00306804
2.17111e-06
-0.00362681
3.06306e-06
-0.00418589
4.06277e-06
-0.00474563
5.14964e-06
-0.00530574
6.288e-06
-0.00586672
7.45206e-06
-0.00642813
8.59876e-06
-0.00699056
9.69452e-06
-0.00755356
1.06942e-05
-0.00811762
1.15483e-05
-0.00868255
1.22212e-05
-0.00924839
1.26297e-05
-0.0098156
1.27736e-05
-0.0103833
1.24992e-05
-0.0109533
1.19002e-05
-0.0115225
1.06638e-05
-0.0120967
9.16935e-06
-0.0126663
6.67972e-06
-0.0132456
3.95691e-06
-0.000278829
-0.000836523
9.21169e-08
-0.00139432
3.67762e-07
-0.00195227
8.2076e-07
-0.00251048
1.44233e-06
-0.00306892
2.21633e-06
-0.0036278
3.12719e-06
-0.00418697
4.14828e-06
-0.00474677
5.25842e-06
-0.0053069
6.42081e-06
-0.00586786
7.60886e-06
-0.00642922
8.77825e-06
-0.00699155
9.89487e-06
-0.00755441
1.09125e-05
-0.00811829
1.1782e-05
-0.00868295
1.24664e-05
-0.00924853
1.28844e-05
-0.00981533
1.30315e-05
-0.0103827
1.27593e-05
-0.0109521
1.21496e-05
-0.011521
1.09026e-05
-0.0120942
9.37226e-06
-0.0126636
6.85511e-06
-0.0132417
4.058e-06
-0.000278922
-0.000836798
9.34669e-08
-0.00139477
3.73154e-07
-0.00195289
8.32882e-07
-0.00251125
1.46388e-06
-0.00306983
2.24989e-06
-0.00362882
3.1753e-06
-0.00418807
4.21307e-06
-0.00474793
5.34142e-06
-0.00530808
6.52312e-06
-0.00586903
7.73052e-06
-0.00643033
8.91839e-06
-0.00699257
1.00517e-05
-0.00755528
1.10828e-05
-0.00811897
1.19629e-05
-0.00868337
1.26535e-05
-0.00924868
1.30756e-05
-0.00981505
1.32215e-05
-0.0103821
1.29481e-05
-0.0109508
1.23264e-05
-0.0115195
1.10732e-05
-0.0120917
9.50256e-06
-0.0126608
6.9565e-06
-0.0132376
4.10659e-06
-0.000279015
-0.000837077
9.43151e-08
-0.00139523
3.76539e-07
-0.00195352
8.40522e-07
-0.00251204
1.47749e-06
-0.00307076
2.27126e-06
-0.00362985
3.20611e-06
-0.0041892
4.25502e-06
-0.00474911
5.39621e-06
-0.00530929
6.59161e-06
-0.00587021
7.81346e-06
-0.00643146
9.01496e-06
-0.00699359
1.01609e-05
-0.00755615
1.12015e-05
-0.00811966
1.20886e-05
-0.00868379
1.27806e-05
-0.00924883
1.32025e-05
-0.00981478
1.33413e-05
-0.0103815
1.3063e-05
-0.0109496
1.24278e-05
-0.0115179
1.11716e-05
-0.0120892
9.55112e-06
-0.012658
6.94926e-06
-0.0132335
4.07678e-06
-0.000279109
-0.000837359
9.50316e-08
-0.0013957
3.79394e-07
-0.00195416
8.46936e-07
-0.00251283
1.48894e-06
-0.00307169
2.28922e-06
-0.0036309
3.23227e-06
-0.00419034
4.29103e-06
-0.0047503
5.44371e-06
-0.00531051
6.65248e-06
-0.00587141
7.88919e-06
-0.00643261
9.1066e-06
-0.00699463
1.02688e-05
-0.00755704
1.13244e-05
-0.00812036
1.22249e-05
-0.00868421
1.29264e-05
-0.00924897
1.33553e-05
-0.00981451
1.34954e-05
-0.0103808
1.32188e-05
-0.0109483
1.25786e-05
-0.0115163
1.13249e-05
-0.0120866
9.67767e-06
-0.0126551
7.04519e-06
-0.0132294
4.16028e-06
-0.000279204
-0.000837644
9.53588e-08
-0.00139616
3.80682e-07
-0.0019548
8.49824e-07
-0.00251363
1.49404e-06
-0.00307263
2.29726e-06
-0.00363196
3.24398e-06
-0.00419149
4.30748e-06
-0.00475151
5.46632e-06
-0.00531175
6.68267e-06
-0.00587263
7.92881e-06
-0.00643377
9.15737e-06
-0.00699569
1.03321e-05
-0.00755794
1.14011e-05
-0.00812106
1.23144e-05
-0.00868465
1.30267e-05
-0.00924911
1.34637e-05
-0.00981424
1.36071e-05
-0.0103802
1.33324e-05
-0.0109471
1.26869e-05
-0.0115147
1.14313e-05
-0.012084
9.77626e-06
-0.0126522
7.13617e-06
-0.0132253
4.36191e-06
-0.0002793
-0.000837929
9.51754e-08
-0.00139663
3.79929e-07
-0.00195545
8.48104e-07
-0.00251443
1.49099e-06
-0.00307358
2.29252e-06
-0.00363302
3.2374e-06
-0.00419265
4.29901e-06
-0.00475272
5.4562e-06
-0.00531299
6.67194e-06
-0.00587386
7.91878e-06
-0.00643494
9.15003e-06
-0.00699676
1.03296e-05
-0.00755886
1.14056e-05
-0.00812177
1.23274e-05
-0.00868509
1.30481e-05
-0.00924926
1.34923e-05
-0.00981397
1.36388e-05
-0.0103796
1.33652e-05
-0.0109459
1.27136e-05
-0.011513
1.14586e-05
-0.0120814
9.79706e-06
-0.0126494
7.15832e-06
-0.0132211
4.00232e-06
-0.000279395
-0.000838214
9.45287e-08
-0.0013971
3.77328e-07
-0.00195609
8.42272e-07
-0.00251523
1.48066e-06
-0.00307452
2.27654e-06
-0.00363409
3.21469e-06
-0.00419381
4.26882e-06
-0.00475394
5.41822e-06
-0.00531424
6.62601e-06
-0.00587509
7.8658e-06
-0.00643613
9.09146e-06
-0.00699784
1.0268e-05
-0.00755978
1.1344e-05
-0.0081225
1.22692e-05
-0.00868554
1.29961e-05
-0.00924941
1.3448e-05
-0.0098137
1.36006e-05
-0.0103789
1.33312e-05
-0.0109446
1.26758e-05
-0.0115114
1.14208e-05
-0.0120787
9.74455e-06
-0.0126465
7.14194e-06
-0.0132168
4.11085e-06
-0.00027949
-0.000838497
9.34334e-08
-0.00139757
3.72951e-07
-0.00195673
8.32499e-07
-0.00251603
1.46351e-06
-0.00307546
2.25017e-06
-0.00363514
3.17751e-06
-0.00419496
4.21938e-06
-0.00475515
5.35536e-06
-0.00531548
6.54927e-06
-0.00587632
7.77524e-06
-0.0064373
8.98801e-06
-0.00699892
1.01539e-05
-0.00756071
1.12223e-05
-0.00812323
1.21446e-05
-0.008686
1.28735e-05
-0.00924957
1.33326e-05
-0.00981344
1.34953e-05
-0.0103783
1.32376e-05
-0.0109434
1.25879e-05
-0.0115097
1.13366e-05
-0.0120761
9.64116e-06
-0.0126435
7.08427e-06
-0.0132126
4.19184e-06
-0.000279584
-0.000838777
9.19268e-08
-0.00139803
3.66947e-07
-0.00195736
8.19157e-07
-0.00251682
1.44018e-06
-0.00307639
2.21451e-06
-0.00363618
3.12745e-06
-0.0041961
4.15326e-06
-0.00475635
5.27195e-06
-0.00531671
6.44743e-06
-0.00587753
7.65467e-06
-0.00643847
8.84886e-06
-0.00699999
9.99771e-06
-0.00756164
1.10516e-05
-0.00812397
1.19641e-05
-0.00868646
1.2689e-05
-0.00924975
1.31518e-05
-0.0098132
1.33257e-05
-0.0103777
1.30862e-05
-0.0109421
1.24563e-05
-0.011508
1.12267e-05
-0.0120736
9.53801e-06
-0.0126407
7.0115e-06
-0.0132085
4.16277e-06
-0.000279676
-0.000839053
9.00364e-08
-0.00139848
3.59426e-07
-0.00195798
8.02466e-07
-0.0025176
1.41111e-06
-0.00307731
2.17025e-06
-0.00363721
3.06566e-06
-0.00419722
4.07205e-06
-0.00475752
5.16984e-06
-0.00531792
6.32359e-06
-0.00587873
7.50861e-06
-0.00643963
8.68051e-06
-0.00700105
9.80798e-06
-0.00756256
1.0842e-05
-0.0081247
1.17385e-05
-0.00868694
1.24525e-05
-0.00924993
1.29128e-05
-0.00981297
1.30941e-05
-0.010377
1.28737e-05
-0.0109409
1.22726e-05
-0.0115063
1.10819e-05
-0.0120711
9.42969e-06
-0.0126378
6.93297e-06
-0.0132043
4.11584e-06
-0.000279766
-0.000839323
8.78315e-08
-0.00139892
3.50657e-07
-0.00195859
7.83015e-07
-0.00251836
1.37722e-06
-0.0030782
2.11869e-06
-0.00363822
2.99384e-06
-0.00419832
3.97798e-06
-0.00475868
5.05233e-06
-0.00531911
6.18173e-06
-0.00587991
7.34229e-06
-0.00644076
8.48982e-06
-0.00700209
9.59382e-06
-0.00756346
1.06054e-05
-0.00812542
1.14821e-05
-0.00868741
1.21799e-05
-0.00925012
1.26311e-05
-0.00981276
1.28126e-05
-0.0103765
1.26062e-05
-0.0109397
1.20341e-05
-0.0115047
1.08898e-05
-0.0120686
9.28767e-06
-0.012635
6.8534e-06
-0.0132002
4.06217e-06
-0.000279855
-0.000839586
8.53747e-08
-0.00139936
3.40883e-07
-0.00195919
7.61308e-07
-0.0025191
1.33938e-06
-0.00307908
2.06107e-06
-0.00363921
2.91347e-06
-0.00419939
3.87272e-06
-0.00475981
4.92078e-06
-0.00532027
6.02354e-06
-0.00588106
7.15773e-06
-0.00644187
8.27965e-06
-0.00700311
9.35946e-06
-0.00756435
1.03482e-05
-0.00812613
1.12045e-05
-0.00868787
1.1884e-05
-0.00925032
1.23221e-05
-0.00981257
1.24967e-05
-0.0103759
1.22958e-05
-0.0109386
1.17454e-05
-0.0115031
1.06454e-05
-0.0120662
9.10669e-06
-0.0126323
6.77202e-06
-0.0131962
4.003e-06
-0.000279941
-0.000839843
8.27607e-08
-0.00139978
3.30474e-07
-0.00195977
7.38154e-07
-0.00251982
1.2989e-06
-0.00307994
1.99925e-06
-0.00364017
2.82703e-06
-0.00420045
3.75918e-06
-0.00476092
4.7788e-06
-0.00532141
5.8525e-06
-0.00588219
6.95833e-06
-0.00644296
8.0533e-06
-0.00700411
9.10859e-06
-0.00756521
1.00752e-05
-0.00812682
1.09126e-05
-0.00868832
1.15756e-05
-0.0092505
1.20011e-05
-0.00981239
1.21665e-05
-0.0103754
1.19644e-05
-0.0109375
1.14235e-05
-0.0115016
1.03537e-05
-0.0120639
8.87395e-06
-0.0126295
6.64709e-06
-0.0131922
3.92702e-06
-0.000280024
-0.000840091
8.00544e-08
-0.00140019
3.19685e-07
-0.00196033
7.14111e-07
-0.00252053
1.25677e-06
-0.00308077
1.9347e-06
-0.00364111
2.73636e-06
-0.00420147
3.63961e-06
-0.004762
4.62842e-06
-0.00532253
5.67074e-06
-0.00588329
6.74584e-06
-0.00644402
7.81183e-06
-0.00700508
8.84134e-06
-0.00756606
9.78594e-06
-0.0081275
1.06061e-05
-0.00868876
1.12561e-05
-0.00925068
1.16732e-05
-0.0098122
1.18333e-05
-0.0103748
1.16309e-05
-0.0109365
1.1094e-05
-0.0115001
1.004e-05
-0.0120617
8.59199e-06
-0.0126268
6.42021e-06
-0.0131883
3.81717e-06
-0.000280104
-0.000840332
7.73264e-08
-0.00140058
3.08801e-07
-0.00196088
6.89812e-07
-0.00252121
1.21407e-06
-0.00308157
1.86906e-06
-0.00364202
2.64389e-06
-0.00420247
3.517e-06
-0.00476305
4.47354e-06
-0.00532361
5.48228e-06
-0.00588437
6.52413e-06
-0.00644506
7.55844e-06
-0.00700604
8.55971e-06
-0.00756689
9.48073e-06
-0.00812816
1.02835e-05
-0.00868919
1.09229e-05
-0.00925086
1.13363e-05
-0.00981202
1.14988e-05
-0.0103743
1.13037e-05
-0.0109354
1.07774e-05
-0.0114987
9.73978e-06
-0.0120595
8.31404e-06
-0.0126242
6.18854e-06
-0.0131845
3.67495e-06
-0.000280182
-0.000840565
7.45965e-08
-0.00140097
2.97898e-07
-0.0019614
6.6545e-07
-0.00252187
1.1712e-06
-0.00308235
1.80302e-06
-0.00364289
2.55043e-06
-0.00420343
3.3927e-06
-0.00476406
4.31562e-06
-0.00532466
5.28915e-06
-0.00588541
6.29538e-06
-0.00644607
7.29506e-06
-0.00700697
8.26464e-06
-0.00756771
9.15852e-06
-0.00812881
9.941e-06
-0.00868961
1.05686e-05
-0.00925104
1.09797e-05
-0.00981184
1.11508e-05
-0.0103738
1.09721e-05
-0.0109344
1.04702e-05
-0.0114973
9.45904e-06
-0.0120574
8.05998e-06
-0.0126217
5.97172e-06
-0.0131809
3.48948e-06
-0.000280257
-0.000840789
7.1876e-08
-0.00140134
2.87032e-07
-0.00196191
6.41146e-07
-0.0025225
1.12838e-06
-0.0030831
1.73693e-06
-0.00364374
2.45686e-06
-0.00420436
3.26778e-06
-0.00476504
4.15647e-06
-0.00532567
5.09344e-06
-0.00588642
6.06216e-06
-0.00644705
7.02448e-06
-0.00700787
7.95874e-06
-0.0075685
8.821e-06
-0.00812945
9.57809e-06
-0.00869004
1.01891e-05
-0.00925123
1.05942e-05
-0.00981168
1.0774e-05
-0.0103733
1.06157e-05
-0.0109334
1.01522e-05
-0.0114959
9.18454e-06
-0.0120554
7.8386e-06
-0.0126193
5.79186e-06
-0.0131774
3.31595e-06
-0.00028033
-0.000841006
6.913e-08
-0.00140169
2.76059e-07
-0.0019624
6.16606e-07
-0.00252311
1.08511e-06
-0.00308383
1.67013e-06
-0.00364456
2.36204e-06
-0.00420525
3.14118e-06
-0.00476599
3.99472e-06
-0.00532665
4.89418e-06
-0.00588739
5.82378e-06
-0.00644799
6.74651e-06
-0.00700875
7.64211e-06
-0.00756927
8.46833e-06
-0.00813008
9.19402e-06
-0.00869046
9.78143e-06
-0.00925142
1.01723e-05
-0.00981154
1.03541e-05
-0.0103729
1.02106e-05
-0.0109325
9.78876e-06
-0.0114946
8.8731e-06
-0.0120534
7.61224e-06
-0.0126168
5.64631e-06
-0.0131741
3.29141e-06
-0.000280399
-0.000841214
6.632e-08
-0.00140204
2.6484e-07
-0.00196287
5.91498e-07
-0.0025237
1.04083e-06
-0.00308453
1.6017e-06
-0.00364534
2.26499e-06
-0.00420611
3.01133e-06
-0.0047669
3.82872e-06
-0.00532758
4.68925e-06
-0.00588832
5.57803e-06
-0.0064489
6.45911e-06
-0.00700958
7.31317e-06
-0.00757001
8.09965e-06
-0.00813068
8.78856e-06
-0.00869087
9.34528e-06
-0.00925162
9.71253e-06
-0.00981142
9.88499e-06
-0.0103725
9.74367e-06
-0.0109316
9.3531e-06
-0.0114934
8.48002e-06
-0.0120514
7.30908e-06
-0.0126145
5.43565e-06
-0.0131708
3.22654e-06
-0.000280466
-0.000841414
6.33647e-08
-0.00140236
2.53025e-07
-0.00196333
5.65073e-07
-0.00252427
9.94194e-07
-0.00308519
1.52965e-06
-0.00364609
2.1626e-06
-0.00420694
2.87444e-06
-0.00476776
3.6536e-06
-0.00532848
4.47296e-06
-0.00588921
5.31861e-06
-0.00644976
6.15507e-06
-0.00701038
6.96492e-06
-0.00757071
7.70737e-06
-0.00813125
8.35588e-06
-0.00869125
8.87435e-06
-0.00925181
9.21181e-06
-0.0098113
9.36042e-06
-0.0103721
9.21103e-06
-0.0109308
8.82829e-06
-0.0114922
7.98571e-06
-0.0120496
6.88185e-06
-0.0126123
5.10256e-06
-0.0131676
3.04363e-06
-0.00028053
-0.000841605
6.05307e-08
-0.00140268
2.41693e-07
-0.00196376
5.39709e-07
-0.00252481
9.49499e-07
-0.00308583
1.46058e-06
-0.00364681
2.06472e-06
-0.00420772
2.74355e-06
-0.00476859
3.48654e-06
-0.00532934
4.26687e-06
-0.00589006
5.07222e-06
-0.00645058
5.867e-06
-0.00701114
6.63671e-06
-0.00757137
7.33877e-06
-0.00813178
7.95238e-06
-0.00869161
8.43594e-06
-0.00925198
8.74956e-06
-0.00981117
8.87366e-06
-0.0103718
8.71973e-06
-0.0109299
8.33339e-06
-0.0114912
7.51973e-06
-0.0120478
6.45825e-06
-0.0126103
4.76304e-06
-0.0131646
2.81642e-06
-0.000280591
-0.000841788
5.80163e-08
-0.00140298
2.31638e-07
-0.00196417
5.17254e-07
-0.00252532
9.09949e-07
-0.00308644
1.39969e-06
-0.0036475
1.97855e-06
-0.00420847
2.629e-06
-0.00476938
3.34092e-06
-0.00533015
4.08861e-06
-0.00589086
4.86033e-06
-0.00645136
5.62206e-06
-0.00701185
6.35976e-06
-0.007572
7.0332e-06
-0.00813228
7.62145e-06
-0.00869194
8.08635e-06
-0.00925213
8.38634e-06
-0.00981104
8.50695e-06
-0.0103714
8.35537e-06
-0.0109291
7.98651e-06
-0.0114901
7.19848e-06
-0.0120462
6.19824e-06
-0.0126084
4.56184e-06
-0.0131618
2.73894e-06
-0.00028065
-0.000841963
5.53036e-08
-0.00140327
2.20804e-07
-0.00196457
4.93033e-07
-0.00252582
8.6735e-07
-0.00308703
1.33401e-06
-0.00364815
1.88574e-06
-0.00420919
2.50542e-06
-0.00477014
3.1838e-06
-0.00533093
3.89616e-06
-0.00589163
4.63142e-06
-0.00645211
5.35736e-06
-0.00701254
6.06019e-06
-0.0075726
6.7026e-06
-0.00813276
7.26305e-06
-0.00869226
7.70814e-06
-0.00925227
7.99357e-06
-0.00981091
8.11256e-06
-0.010371
7.96406e-06
-0.0109284
7.61475e-06
-0.0114891
6.84962e-06
-0.0120445
5.89769e-06
-0.0126066
4.31223e-06
-0.0131591
2.65703e-06
-0.000280706
-0.00084213
5.23534e-08
-0.00140354
2.0901e-07
-0.00196495
4.66707e-07
-0.00252629
8.21005e-07
-0.00308758
1.26269e-06
-0.00364878
1.78489e-06
-0.00420988
2.3714e-06
-0.00477086
3.01349e-06
-0.00533168
3.68771e-06
-0.00589237
4.38356e-06
-0.00645283
5.0708e-06
-0.00701319
5.73579e-06
-0.00757318
6.34446e-06
-0.00813323
6.87434e-06
-0.00869256
7.29751e-06
-0.0092524
7.56672e-06
-0.00981078
7.68484e-06
-0.0103707
7.54198e-06
-0.0109276
7.22169e-06
-0.0114882
6.48564e-06
-0.012043
5.57475e-06
-0.012605
4.0069e-06
-0.0131565
2.45898e-06
-0.000280759
-0.000842289
4.91555e-08
-0.0014038
1.96246e-07
-0.0019653
4.38205e-07
-0.00252674
7.70932e-07
-0.00308811
1.18556e-06
-0.00364937
1.67603e-06
-0.00421053
2.22666e-06
-0.00477154
2.82966e-06
-0.00533238
3.46282e-06
-0.00589307
4.11623e-06
-0.00645351
4.76198e-06
-0.00701382
5.3862e-06
-0.00757372
5.95885e-06
-0.00813367
6.45544e-06
-0.00869285
6.85497e-06
-0.00925254
7.10503e-06
-0.00981066
7.22096e-06
-0.0103704
7.08244e-06
-0.0109269
6.80041e-06
-0.0114873
6.10106e-06
-0.0120414
5.28066e-06
-0.0126035
4.02498e-06
-0.0131541
2.31402e-06
-0.000280809
-0.000842438
4.56773e-08
-0.00140405
1.82357e-07
-0.00196564
4.07246e-07
-0.00252716
7.16516e-07
-0.00308861
1.10194e-06
-0.00364993
1.55801e-06
-0.00421114
2.07005e-06
-0.00477218
2.63095e-06
-0.00533305
3.22007e-06
-0.00589373
3.82788e-06
-0.00645414
4.42931e-06
-0.0070144
5.00961e-06
-0.00757424
5.54419e-06
-0.00813408
6.00481e-06
-0.00869312
6.38013e-06
-0.00925268
6.60846e-06
-0.00981055
6.72147e-06
-0.0103702
6.58248e-06
-0.0109263
6.33258e-06
-0.0114865
5.66713e-06
-0.01204
4.97126e-06
-0.012602
3.63762e-06
-0.0131518
2.16395e-06
-0.000280855
-0.000842576
4.19218e-08
-0.00140428
1.67381e-07
-0.00196596
3.73837e-07
-0.00252755
6.57887e-07
-0.00308907
1.01176e-06
-0.00365045
1.4309e-06
-0.00421171
1.90132e-06
-0.00477278
2.41699e-06
-0.00533367
2.95892e-06
-0.00589434
3.51784e-06
-0.00645474
4.07207e-06
-0.00701495
4.60517e-06
-0.00757471
5.09966e-06
-0.00813448
5.52136e-06
-0.00869336
5.87262e-06
-0.00925281
6.0775e-06
-0.00981043
6.19239e-06
-0.0103699
6.05153e-06
-0.0109256
5.82785e-06
-0.0114859
5.15207e-06
-0.0120387
4.60998e-06
-0.0126006
3.33435e-06
-0.0131497
1.98638e-06
-0.000280897
-0.000842703
3.78848e-08
-0.00140449
1.51254e-07
-0.00196624
3.37873e-07
-0.00252791
5.94676e-07
-0.0030895
9.14664e-07
-0.00365093
1.29401e-06
-0.00421224
1.71983e-06
-0.00477334
2.18695e-06
-0.00533424
2.67848e-06
-0.00589491
3.18495e-06
-0.00645528
3.68917e-06
-0.00701546
4.17141e-06
-0.00757515
4.62406e-06
-0.00813484
5.00293e-06
-0.00869359
5.3303e-06
-0.00925295
5.50808e-06
-0.00981031
5.63222e-06
-0.0103697
5.48711e-06
-0.010925
5.33853e-06
-0.0114854
5.01064e-06
-0.0120374
4.10495e-06
-0.0125993
3.02417e-06
-0.0131477
1.79496e-06
-0.000280936
-0.000842819
3.36028e-08
-0.00140468
1.34131e-07
-0.0019665
2.99581e-07
-0.00252823
5.27374e-07
-0.00308988
8.1103e-07
-0.00365136
1.14797e-06
-0.00421271
1.52606e-06
-0.00477384
1.94129e-06
-0.00533475
2.37902e-06
-0.00589543
2.82921e-06
-0.00645578
3.28079e-06
-0.00701593
3.70838e-06
-0.00757554
4.11836e-06
-0.00813519
4.4498e-06
-0.00869379
4.7554e-06
-0.0092531
4.89945e-06
-0.00981019
5.03778e-06
-0.0103696
4.8808e-06
-0.0109244
4.82558e-06
-0.0114848
4.35488e-06
-0.0120364
3.67225e-06
-0.0125981
2.72794e-06
-0.013146
1.61242e-06
-0.00028097
-0.000842921
2.90782e-08
-0.00140484
1.15999e-07
-0.00196674
2.59003e-07
-0.00252852
4.55925e-07
-0.00309023
7.01027e-07
-0.00365175
9.9294e-07
-0.00421314
1.32058e-06
-0.00477429
1.68064e-06
-0.00533522
2.06122e-06
-0.00589589
2.45084e-06
-0.00645622
2.84761e-06
-0.00701636
3.21582e-06
-0.00757589
3.58457e-06
-0.00813551
3.8615e-06
-0.00869395
4.15432e-06
-0.00925326
4.25644e-06
-0.00981006
4.42565e-06
-0.0103696
4.27607e-06
-0.0109239
4.1424e-06
-0.0114842
3.75991e-06
-0.0120355
3.20776e-06
-0.012597
2.39574e-06
-0.0131444
1.41538e-06
-0.000281
-0.00084301
2.42877e-08
-0.00140499
9.69472e-08
-0.00196694
2.16397e-07
-0.00252877
3.81054e-07
-0.00309053
5.8564e-07
-0.00365209
8.30382e-07
-0.00421351
1.10496e-06
-0.00477468