/*--------------------------------*- C++ -*----------------------------------*\
  =========                 |
  \\      /  F ield         | OpenFOAM: The Open Source CFD Toolbox
   \\    /   O peration     | Website:  https://openfoam.org
    \\  /    A nd           | Version:  10
     \\/     M anipulation  |
\*---------------------------------------------------------------------------*/
FoamFile
{
    format      ascii;
    class       volScalarField;
    location    "0.11";
    object      T;
}
// * * * * * * * * * * * * * * * * * * * * * * * * * * * * * * * * * * * * * //

dimensions      [0 0 0 1 0 0 0];

internalField   nonuniform List<scalar> 
4176
(
180.927
180.933
180.949
180.968
181
181.031
181.081
181.122
181.19
181.24
181.327
181.387
181.49
181.561
181.676
181.766
181.882
182.004
182.108
182.275
182.35
182.582
182.595
182.896
180.925
180.932
180.947
180.967
180.999
181.031
181.081
181.124
181.195
181.247
181.336
181.399
181.506
181.58
181.697
181.789
181.908
182.033
182.139
182.31
182.385
182.627
182.644
182.974
180.935
180.942
180.957
180.977
181.008
181.041
181.089
181.132
181.197
181.249
181.335
181.396
181.5
181.572
181.689
181.777
181.895
182.016
182.12
182.286
182.357
182.595
182.611
182.953
180.969
180.976
180.991
181.01
181.041
181.072
181.12
181.162
181.231
181.283
181.368
181.428
181.531
181.602
181.72
181.808
181.927
182.05
182.149
182.32
182.388
182.622
182.637
182.962
181.029
181.036
181.051
181.071
181.102
181.134
181.182
181.224
181.287
181.338
181.424
181.484
181.587
181.657
181.774
181.86
181.98
182.101
182.198
182.37
182.437
182.669
182.684
182.999
181.11
181.117
181.132
181.151
181.181
181.212
181.259
181.3
181.367
181.418
181.501
181.56
181.661
181.73
181.847
181.931
182.053
182.168
182.271
182.438
182.507
182.736
182.754
183.069
181.22
181.227
181.242
181.261
181.291
181.323
181.37
181.411
181.473
181.524
181.607
181.666
181.767
181.836
181.951
182.033
182.156
182.266
182.373
182.534
182.606
182.831
182.851
183.164
181.35
181.357
181.371
181.39
181.419
181.449
181.495
181.536
181.601
181.651
181.731
181.789
181.888
181.956
182.07
182.15
182.273
182.379
182.489
182.644
182.718
182.94
182.961
183.27
181.509
181.516
181.53
181.549
181.578
181.609
181.655
181.695
181.756
181.805
181.886
181.944
182.042
182.109
182.222
182.301
182.423
182.525
182.637
182.787
182.863
183.08
183.103
183.407
181.687
181.694
181.708
181.726
181.755
181.784
181.828
181.868
181.931
181.98
182.058
182.114
182.21
182.276
182.387
182.465
182.586
182.684
182.797
182.942
183.02
183.232
183.256
183.555
181.894
181.901
181.915
181.934
181.962
181.992
182.036
182.075
182.134
182.182
182.261
182.317
182.412
182.476
182.587
182.662
182.782
182.877
182.991
183.13
183.21
183.416
183.442
183.736
182.121
182.128
182.141
182.159
182.187
182.215
182.258
182.297
182.358
182.405
182.48
182.534
182.628
182.69
182.799
182.872
182.991
183.084
183.197
183.331
183.412
183.613
183.639
183.928
182.377
182.384
182.397
182.415
182.443
182.472
182.514
182.551
182.609
182.655
182.731
182.785
182.877
182.938
183.045
183.116
183.234
183.323
183.437
183.566
183.648
183.842
183.869
184.152
182.652
182.659
182.672
182.689
182.716
182.743
182.784
182.822
182.88
182.925
182.997
183.049
183.139
183.199
183.304
183.373
183.489
183.575
183.688
183.812
183.895
184.083
184.111
184.387
182.955
182.962
182.975
182.993
183.019
183.047
183.088
183.123
183.179
183.222
183.296
183.347
183.436
183.493
183.597
183.664
183.778
183.861
183.973
184.092
184.175
184.358
184.385
184.655
183.279
183.286
183.298
183.315
183.34
183.366
183.406
183.442
183.497
183.539
183.609
183.658
183.745
183.801
183.902
183.967
184.079
184.159
184.27
184.384
184.467
184.644
184.671
184.934
183.631
183.638
183.65
183.666
183.692
183.718
183.757
183.79
183.844
183.885
183.955
184.003
184.088
184.142
184.241
184.304
184.413
184.491
184.6
184.709
184.792
184.962
184.99
185.246
184.003
184.009
184.021
184.037
184.061
184.085
184.124
184.157
184.209
184.249
184.315
184.361
184.444
184.496
184.593
184.653
184.76
184.835
184.942
185.046
185.129
185.292
185.32
185.57
184.402
184.409
184.421
184.436
184.46
184.485
184.521
184.552
184.604
184.642
184.709
184.753
184.834
184.884
184.978
185.036
185.141
185.212
185.317
185.416
185.499
185.656
185.684
185.926
184.822
184.829
184.84
184.855
184.878
184.9
184.937
184.968
185.017
185.053
185.116
185.158
185.236
185.284
185.376
185.431
185.533
185.601
185.705
185.798
185.88
186.03
186.059
186.293
185.27
185.277
185.288
185.302
185.325
185.348
185.381
185.41
185.459
185.494
185.557
185.597
185.673
185.718
185.808
185.86
185.959
186.024
186.125
186.214
186.295
186.438
186.466
186.693
185.738
185.745
185.755
185.769
185.79
185.811
185.845
185.873
185.918
185.952
186.011
186.048
186.122
186.165
186.252
186.301
186.397
186.458
186.556
186.641
186.72
186.857
186.885
187.105
186.234
186.24
186.25
186.264
186.285
186.306
186.337
186.363
186.408
186.44
186.498
186.534
186.605
186.645
186.729
186.775
186.869
186.926
187.021
187.101
187.179
187.309
187.337
187.548
186.75
186.756
186.766
186.778
186.797
186.816
186.848
186.873
186.915
186.944
186.999
187.032
187.101
187.138
187.219
187.262
187.353
187.406
187.498
187.573
187.65
187.773
187.8
188.003
187.293
187.299
187.308
187.321
187.339
187.358
187.386
187.41
187.451
187.479
187.533
187.564
187.63
187.665
187.743
187.783
187.87
187.92
188.008
188.079
188.153
188.269
188.295
188.491
187.856
187.862
187.871
187.882
187.899
187.916
187.945
187.966
188.004
188.03
188.08
188.109
188.172
188.204
188.279
188.315
188.399
188.445
188.531
188.596
188.668
188.777
188.802
188.989
188.446
188.452
188.46
188.471
188.488
188.505
188.53
188.55
188.588
188.612
188.661
188.687
188.747
188.776
188.848
188.881
188.962
189.004
189.086
189.147
189.216
189.318
189.342
189.521
189.056
189.062
189.069
189.079
189.095
189.109
189.135
189.153
189.187
189.208
189.254
189.278
189.335
189.361
189.43
189.46
189.536
189.575
189.653
189.709
189.775
189.871
189.893
190.063
189.692
189.698
189.705
189.715
189.73
189.744
189.767
189.783
189.818
189.837
189.881
189.902
189.956
189.979
190.044
190.071
190.144
190.179
190.253
190.305
190.368
190.456
190.477
190.639
190.348
190.353
190.36
190.369
190.383
190.395
190.417
190.432
190.462
190.479
190.52
190.538
190.59
190.61
190.672
190.694
190.764
190.794
190.865
190.912
190.972
191.053
191.072
191.226
191.029
191.035
191.041
191.05
191.063
191.074
191.095
191.108
191.138
191.153
191.192
191.208
191.257
191.273
191.332
191.351
191.417
191.443
191.51
191.552
191.609
191.683
191.701
191.845
191.731
191.736
191.742
191.749
191.761
191.771
191.79
191.802
191.828
191.84
191.877
191.89
191.936
191.949
192.004
192.02
192.082
192.104
192.167
192.204
192.257
192.324
192.341
192.476
192.457
192.462
192.468
192.475
192.486
192.495
192.513
192.523
192.549
192.56
192.594
192.604
192.647
192.657
192.71
192.721
192.78
192.798
192.857
192.889
192.938
192.999
193.014
193.14
193.203
193.208
193.213
193.218
193.228
193.236
193.252
193.26
193.283
193.291
193.323
193.33
193.371
193.378
193.427
193.435
193.49
193.503
193.558
193.585
193.63
193.685
193.699
193.815
193.973
193.978
193.982
193.988
193.997
194.004
194.019
194.026
194.048
194.055
194.084
194.089
194.127
194.131
194.176
194.181
194.232
194.241
194.293
194.315
194.356
194.405
194.416
194.523
194.762
194.767
194.771
194.775
194.783
194.789
194.802
194.807
194.826
194.83
194.857
194.859
194.894
194.895
194.938
194.938
194.986
194.991
195.039
195.056
195.093
195.136
195.144
195.243
195.575
195.58
195.584
195.588
195.596
195.6
195.613
195.616
195.635
195.637
195.661
195.661
195.694
195.691
195.731
195.728
195.773
195.773
195.818
195.83
195.863
195.9
195.905
195.994
196.407
196.411
196.415
196.418
196.424
196.428
196.438
196.44
196.455
196.455
196.478
196.475
196.504
196.499
196.536
196.529
196.57
196.567
196.607
196.615
196.645
196.675
196.677
196.757
197.262
197.267
197.27
197.273
197.279
197.281
197.291
197.292
197.307
197.305
197.325
197.32
197.347
197.338
197.372
197.362
197.4
197.392
197.429
197.431
197.458
197.483
197.482
197.553
198.136
198.14
198.143
198.145
198.149
198.151
198.158
198.157
198.169
198.166
198.183
198.176
198.2
198.189
198.219
198.205
198.24
198.228
198.262
198.259
198.282
198.301
198.298
198.36
199.033
199.037
199.039
199.042
199.046
199.046
199.053
199.052
199.063
199.057
199.073
199.063
199.085
199.07
199.098
199.081
199.112
199.096
199.126
199.118
199.138
199.151
199.145
199.199
199.947
199.951
199.953
199.954
199.957
199.957
199.961
199.958
199.966
199.959
199.973
199.961
199.98
199.963
199.988
199.966
199.995
199.974
200.002
199.988
200.005
200.011
200.002
200.049
200.885
200.889
200.891
200.892
200.894
200.893
200.898
200.893
200.9
200.891
200.903
200.888
200.905
200.885
200.908
200.883
200.909
200.883
200.908
200.889
200.903
200.903
200.891
200.93
201.839
201.843
201.844
201.844
201.845
201.843
201.845
201.839
201.844
201.834
201.843
201.826
201.841
201.818
201.838
201.809
201.833
201.803
201.825
201.801
201.812
201.805
201.791
201.822
202.817
202.821
202.822
202.822
202.823
202.819
202.822
202.814
202.818
202.806
202.813
202.794
202.806
202.781
202.798
202.766
202.787
202.753
202.772
202.743
202.752
202.738
202.722
202.745
203.81
203.814
203.814
203.813
203.813
203.809
203.808
203.8
203.802
203.787
203.793
203.772
203.781
203.753
203.767
203.732
203.75
203.712
203.729
203.694
203.701
203.681
203.664
203.677
204.827
204.83
204.831
204.83
204.829
204.824
204.823
204.814
204.814
204.798
204.802
204.778
204.786
204.754
204.766
204.728
204.743
204.701
204.716
204.675
204.681
204.653
204.636
204.64
205.857
205.861
205.86
205.859
205.856
205.851
205.848
205.837
205.836
205.818
205.819
205.794
205.799
205.765
205.775
205.733
205.746
205.699
205.711
205.665
205.669
205.635
205.617
205.612
206.911
206.915
206.914
206.912
206.91
206.904
206.9
206.888
206.885
206.866
206.866
206.838
206.841
206.804
206.811
206.766
206.777
206.725
206.736
206.684
206.688
206.645
206.628
206.614
207.978
207.981
207.98
207.978
207.974
207.966
207.961
207.948
207.943
207.922
207.92
207.89
207.891
207.852
207.857
207.808
207.816
207.76
207.77
207.712
207.715
207.664
207.648
207.625
209.068
209.071
209.07
209.067
209.063
209.055
209.049
209.034
209.029
209.006
209.002
208.97
208.969
208.927
208.93
208.877
208.884
208.823
208.832
208.768
208.77
208.712
208.696
208.665
210.168
210.171
210.169
210.166
210.161
210.152
210.145
210.128
210.121
210.097
210.091
210.057
210.054
210.009
210.01
209.954
209.96
209.894
209.902
209.831
209.835
209.768
209.751
209.712
211.291
211.294
211.292
211.289
211.283
211.274
211.266
211.249
211.24
211.214
211.207
211.171
211.166
211.118
211.118
211.058
211.063
210.992
211
210.921
210.926
210.852
210.835
210.789
212.423
212.426
212.424
212.419
212.413
212.402
212.393
212.375
212.365
212.338
212.329
212.291
212.285
212.234
212.233
212.168
212.173
212.096
212.105
212.02
212.023
211.944
211.926
211.872
213.577
213.58
213.577
213.573
213.566
213.555
213.545
213.526
213.515
213.486
213.476
213.436
213.429
213.375
213.374
213.304
213.31
213.226
213.236
213.145
213.148
213.063
213.044
212.984
214.737
214.74
214.737
214.732
214.725
214.713
214.702
214.682
214.67
214.639
214.629
214.586
214.579
214.521
214.52
214.446
214.452
214.364
214.371
214.278
214.278
214.189
214.169
214.102
215.919
215.922
215.919
215.914
215.906
215.894
215.882
215.861
215.849
215.816
215.806
215.759
215.754
215.691
215.691
215.613
215.618
215.527
215.533
215.436
215.434
215.341
215.32
215.246
217.105
217.108
217.104
217.1
217.09
217.078
217.066
217.044
217.031
216.996
216.987
216.937
216.932
216.866
216.865
216.785
216.788
216.695
216.699
216.599
216.596
216.498
216.476
216.397
218.311
218.315
218.311
218.306
218.296
218.285
218.271
218.248
218.236
218.199
218.189
218.138
218.132
218.065
218.063
217.981
217.982
217.887
217.889
217.786
217.782
217.68
217.657
217.573
219.521
219.524
219.52
219.515
219.505
219.493
219.478
219.456
219.442
219.405
219.394
219.342
219.334
219.267
219.263
219.18
219.179
219.082
219.083
218.978
218.972
218.867
218.843
218.753
220.749
220.752
220.748
220.743
220.733
220.721
220.706
220.684
220.668
220.632
220.619
220.567
220.558
220.49
220.484
220.401
220.398
220.301
220.299
220.192
220.185
220.077
220.053
219.957
221.979
221.982
221.978
221.973
221.962
221.95
221.934
221.913
221.895
221.861
221.845
221.794
221.783
221.715
221.708
221.624
221.62
221.521
221.518
221.409
221.4
221.29
221.265
221.166
223.227
223.23
223.226
223.221
223.211
223.198
223.182
223.161
223.142
223.109
223.091
223.041
223.028
222.96
222.952
222.867
222.862
222.762
222.758
222.647
222.638
222.524
222.499
222.395
224.475
224.479
224.474
224.469
224.459
224.446
224.43
224.409
224.389
224.356
224.337
224.288
224.273
224.206
224.196
224.111
224.104
224.004
223.998
223.886
223.876
223.76
223.735
223.628
225.741
225.744
225.74
225.735
225.724
225.712
225.695
225.675
225.654
225.622
225.601
225.553
225.537
225.47
225.459
225.373
225.366
225.264
225.258
225.145
225.134
225.016
224.99
224.879
227.006
227.01
227.006
227.001
226.99
226.977
226.96
226.94
226.918
226.887
226.865
226.818
226.799
226.733
226.721
226.635
226.626
226.524
226.517
226.403
226.391
226.271
226.246
226.132
228.289
228.292
228.288
228.283
228.272
228.26
228.242
228.222
228.2
228.169
228.145
228.099
228.079
228.013
228
227.913
227.904
227.801
227.793
227.678
227.665
227.545
227.519
227.402
229.57
229.574
229.569
229.564
229.553
229.541
229.523
229.502
229.479
229.449
229.424
229.378
229.357
229.291
229.276
229.189
229.179
229.076
229.067
228.951
228.938
228.816
228.79
228.672
230.868
230.871
230.867
230.862
230.85
230.837
230.819
230.798
230.775
230.744
230.717
230.672
230.649
230.584
230.568
230.48
230.47
230.366
230.356
230.24
230.226
230.103
230.077
229.956
232.163
232.167
232.163
232.157
232.145
232.132
232.113
232.092
232.067
232.036
232.008
231.963
231.938
231.873
231.855
231.768
231.757
231.652
231.642
231.525
231.51
231.387
231.361
231.239
233.473
233.477
233.472
233.466
233.454
233.44
233.42
233.398
233.373
233.341
233.312
233.268
233.24
233.177
233.156
233.07
233.057
232.952
232.941
232.824
232.809
232.685
232.659
232.535
234.778
234.781
234.776
234.77
234.757
234.743
234.723
234.7
234.674
234.642
234.611
234.567
234.537
234.475
234.451
234.368
234.353
234.247
234.236
234.119
234.103
233.98
233.953
233.831
236.091
236.094
236.089
236.083
236.07
236.055
236.035
236.012
235.985
235.953
235.921
235.878
235.845
235.786
235.759
235.678
235.659
235.557
235.544
235.428
235.412
235.288
235.262
235.137
237.393
237.397
237.392
237.386
237.373
237.358
237.338
237.315
237.288
237.256
237.224
237.182
237.148
237.09
237.06
236.982
236.961
236.861
236.847
236.731
236.715
236.592
236.567
236.444
238.698
238.701
238.697
238.691
238.679
238.665
238.646
238.624
238.598
238.567
238.536
238.494
238.461
238.405
238.374
238.299
238.275
238.179
238.163
238.049
238.033
237.911
237.886
237.762
239.987
239.991
239.987
239.982
239.971
239.959
239.941
239.92
239.897
239.867
239.838
239.799
239.766
239.713
239.682
239.611
239.585
239.493
239.475
239.363
239.347
239.226
239.202
239.08
241.275
241.279
241.277
241.273
241.264
241.253
241.238
241.22
241.198
241.172
241.145
241.11
241.08
241.03
241.001
240.933
240.908
240.82
240.801
240.692
240.677
240.556
240.533
240.409
242.551
242.555
242.553
242.551
242.543
242.535
242.522
242.507
242.488
242.466
242.442
242.411
242.384
242.338
242.312
242.249
242.226
242.142
242.124
242.019
242.004
241.884
241.863
241.74
243.834
243.839
243.838
243.836
243.83
243.824
243.813
243.801
243.785
243.766
243.745
243.718
243.694
243.654
243.632
243.573
243.554
243.474
243.46
243.358
243.348
243.228
243.209
243.083
245.119
245.125
245.124
245.124
245.118
245.114
245.102
245.093
245.078
245.062
245.043
245.019
244.998
244.961
244.944
244.886
244.876
244.794
244.791
244.688
244.686
244.569
244.553
244.433
246.433
246.439
246.437
246.437
246.431
246.426
246.415
246.406
246.391
246.376
246.357
246.334
246.314
246.28
246.265
246.207
246.205
246.121
246.127
246.025
246.03
245.916
245.907
245.793
247.772
247.777
247.776
247.774
247.768
247.761
247.749
247.737
247.72
247.702
247.682
247.658
247.635
247.602
247.582
247.529
247.523
247.444
247.45
247.349
247.359
247.246
247.244
247.138
249.16
249.165
249.162
249.159
249.151
249.141
249.126
249.11
249.09
249.067
249.043
249.014
248.987
248.95
248.924
248.872
248.857
248.78
248.782
248.68
248.693
248.576
248.579
248.469
250.59
250.595
250.591
250.587
250.575
250.562
250.543
250.522
250.497
250.468
250.437
250.401
250.366
250.322
250.287
250.229
250.204
250.124
250.118
250.009
250.02
249.896
249.901
249.787
252.077
252.082
252.076
252.07
252.055
252.04
252.016
251.991
251.959
251.926
251.885
251.843
251.797
251.745
251.698
251.63
251.594
251.501
251.486
251.364
251.37
251.231
251.237
251.105
253.605
253.611
253.604
253.596
253.579
253.561
253.533
253.504
253.467
253.427
253.38
253.33
253.275
253.213
253.154
253.076
253.023
252.917
252.887
252.748
252.741
252.582
252.583
252.432
255.18
255.184
255.178
255.168
255.151
255.13
255.101
255.068
255.028
254.983
254.932
254.875
254.814
254.744
254.674
254.59
254.517
254.408
254.349
254.203
254.171
253.989
253.975
253.784
256.779
256.783
256.777
256.767
256.749
256.726
256.696
256.662
256.62
256.573
256.519
256.459
256.394
256.319
256.244
256.153
256.069
255.957
255.873
255.729
255.661
255.468
255.429
255.197
258.401
258.405
258.399
258.389
258.371
258.349
258.319
258.284
258.243
258.195
258.141
258.081
258.015
257.939
257.862
257.77
257.683
257.57
257.476
257.335
257.243
257.055
256.989
256.717
260.024
260.029
260.023
260.013
259.996
259.975
259.946
259.912
259.871
259.825
259.772
259.713
259.649
259.576
259.499
259.41
259.323
259.214
259.12
258.983
258.891
258.708
258.639
258.374
261.647
261.651
261.646
261.638
261.621
261.601
261.574
261.542
261.503
261.46
261.409
261.354
261.292
261.223
261.15
261.066
260.983
260.88
260.792
260.66
260.578
260.401
260.343
260.097
263.25
263.255
263.251
263.243
263.228
263.21
263.184
263.155
263.118
263.078
263.03
262.978
262.92
262.856
262.787
262.709
262.63
262.535
262.453
262.33
262.256
262.09
262.037
261.817
264.835
264.84
264.836
264.829
264.815
264.799
264.775
264.749
264.715
264.679
264.634
264.587
264.532
264.474
264.41
264.339
264.266
264.179
264.102
263.99
263.922
263.77
263.721
263.514
266.386
266.392
266.388
266.383
266.37
266.356
266.333
266.31
266.277
266.246
266.203
266.163
266.11
266.059
265.998
265.935
265.866
265.789
265.717
265.615
265.552
265.415
265.369
265.186
267.905
267.911
267.907
267.905
267.892
267.881
267.859
267.84
267.809
267.783
267.742
267.708
267.657
267.615
267.556
267.502
267.437
267.369
267.303
267.211
267.153
267.03
266.987
266.816
269.383
269.389
269.386
269.384
269.372
269.363
269.343
269.327
269.298
269.275
269.237
269.208
269.161
269.125
269.069
269.023
268.962
268.903
268.841
268.759
268.706
268.596
268.556
268.409
270.82
270.827
270.825
270.823
270.814
270.805
270.788
270.773
270.749
270.728
270.695
270.669
270.627
270.594
270.545
270.505
270.449
270.398
270.34
270.27
270.219
270.124
270.086
269.95
272.211
272.218
272.217
272.215
272.208
272.2
272.186
272.172
272.151
272.132
272.104
272.079
272.043
272.013
271.969
271.934
271.883
271.839
271.785
271.727
271.679
271.596
271.56
271.447
273.559
273.565
273.564
273.563
273.557
273.551
273.539
273.527
273.509
273.493
273.468
273.447
273.415
273.389
273.351
273.32
273.275
273.238
273.188
273.141
273.094
273.025
272.99
272.887
274.857
274.863
274.863
274.863
274.858
274.852
274.842
274.832
274.817
274.802
274.781
274.762
274.735
274.712
274.678
274.652
274.612
274.58
274.535
274.496
274.452
274.395
274.361
274.28
276.109
276.115
276.115
276.115
276.111
276.107
276.099
276.091
276.078
276.066
276.047
276.032
276.008
275.99
275.96
275.939
275.903
275.878
275.837
275.806
275.764
275.719
275.687
275.613
277.311
277.318
277.318
277.319
277.316
277.313
277.306
277.299
277.288
277.278
277.263
277.25
277.229
277.214
277.188
277.17
277.139
277.118
277.082
277.057
277.019
276.984
276.954
276.899
278.467
278.473
278.474
278.475
278.473
278.471
278.466
278.461
278.452
278.445
278.431
278.422
278.404
278.392
278.369
278.356
278.329
278.314
278.281
278.263
278.228
278.203
278.174
278.125
279.575
279.581
279.582
279.584
279.582
279.581
279.577
279.573
279.566
279.56
279.549
279.542
279.526
279.518
279.498
279.488
279.464
279.453
279.425
279.412
279.381
279.363
279.335
279.303
280.636
280.642
280.643
280.645
280.645
280.645
280.641
280.639
280.633
280.63
280.621
280.616
280.603
280.598
280.581
280.575
280.554
280.548
280.523
280.516
280.488
280.478
280.45
280.424
281.651
281.657
281.658
281.661
281.661
281.661
281.659
281.658
281.653
281.651
281.644
281.641
281.631
281.627
281.614
281.61
281.592
281.589
281.568
281.565
281.54
281.535
281.51
281.498
282.621
282.626
282.628
282.631
282.631
282.633
282.631
282.632
282.629
282.628
282.623
282.622
282.614
282.613
282.602
282.602
282.587
282.588
282.569
282.57
282.548
282.549
282.526
282.518
283.546
283.552
283.554
283.557
283.558
283.56
283.559
283.561
283.559
283.559
283.555
283.556
283.55
283.551
283.542
283.544
283.531
283.535
283.519
283.524
283.505
283.511
283.49
283.492
284.43
284.435
284.437
284.44
284.441
284.444
284.444
284.446
284.446
284.448
284.445
284.448
284.443
284.447
284.44
284.445
284.434
284.441
284.428
284.437
284.42
284.43
284.411
284.417
285.271
285.276
285.278
285.282
285.283
285.286
285.287
285.29
285.29
285.293
285.292
285.296
285.293
285.298
285.293
285.299
285.291
285.3
285.289
285.301
285.286
285.301
285.284
285.297
286.073
286.077
286.079
286.083
286.085
286.088
286.09
286.094
286.095
286.099
286.099
286.104
286.102
286.109
286.106
286.114
286.108
286.12
286.11
286.126
286.113
286.131
286.115
286.132
286.834
286.839
286.841
286.845
286.847
286.851
286.853
286.858
286.859
286.864
286.865
286.871
286.871
286.879
286.877
286.887
286.883
286.896
286.888
286.906
286.894
286.916
286.902
286.924
287.56
287.564
287.566
287.57
287.573
287.577
287.579
287.584
287.587
287.592
287.594
287.601
287.602
287.611
287.611
287.623
287.62
287.635
287.629
287.649
287.639
287.663
287.649
287.676
288.249
288.253
288.255
288.259
288.262
288.266
288.269
288.274
288.277
288.284
288.286
288.294
288.296
288.306
288.307
288.319
288.318
288.334
288.33
288.351
288.343
288.37
288.358
288.387
288.903
288.907
288.909
288.913
288.916
288.921
288.924
288.93
288.933
288.94
288.944
288.952
288.955
288.966
288.968
288.982
288.981
288.999
288.996
289.019
289.012
289.041
289.029
289.062
289.525
289.529
289.531
289.535
289.538
289.543
289.546
289.552
289.556
289.563
289.567
289.577
289.58
289.592
289.594
289.609
289.61
289.629
289.627
289.651
289.645
289.675
289.665
289.699
290.114
290.118
290.12
290.124
290.127
290.132
290.136
290.142
290.146
290.154
290.159
290.169
290.173
290.185
290.189
290.205
290.206
290.226
290.225
290.25
290.245
290.277
290.267
290.304
290.675
290.678
290.68
290.684
290.687
290.692
290.696
290.703
290.707
290.715
290.72
290.731
290.735
290.748
290.752
290.768
290.771
290.792
290.791
290.817
290.813
290.846
290.838
290.875
291.204
291.207
291.21
291.213
291.217
291.222
291.226
291.233
291.238
291.247
291.252
291.263
291.268
291.282
291.286
291.303
291.306
291.328
291.328
291.355
291.352
291.386
291.377
291.417
291.709
291.711
291.714
291.717
291.721
291.726
291.73
291.737
291.742
291.751
291.756
291.767
291.773
291.787
291.792
291.809
291.813
291.835
291.836
291.864
291.861
291.896
291.888
291.929
292.185
292.188
292.19
292.194
292.197
292.202
292.207
292.214
292.219
292.228
292.234
292.246
292.252
292.266
292.272
292.289
292.294
292.316
292.318
292.346
292.344
292.379
292.372
292.414
292.637
292.64
292.642
292.645
292.649
292.654
292.659
292.665
292.671
292.68
292.686
292.697
292.704
292.718
292.724
292.742
292.747
292.77
292.772
292.801
292.799
292.836
292.829
292.872
293.067
293.069
293.071
293.075
293.078
293.083
293.088
293.095
293.101
293.11
293.116
293.128
293.135
293.149
293.156
293.174
293.179
293.201
293.205
293.233
293.232
293.268
293.262
293.305
293.47
293.472
293.475
293.478
293.482
293.487
293.491
293.498
293.504
293.513
293.52
293.532
293.539
293.553
293.56
293.579
293.584
293.608
293.611
293.64
293.639
293.676
293.67
293.714
293.858
293.86
293.862
293.865
293.869
293.874
293.879
293.886
293.892
293.901
293.907
293.919
293.926
293.941
293.948
293.966
293.972
293.994
293.998
294.027
294.027
294.063
294.058
294.101
294.218
294.22
294.222
294.225
294.229
294.234
294.239
294.246
294.252
294.261
294.268
294.28
294.287
294.302
294.309
294.328
294.334
294.358
294.361
294.391
294.391
294.427
294.422
294.466
294.567
294.568
294.57
294.574
294.577
294.582
294.587
294.594
294.6
294.609
294.615
294.627
294.634
294.649
294.656
294.674
294.681
294.703
294.708
294.736
294.737
294.773
294.768
294.811
294.89
294.892
294.894
294.897
294.901
294.906
294.91
294.917
294.924
294.933
294.94
294.951
294.959
294.974
294.981
295
295.006
295.029
295.033
295.062
295.063
295.099
295.094
295.137
295.201
295.203
295.205
295.208
295.211
295.216
295.221
295.228
295.233
295.243
295.249
295.261
295.268
295.283
295.29
295.308
295.315
295.338
295.342
295.37
295.371
295.407
295.403
295.445
295.493
295.495
295.496
295.5
295.503
295.508
295.513
295.52
295.525
295.535
295.541
295.553
295.56
295.575
295.582
295.601
295.607
295.63
295.634
295.662
295.663
295.699
295.695
295.736
295.77
295.772
295.773
295.777
295.78
295.785
295.789
295.796
295.802
295.811
295.818
295.83
295.837
295.851
295.859
295.877
295.884
295.906
295.911
295.939
295.94
295.975
295.971
296.012
296.033
296.034
296.036
296.039
296.042
296.047
296.051
296.058
296.064
296.073
296.08
296.091
296.098
296.113
296.12
296.138
296.144
296.167
296.171
296.199
296.2
296.235
296.232
296.272
296.281
296.282
296.284
296.287
296.29
296.295
296.3
296.306
296.312
296.321
296.328
296.339
296.347
296.361
296.368
296.386
296.393
296.415
296.419
296.447
296.448
296.483
296.479
296.519
296.516
296.517
296.519
296.522
296.525
296.53
296.534
296.541
296.546
296.555
296.562
296.573
296.58
296.594
296.601
296.619
296.626
296.647
296.652
296.679
296.681
296.714
296.712
296.751
296.739
296.74
296.742
296.744
296.748
296.752
296.757
296.763
296.769
296.778
296.784
296.796
296.803
296.817
296.824
296.841
296.848
296.869
296.874
296.901
296.903
296.936
296.933
296.972
296.949
296.95
296.952
296.955
296.958
296.962
296.967
296.973
296.979
296.987
296.994
297.005
297.012
297.026
297.033
297.05
297.056
297.078
297.082
297.109
297.111
297.143
297.141
297.179
297.149
297.15
297.151
297.154
297.157
297.162
297.166
297.172
297.178
297.186
297.193
297.204
297.21
297.224
297.231
297.249
297.255
297.276
297.28
297.307
297.309
297.341
297.338
297.376
297.337
297.338
297.34
297.343
297.345
297.35
297.354
297.361
297.366
297.375
297.38
297.392
297.398
297.412
297.419
297.436
297.442
297.463
297.467
297.493
297.495
297.527
297.524
297.561
297.516
297.517
297.518
297.521
297.523
297.528
297.532
297.539
297.543
297.552
297.558
297.569
297.575
297.589
297.595
297.613
297.618
297.639
297.643
297.67
297.671
297.702
297.7
297.736
297.685
297.686
297.687
297.69
297.693
297.697
297.701
297.707
297.712
297.721
297.726
297.738
297.744
297.758
297.763
297.781
297.786
297.807
297.811
297.837
297.838
297.868
297.866
297.902
297.844
297.845
297.846
297.849
297.851
297.856
297.86
297.866
297.871
297.88
297.885
297.896
297.902
297.916
297.921
297.939
297.943
297.964
297.968
297.994
297.994
298.025
298.022
298.057
297.996
297.997
297.998
298
298.003
298.007
298.011
298.018
298.022
298.031
298.036
298.047
298.052
298.066
298.072
298.089
298.093
298.115
298.117
298.143
298.144
298.174
298.171
298.205
298.138
298.138
298.14
298.142
298.145
298.149
298.153
298.159
298.163
298.172
298.177
298.188
298.193
298.207
298.212
298.23
298.234
298.255
298.257
298.283
298.283
298.313
298.31
298.344
298.273
298.274
298.275
298.278
298.28
298.285
298.288
298.295
298.299
298.308
298.312
298.323
298.328
298.342
298.347
298.364
298.368
298.389
298.391
298.417
298.417
298.446
298.443
298.477
298.4
298.401
298.402
298.404
298.407
298.411
298.414
298.421
298.425
298.434
298.438
298.449
298.453
298.468
298.472
298.49
298.493
298.514
298.516
298.541
298.541
298.57
298.567
298.6
298.521
298.522
298.523
298.526
298.528
298.532
298.535
298.542
298.545
298.554
298.558
298.57
298.574
298.588
298.592
298.61
298.612
298.634
298.635
298.661
298.66
298.689
298.686
298.718
298.633
298.634
298.635
298.638
298.64
298.645
298.647
298.654
298.657
298.667
298.67
298.682
298.685
298.7
298.703
298.721
298.724
298.745
298.746
298.771
298.77
298.799
298.796
298.828
298.742
298.742
298.743
298.746
298.748
298.753
298.755
298.762
298.765
298.774
298.777
298.79
298.793
298.807
298.81
298.828
298.831
298.851
298.853
298.877
298.876
298.904
298.902
298.933
298.841
298.842
298.843
298.846
298.847
298.852
298.854
298.862
298.864
298.874
298.877
298.889
298.892
298.906
298.909
298.927
298.929
298.95
298.951
298.975
298.974
299.002
299
299.03
298.938
298.938
298.939
298.942
298.944
298.948
298.951
298.958
298.96
298.97
298.972
298.984
298.987
299.002
299.005
299.022
299.024
299.045
299.046
299.069
299.069
299.096
299.094
299.123
299.026
299.026
299.027
299.03
299.032
299.036
299.038
299.045
299.048
299.057
299.06
299.072
299.075
299.089
299.092
299.109
299.111
299.131
299.132
299.155
299.155
299.182
299.18
299.208
299.111
299.112
299.113
299.115
299.117
299.122
299.124
299.131
299.133
299.142
299.145
299.157
299.159
299.174
299.176
299.193
299.195
299.215
299.216
299.239
299.239
299.265
299.263
299.291
299.189
299.19
299.19
299.193
299.195
299.199
299.201
299.208
299.21
299.219
299.222
299.234
299.236
299.25
299.253
299.269
299.271
299.291
299.292
299.315
299.315
299.34
299.339
299.366
299.264
299.265
299.266
299.268
299.27
299.274
299.277
299.283
299.286
299.295
299.297
299.308
299.311
299.325
299.327
299.344
299.346
299.365
299.366
299.388
299.388
299.414
299.412
299.439
299.332
299.333
299.334
299.336
299.338
299.342
299.345
299.351
299.353
299.362
299.364
299.376
299.378
299.392
299.394
299.41
299.412
299.431
299.432
299.454
299.454
299.48