/*--------------------------------*- C++ -*----------------------------------*\
  =========                 |
  \\      /  F ield         | OpenFOAM: The Open Source CFD Toolbox
   \\    /   O peration     | Website:  https://openfoam.org
    \\  /    A nd           | Version:  10
     \\/     M anipulation  |
\*---------------------------------------------------------------------------*/
FoamFile
{
    format      ascii;
    class       volVectorField;
    location    "0.11";
    object      U;
}
// * * * * * * * * * * * * * * * * * * * * * * * * * * * * * * * * * * * * * //

dimensions      [0 1 -1 0 0 0 0];

internalField   nonuniform List<vector> 
4176
(
(496.959 -0.0157137 -1.61575e-09)
(496.95 0.0653824 4.71228e-10)
(496.919 -0.00181562 -6.8058e-11)
(496.881 0.0922548 7.73484e-12)
(496.815 0.0465794 4.77744e-11)
(496.753 0.0911142 -3.35169e-11)
(496.65 0.120269 -1.14356e-10)
(496.567 0.061707 -5.65737e-11)
(496.428 0.218773 1.48495e-11)
(496.325 0.00615163 4.4752e-11)
(496.149 0.337466 -7.33142e-12)
(496.027 -0.0670135 4.02932e-11)
(495.817 0.462235 9.36518e-11)
(495.67 -0.136684 2.60973e-11)
(495.436 0.559558 -3.6252e-11)
(495.253 -0.131318 -1.4954e-11)
(495.017 0.519938 -4.93935e-11)
(494.768 0.0284359 -6.15867e-11)
(494.555 0.326646 7.36213e-11)
(494.213 0.327817 9.74723e-11)
(494.06 -0.0240065 -1.02888e-11)
(493.583 0.776583 -5.32186e-11)
(493.553 -0.522322 4.94104e-12)
(492.933 1.44702 2.43245e-11)
(496.943 0.00347088 -1.61622e-09)
(496.934 0.116168 4.71894e-10)
(496.903 0.0734644 -6.8491e-11)
(496.862 0.205182 7.10047e-12)
(496.796 0.182267 4.81881e-11)
(496.731 0.265997 -3.33136e-11)
(496.628 0.316467 -1.15585e-10)
(496.541 0.296354 -5.6928e-11)
(496.4 0.47526 1.52778e-11)
(496.293 0.298614 4.50291e-11)
(496.114 0.654943 -7.7712e-12)
(495.987 0.279663 4.06119e-11)
(495.773 0.841896 9.2604e-11)
(495.622 0.260874 2.64171e-11)
(495.381 1.00393 -3.61106e-11)
(495.194 0.306218 -1.45933e-11)
(494.952 1.03304 -5.08381e-11)
(494.698 0.515086 -6.19857e-11)
(494.479 0.905587 7.27586e-11)
(494.13 0.859397 9.7268e-11)
(493.976 0.62072 -1.02344e-11)
(493.478 1.33473 -5.56275e-11)
(493.443 0.118161 5.7061e-12)
(492.759 1.99638 2.38574e-11)
(496.918 0.0217173 -1.61983e-09)
(496.909 0.162689 4.70982e-10)
(496.879 0.144427 -7.04067e-11)
(496.839 0.309334 8.17715e-12)
(496.775 0.309626 4.82988e-11)
(496.711 0.428142 -3.40911e-11)
(496.612 0.500796 -1.13618e-10)
(496.525 0.516501 -5.57503e-11)
(496.389 0.716898 1.69098e-11)
(496.283 0.573786 4.53457e-11)
(496.108 0.953083 -8.68611e-12)
(495.983 0.607273 4.02132e-11)
(495.773 1.19799 9.48713e-11)
(495.626 0.636489 2.6876e-11)
(495.388 1.42022 -3.63299e-11)
(495.208 0.717722 -1.3515e-11)
(494.966 1.51331 -5.39261e-11)
(494.721 0.969976 -6.40775e-11)
(494.507 1.44836 7.34858e-11)
(494.166 1.34782 9.71973e-11)
(494.021 1.23942 -1.10826e-11)
(493.531 1.88578 -5.31406e-11)
(493.497 0.83114 5.86212e-12)
(492.79 2.61204 2.46988e-11)
(496.835 0.0404613 -1.61877e-09)
(496.825 0.210216 4.74793e-10)
(496.795 0.216941 -7.13687e-11)
(496.755 0.415674 1.12998e-11)
(496.692 0.439599 4.79953e-11)
(496.627 0.593483 -3.84117e-11)
(496.528 0.68827 -1.14211e-10)
(496.442 0.740025 -5.89325e-11)
(496.306 0.962085 9.83013e-12)
(496.2 0.854581 4.88315e-11)
(496.025 1.25719 -7.7837e-12)
(495.901 0.942441 3.88872e-11)
(495.689 1.56121 9.70583e-11)
(495.544 1.02053 2.57302e-11)
(495.303 1.84492 -4.33725e-11)
(495.125 1.13869 -1.48979e-11)
(494.88 2.0073 -5.18896e-11)
(494.63 1.43018 -6.48968e-11)
(494.426 2.00013 7.5816e-11)
(494.075 1.84413 9.69245e-11)
(493.935 1.84948 -1.37726e-11)
(493.452 2.42342 -5.41296e-11)
(493.423 1.51766 3.95373e-12)
(492.745 3.20848 1.50773e-11)
(496.708 0.0587772 -1.62017e-09)
(496.698 0.256718 4.81026e-10)
(496.669 0.287806 -6.76339e-11)
(496.629 0.519816 1.13417e-11)
(496.567 0.56666 5.16935e-11)
(496.503 0.755622 -3.29233e-11)
(496.405 0.871696 -1.16717e-10)
(496.32 0.959598 -5.74124e-11)
(496.185 1.20192 1.49087e-11)
(496.081 1.12994 4.68033e-11)
(495.907 1.55376 -7.66167e-12)
(495.786 1.27094 4.21363e-11)
(495.574 1.91625 9.42731e-11)
(495.433 1.39799 2.51373e-11)
(495.191 2.26257 -4.13982e-11)
(495.019 1.55281 -1.75307e-11)
(494.769 2.50241 -5.33115e-11)
(494.525 1.87334 -6.45264e-11)
(494.324 2.54463 7.04568e-11)
(493.971 2.34163 1.03007e-10)
(493.832 2.44365 -6.00368e-12)
(493.355 2.94891 -5.13344e-11)
(493.326 2.15981 7.45267e-12)
(492.668 3.76606 2.5784e-11)
(496.529 0.0770967 -1.63125e-09)
(496.519 0.302938 4.78197e-10)
(496.49 0.358549 -6.61144e-11)
(496.451 0.623388 6.67451e-12)
(496.389 0.693439 4.10688e-11)
(496.325 0.916876 -3.78446e-11)
(496.228 1.05464 -1.14865e-10)
(496.143 1.17801 -6.19736e-11)
(496.01 1.44111 1.50762e-11)
(495.906 1.40429 5.21871e-11)
(495.734 1.84963 -7.4689e-12)
(495.613 1.59883 3.67144e-11)
(495.403 2.26983 9.21732e-11)
(495.263 1.77542 2.79467e-11)
(495.022 2.67688 -4.43352e-11)
(494.853 1.97134 -1.50388e-11)
(494.598 2.99302 -4.31452e-11)
(494.367 2.31586 -6.20813e-11)
(494.152 3.09343 8.02956e-11)
(493.811 2.83825 1.05443e-10)
(493.666 3.03957 -1.01617e-11)
(493.194 3.47651 -6.22235e-11)
(493.159 2.80617 4.13035e-12)
(492.499 4.32265 2.59102e-11)
(496.302 0.0952382 -1.62957e-09)
(496.292 0.348484 4.74789e-10)
(496.264 0.428497 -8.1806e-11)
(496.224 0.725509 6.76506e-12)
(496.163 0.818764 5.61326e-11)
(496.1 1.07591 -3.67375e-11)
(496.004 1.23551 -1.26756e-10)
(495.919 1.3935 -5.80813e-11)
(495.788 1.67757 2.1154e-11)
(495.684 1.67506 4.73566e-11)
(495.515 2.14195 -1.03357e-11)
(495.394 1.92282 4.80144e-11)
(495.187 2.61893 1.08511e-10)
(495.048 2.14921 3.02919e-11)
(494.808 3.08509 -3.98047e-11)
(494.643 2.38835 -1.18287e-11)
(494.386 3.47259 -5.28874e-11)
(494.166 2.76021 -6.81858e-11)
(493.94 3.64051 7.47973e-11)
(493.612 3.32311 1.03276e-10)
(493.463 3.63428 -1.1476e-11)
(492.996 4.00366 -6.24726e-11)
(492.957 3.46235 6.3028e-12)
(492.299 4.88464 3.08419e-11)
(496.025 0.113245 -1.64322e-09)
(496.015 0.393566 4.84318e-10)
(495.987 0.497828 -6.1495e-11)
(495.948 0.826613 1.02382e-11)
(495.887 0.942925 4.38164e-11)
(495.824 1.23335 -3.36072e-11)
(495.73 1.41463 -1.10849e-10)
(495.646 1.60682 -5.99289e-11)
(495.516 1.9117 2.57023e-12)
(495.413 1.94327 4.47588e-11)
(495.245 2.43139 3.67268e-13)
(495.126 2.24399 4.25805e-11)
(494.92 2.96448 8.36119e-11)
(494.783 2.52008 2.20824e-11)
(494.544 3.48879 -3.26504e-11)
(494.383 2.80291 -1.99893e-11)
(494.125 3.9448 -4.9566e-11)
(493.913 3.20217 -5.20781e-11)
(493.681 4.18305 7.85899e-11)
(493.365 3.80342 8.88619e-11)
(493.209 4.22704 -1.1553e-11)
(492.75 4.52609 -4.64894e-11)
(492.707 4.11331 3.65574e-12)
(492.057 5.43946 7.48201e-12)
(495.699 0.13107 -1.6527e-09)
(495.689 0.438091 4.69798e-10)
(495.661 0.566377 -8.30181e-11)
(495.622 0.926488 -2.00823e-12)
(495.562 1.06563 4.41576e-11)
(495.5 1.38886 -4.17046e-11)
(495.407 1.59158 -1.26623e-10)
(495.323 1.81752 -6.3743e-11)
(495.195 2.14292 8.6575e-12)
(495.093 2.20818 4.15703e-11)
(494.927 2.71715 -1.1582e-11)
(494.809 2.56138 4.12519e-11)
(494.606 3.30557 9.25202e-11)
(494.471 2.88696 2.38194e-11)
(494.233 3.88708 -3.91939e-11)
(494.076 3.21368 -1.69741e-11)
(493.817 4.40853 -5.41257e-11)
(493.614 3.64124 -6.35969e-11)
(493.376 4.71884 7.50792e-11)
(493.072 4.27711 9.60286e-11)
(492.91 4.81736 -1.33955e-11)
(492.46 5.04385 -5.77022e-11)
(492.414 4.75991 5.26903e-12)
(491.772 5.98768 2.37056e-11)
(495.323 0.148714 -1.63403e-09)
(495.314 0.482072 4.97791e-10)
(495.286 0.634145 -6.41349e-11)
(495.247 1.02516 2.11447e-11)
(495.188 1.18689 6.30794e-11)
(495.126 1.54247 -2.43858e-11)
(495.034 1.76636 -1.10205e-10)
(494.952 2.02559 -4.7037e-11)
(494.825 2.37119 2.65028e-11)
(494.724 2.46978 5.81573e-11)
(494.56 2.99916 6.53083e-12)
(494.444 2.87491 5.73091e-11)
(494.242 3.64209 1.11574e-10)
(494.11 3.24963 3.69646e-11)
(493.874 4.27986 -2.53883e-11)
(493.72 3.62034 -6.28425e-12)
(493.461 4.86412 -4.06036e-11)
(493.266 4.07658 -5.3114e-11)
(493.024 5.24716 8.88244e-11)
(492.731 4.74446 1.07896e-10)
(492.563 5.40323 -1.15664e-12)
(492.124 5.55512 -4.56608e-11)
(492.074 5.40022 1.45581e-11)
(491.442 6.52759 3.27237e-11)
(494.898 0.166148 -1.65139e-09)
(494.889 0.525454 4.85516e-10)
(494.862 0.701033 -7.35103e-11)
(494.823 1.12252 1.36093e-11)
(494.765 1.30653 5.6623e-11)
(494.704 1.69402 -3.21338e-11)
(494.613 1.93877 -1.15729e-10)
(494.531 2.23084 -4.94801e-11)
(494.406 2.59626 2.42918e-11)
(494.307 2.72778 5.63045e-11)
(494.144 3.27707 6.64579e-12)
(494.03 3.18412 5.99959e-11)
(493.83 3.97357 1.14744e-10)
(493.701 3.60751 3.91663e-11)
(493.466 4.66663 -2.0533e-11)
(493.317 4.02218 -2.88206e-13)
(493.058 5.31146 -3.33727e-11)
(492.87 4.50767 -4.73815e-11)
(492.624 5.76719 9.91221e-11)
(492.343 5.20572 1.18928e-10)
(492.17 5.98222 -1.26734e-11)
(491.743 6.0581 -7.96741e-11)
(491.688 6.03448 -1.47183e-11)
(491.067 7.05877 1.44368e-12)
(494.424 0.183352 -1.65606e-09)
(494.415 0.568194 4.87313e-10)
(494.388 0.766966 -7.65013e-11)
(494.35 1.21846 8.12588e-12)
(494.293 1.42446 5.19292e-11)
(494.232 1.8434 -3.78078e-11)
(494.142 2.10866 -1.24235e-10)
(494.062 2.43313 -6.00456e-11)
(493.938 2.81797 1.39549e-11)
(493.84 2.98202 4.66982e-11)
(493.68 3.55068 -4.03261e-12)
(493.568 3.48878 5.08618e-11)
(493.37 4.29972 1.0432e-10)
(493.243 3.96018 2.99341e-11)
(493.01 5.04702 -3.48608e-11)
(492.865 4.41859 -1.39832e-11)
(492.607 5.75059 -5.06771e-11)
(492.426 4.9341 -6.12296e-11)
(492.177 6.27825 8.05432e-11)
(491.908 5.65998 1.00725e-10)
(491.729 6.55339 -7.59575e-12)
(491.315 6.55208 -5.04497e-11)
(491.256 6.66133 1.10682e-11)
(490.646 7.58057 2.7792e-11)
(493.901 0.200295 -1.66106e-09)
(493.891 0.610233 4.85863e-10)
(493.865 0.831842 -8.24326e-11)
(493.827 1.31287 2.15733e-12)
(493.771 1.54049 4.40076e-11)
(493.711 1.99042 -4.9836e-11)
(493.623 2.27583 -1.39143e-10)
(493.543 2.63225 -7.725e-11)
(493.421 3.03609 -3.26044e-12)
(493.325 3.23225 2.7844e-11)
(493.166 3.81973 -3.04844e-11)
(493.056 3.78858 2.48503e-11)
(492.861 4.62024 7.19873e-11)
(492.737 4.30721 2.48976e-11)
(492.507 5.42057 -1.0785e-11)
(492.365 4.80888 3.39997e-12)
(492.109 6.18139 -3.27724e-11)
(491.934 5.35552 -4.93161e-11)
(491.683 6.7797 9.28892e-11)
(491.425 6.10652 1.11316e-10)
(491.242 7.11581 7.03001e-13)
(490.841 7.03614 -4.53513e-11)
(490.779 7.27958 1.62836e-11)
(490.18 8.0925 3.08058e-11)
(493.327 0.216956 -1.65822e-09)
(493.318 0.651519 5.09139e-10)
(493.292 0.895571 -8.33595e-11)
(493.255 1.40563 -1.72179e-11)
(493.199 1.65447 4.1386e-11)
(493.141 2.13489 -4.06717e-11)
(493.054 2.44006 -1.18517e-10)
(492.975 2.82797 -4.04592e-11)
(492.855 3.25036 1.57504e-11)
(492.76 3.47823 2.82456e-11)
(492.604 4.08397 -1.76798e-11)
(492.496 4.08325 4.84023e-11)
(492.303 4.93483 1.14685e-10)
(492.183 4.64824 4.45752e-11)
(491.954 5.78693 -4.36362e-11)
(491.818 5.19253 -3.74795e-11)
(491.563 6.60345 -6.92545e-11)
(491.395 5.77134 -6.84376e-11)
(491.142 7.27106 8.69673e-11)
(490.895 6.54483 1.17266e-10)
(490.708 7.66887 -1.14507e-11)
(490.32 7.50933 -7.42613e-11)
(490.255 7.88781 -6.37613e-13)
(489.669 8.59401 2.79277e-11)
(492.705 0.233308 -1.67733e-09)
(492.696 0.692 4.69225e-10)
(492.67 0.958059 -7.45935e-11)
(492.633 1.49659 3.929e-11)
(492.579 1.76623 6.73708e-11)
(492.521 2.27662 -3.75874e-11)
(492.435 2.6011 -1.38978e-10)
(492.358 3.02002 -8.68902e-11)
(492.24 3.4605 1.27342e-11)
(492.147 3.71964 7.02767e-11)
(491.993 4.34309 2.88173e-12)
(491.888 4.37247 4.27195e-11)
(491.697 5.24319 8.08326e-11)
(491.58 4.98294 2.34584e-11)
(491.354 6.14576 -1.93281e-11)
(491.221 5.56908 -8.27315e-12)
(490.969 7.01634 -5.91765e-11)
(490.807 6.18084 -8.02998e-11)
(490.554 7.75175 4.61623e-11)
(490.318 6.97458 8.84014e-11)
(490.127 8.21217 1.67192e-12)
(489.752 7.9708 -5.0053e-11)
(489.685 8.4848 -5.75841e-13)
(489.112 9.08457 2.47245e-12)
(492.032 0.249332 -1.66675e-09)
(492.023 0.731631 5.19705e-10)
(491.998 1.01923 -8.16425e-11)
(491.962 1.58567 -2.05848e-11)
(491.908 1.87561 4.0401e-11)
(491.851 2.4154 -3.79195e-11)
(491.767 2.75871 -1.11574e-10)
(491.692 3.20809 -3.40267e-11)
(491.575 3.66617 1.6581e-11)
(491.485 3.95612 2.94535e-11)
(491.333 4.59671 -1.15226e-11)
(491.23 4.65586 5.66565e-11)
(491.042 5.54499 1.25695e-10)
(490.928 5.31093 2.04327e-11)
(490.705 6.49675 -7.54117e-11)
(490.577 5.93809 -3.35646e-11)
(490.327 7.41968 -5.96458e-11)
(490.172 6.5832 -5.58831e-11)
(489.918 8.22098 1.0185e-10)
(489.694 7.39553 9.51614e-11)
(489.5 8.74506 -3.70554e-11)
(489.138 8.42019 -6.33195e-11)
(489.068 9.06989 1.27022e-11)
(488.509 9.56348 3.99059e-11)
(491.309 0.265005 -1.68592e-09)
(491.3 0.770364 4.82992e-10)
(491.275 1.079 -9.98822e-11)
(491.24 1.67273 -2.45222e-11)
(491.187 1.98245 5.14677e-11)
(491.131 2.55104 -1.12198e-11)
(491.049 2.91262 -1.08457e-10)
(490.975 3.39191 -5.29647e-11)
(490.861 3.86701 1.31503e-11)
(490.773 4.18729 4.08308e-11)
(490.624 4.84443 -2.28891e-11)
(490.524 4.93299 2.52013e-11)
(490.339 5.83979 1.06827e-10)
(490.228 5.63179 5.15763e-11)
(490.008 6.83954 -2.46161e-11)
(489.885 6.29916 -1.00984e-11)
(489.637 7.81322 -5.61577e-11)
(489.489 6.97757 -7.27804e-11)
(489.235 8.67795 5.95341e-11)
(489.023 7.80734 7.22514e-11)
(488.825 9.26607 -4.84594e-11)
(488.478 8.85812 -6.01374e-11)
(488.403 9.64347 3.05147e-11)
(487.86 10.0295 3.65326e-11)
(490.536 0.280304 -1.68288e-09)
(490.527 0.808149 5.08322e-10)
(490.503 1.13729 -6.63448e-11)
(490.468 1.75767 3.00056e-11)
(490.417 2.0866 7.51469e-11)
(490.362 2.68333 -1.55714e-11)
(490.281 3.06259 -1.01314e-10)
(490.209 3.57116 -2.92556e-11)
(490.097 4.06269 5.34838e-11)
(490.011 4.41274 5.28803e-11)
(489.865 5.0858 -3.90654e-11)
(489.768 5.20337 2.187e-11)
(489.586 6.12712 7.46098e-11)
(489.48 5.94503 3.16168e-13)
(489.263 7.17371 -6.64444e-11)
(489.144 6.65188 -3.52578e-11)
(488.899 8.1967 -7.33091e-11)
(488.758 7.3632 -7.6713e-11)
(488.505 9.12197 7.2466e-11)
(488.304 8.20972 1.00919e-10)
(488.103 9.77472 -4.77505e-12)
(487.771 9.28422 -4.58648e-11)
(487.692 10.2048 1.93096e-11)
(487.164 10.4821 4.0459e-11)
(489.712 0.295198 -1.69431e-09)
(489.704 0.84492 4.95978e-10)
(489.68 1.19398 -8.70253e-11)
(489.646 1.84033 3.58363e-12)
(489.596 2.18786 4.28766e-11)
(489.542 2.81207 -5.87847e-11)
(489.463 3.20838 -1.47773e-10)
(489.393 3.74558 -7.97891e-11)
(489.284 4.25285 -5.08723e-12)
(489.2 4.6321 2.87186e-11)
(489.057 5.32038 -2.62461e-11)
(488.963 5.46651 2.63884e-11)
(488.785 6.40647 7.09977e-11)
(488.682 6.25009 -7.39249e-12)
(488.468 7.49872 -8.42712e-11)
(488.355 6.99568 -5.81044e-11)
(488.113 8.56969 -6.08184e-11)
(487.978 7.73957 -3.63007e-11)
(487.727 9.55258 1.12179e-10)
(487.538 8.60226 1.27475e-10)
(487.333 10.2705 1.62098e-11)
(487.016 9.69815 -3.46811e-11)
(486.933 10.7533 2.7432e-11)
(486.422 10.9207 4.45675e-11)
(488.838 0.309655 -1.71508e-09)
(488.829 0.880602 5.08326e-10)
(488.806 1.24897 -5.81493e-11)
(488.773 1.92056 8.35845e-12)
(488.724 2.28606 6.9024e-11)
(488.672 2.93702 -9.47792e-12)
(488.595 3.34971 -1.26803e-10)
(488.527 3.91485 -8.44265e-11)
(488.42 4.43718 1.27417e-11)
(488.339 4.84499 6.78824e-11)
(488.199 5.54777 -1.27136e-11)
(488.109 5.72194 5.63605e-11)
(487.934 6.67731 1.2158e-10)
(487.836 6.54637 1.31089e-11)
(487.626 7.814 -3.90325e-11)
(487.518 7.32995 1.59785e-12)
(487.279 8.93165 -6.59596e-11)
(487.151 8.10613 -9.9223e-11)
(486.901 9.9694 6.2512e-11)
(486.724 8.98454 1.0076e-10)
(486.517 10.7529 -3.68913e-11)
(486.215 10.0996 -6.2813e-11)
(486.128 11.2882 1.49379e-11)
(485.633 11.345 7.8214e-12)
(487.913 0.323635 -1.70013e-09)
(487.904 0.915104 5.21202e-10)
(487.882 1.3021 -5.87675e-11)
(487.85 1.99817 4.27468e-11)
(487.802 2.38094 8.76267e-11)
(487.751 3.05794 -4.75343e-11)
(487.677 3.48631 -1.73394e-10)
(487.611 4.0787 -9.39351e-11)
(487.506 4.61535 -5.54204e-12)
(487.428 5.05106 3.68375e-11)
(487.292 5.76755 -1.26238e-11)
(487.205 5.96922 5.25097e-11)
(487.034 6.93916 1.13015e-10)
(486.94 6.83332 3.89664e-11)
(486.734 8.11897 -2.0378e-11)
(486.631 7.654 5.68534e-12)
(486.396 9.28198 -2.81107e-11)
(486.276 8.46217 -7.51715e-11)
(486.028 10.372 3.43058e-11)
(485.862 9.35619 6.86591e-11)
(485.652 11.2213 -3.70199e-11)
(485.367 10.4883 -7.55747e-11)
(485.275 11.8092 -1.15808e-11)
(484.798 11.7545 1.65196e-11)
(486.937 0.337098 -1.72445e-09)
(486.928 0.948339 4.75106e-10)
(486.906 1.35323 -8.25158e-11)
(486.875 2.07298 4.30029e-11)
(486.829 2.47229 6.46665e-11)
(486.78 3.17455 -4.79016e-11)
(486.707 3.61786 -1.50573e-10)
(486.644 4.23678 -5.08389e-11)
(486.542 4.78701 5.74765e-11)
(486.467 5.24997 7.50721e-11)
(486.334 5.97937 2.11577e-12)
(486.251 6.20795 3.93268e-11)
(486.084 7.19157 6.956e-11)
(485.994 7.11043 1.66368e-11)
(485.793 8.41306 -2.55931e-11)
(485.696 7.96718 -1.62771e-11)
(485.465 9.62005 -7.33863e-11)
(485.352 8.8069 -9.72012e-11)
(485.107 10.7602 7.9366e-11)
(484.951 9.71685 1.24507e-10)
(484.741 11.6747 -3.14071e-12)
(484.471 10.8637 -6.7242e-11)
(484.375 12.3156 -2.54836e-11)
(483.916 12.1488 2.1124e-11)
(485.909 0.350005 -1.73318e-09)
(485.901 0.980214 4.77716e-10)
(485.88 1.40221 -8.32353e-11)
(485.849 2.14477 4.85528e-11)
(485.805 2.55985 7.50802e-11)
(485.758 3.28657 -4.28696e-11)
(485.687 3.74408 -1.5148e-10)
(485.626 4.38878 -1.01267e-10)
(485.528 4.95182 7.82061e-12)
(485.456 5.44135 8.05595e-11)
(485.326 6.18285 1.23988e-11)
(485.247 6.43775 4.95178e-11)
(485.084 7.43414 8.05874e-11)
(484.999 7.37725 2.6038e-11)
(484.802 8.69579 -1.54509e-11)
(484.711 8.26889 -1.17883e-11)
(484.485 9.94521 -6.86978e-11)
(484.379 9.13945 -8.87779e-11)
(484.138 11.1335 9.00054e-11)
(483.993 10.0661 1.34019e-10)
(483.781 12.1122 6.98858e-12)
(483.527 11.2253 -5.86004e-11)
(483.428 12.8069 -1.08538e-11)
(482.987 12.5275 -6.20446e-12)
(484.83 0.362327 -1.74703e-09)
(484.822 1.01066 5.20658e-10)
(484.802 1.44895 -5.86718e-11)
(484.772 2.21341 4.94615e-12)
(484.729 2.64342 1.98361e-11)
(484.684 3.39374 -5.92718e-11)
(484.616 3.86463 -1.26738e-10)
(484.558 4.53436 -8.59196e-11)
(484.462 5.10941 1.31527e-11)
(484.394 5.62484 7.10341e-11)
(484.268 6.37761 -1.35609e-11)
(484.193 6.65823 6.50681e-11)
(484.034 7.66648 1.39683e-10)
(483.954 7.63336 2.12917e-11)
(483.762 8.96671 -8.49911e-11)
(483.677 8.55862 -3.57015e-11)
(483.455 10.2569 -5.30688e-11)
(483.357 9.45911 -8.46423e-11)
(483.12 11.4915 8.49861e-11)
(482.985 10.4034 1.20844e-10)
(482.774 12.5328 -1.92873e-11)
(482.536 11.5723 -4.49118e-11)
(482.433 13.2821 4.00031e-11)
(482.011 12.8901 2.71684e-11)
(483.7 0.374038 -1.72252e-09)
(483.692 1.03963 5.4704e-10)
(483.672 1.49333 -4.38086e-11)
(483.644 2.27873 1.62241e-11)
(483.602 2.72282 2.54567e-11)
(483.559 3.49583 -5.98967e-11)
(483.494 3.97925 -1.32911e-10)
(483.438 4.67319 -4.30154e-11)
(483.346 5.25941 5.11159e-11)
(483.281 5.80004 5.0715e-11)
(483.159 6.56323 -4.06183e-11)
(483.088 6.86899 3.47041e-11)
(482.934 7.88818 1.02348e-10)
(482.86 7.87838 3.143e-11)
(482.672 9.22545 -2.46651e-11)
(482.593 8.83594 1.35371e-11)
(482.376 10.5548 -6.43992e-11)
(482.286 9.76536 -1.04472e-10)
(482.053 11.8335 5.76822e-11)
(481.929 10.728 9.28739e-11)
(481.717 12.936 -3.02072e-12)
(481.497 11.9039 -3.54787e-11)
(481.39 13.7399 4.55015e-11)
(480.989 13.236 2.72805e-11)
(482.517 0.385126 -1.7238e-09)
(482.51 1.06708 5.19004e-10)
(482.491 1.5353 -1.0362e-10)
(482.464 2.34067 2.80794e-11)
(482.424 2.7979 5.28138e-11)
(482.383 3.59267 -6.60895e-11)
(482.32 4.0877 -1.1739e-10)
(482.267 4.805 -6.54382e-11)
(482.179 5.40149 -9.40827e-12)
(482.117 5.96658 6.77288e-11)
(481.999 6.73931 -1.40021e-12)
(481.933 7.06962 3.53224e-11)
(481.783 8.09881 1.25761e-10)
(481.714 8.1119 2.11766e-11)
(481.532 9.47159 -7.63363e-11)
(481.46 9.10045 -1.70862e-11)
(481.248 10.8384 -7.60408e-11)
(481.166 10.0577 -9.50626e-11)
(480.937 12.1592 8.68419e-11)
(480.824 11.0392 8.84875e-11)
(480.613 13.3211 -4.27788e-11)
(480.408 12.2192 -5.55115e-11)
(480.3 14.179 -1.43384e-11)
(479.918 13.5645 -7.86491e-12)
(481.284 0.395577 -1.78888e-09)
(481.276 1.09298 4.96408e-10)
(481.258 1.57481 -1.04469e-10)
(481.233 2.39913 -1.54225e-12)
(481.194 2.86858 5.34939e-11)
(481.155 3.68412 -4.33054e-11)
(481.095 4.1898 -1.29498e-10)
(481.045 4.92953 -4.83297e-11)
(480.96 5.53534 3.65059e-11)
(480.902 6.1241 7.96657e-11)
(480.789 6.90544 3.34336e-11)
(480.727 7.25967 4.15124e-11)
(480.582 8.29793 9.76096e-11)
(480.519 8.33347 1.57443e-11)
(480.341 9.70473 -5.35125e-11)
(480.276 9.35176 -2.24053e-11)
(480.069 11.1074 -5.89292e-11)
(479.995 10.3357 -5.94695e-11)
(479.771 12.4682 9.91835e-11)
(479.668 11.3364 1.19425e-10)
(479.459 13.6873 -4.30048e-11)
(479.271 12.5178 -8.11999e-11)
(479.161 14.599 -1.40354e-11)
(478.798 13.8757 7.87769e-12)
(479.999 0.405383 -1.75482e-09)
(479.991 1.11732 5.51738e-10)
(479.974 1.61183 -4.83183e-11)
(479.949 2.45408 1.09467e-11)
(479.913 2.93477 1.97591e-11)
(479.876 3.77007 -7.37793e-11)
(479.818 4.28542 -1.47724e-10)
(479.771 5.04663 -5.45643e-11)
(479.69 5.66076 3.67863e-11)
(479.636 6.27234 9.19431e-11)
(479.527 7.06129 -1.65087e-12)
(479.47 7.43877 1.93193e-11)
(479.33 8.4851 8.65218e-11)
(479.273 8.54264 1.02684e-11)
(479.101 9.92441 -4.80424e-11)
(479.042 9.58942 -6.27483e-12)
(478.841 11.3613 -2.93579e-11)
(478.775 10.5989 -2.27278e-11)
(478.556 12.7602 8.79817e-11)
(478.463 11.6185 6.77746e-11)
(478.257 14.0334 -3.10694e-11)
(478.086 12.8002 -6.04974e-11)
(477.972 15.0009 2.11647e-11)
(477.63 14.1699 5.59192e-11)
(478.661 0.414528 -1.74909e-09)
(478.654 1.14005 5.21754e-10)
(478.638 1.6463 -1.2464e-10)
(478.614 2.50544 4.62225e-12)
(478.58 2.9964 9.07387e-11)
(478.545 3.85045 -3.71138e-11)
(478.49 4.37445 -1.60618e-10)
(478.446 5.15617 -5.478e-11)
(478.368 5.77757 1.22187e-12)
(478.318 6.41107 1.5246e-11)
(478.214 7.20657 -1.48227e-12)
(478.162 7.60656 8.988e-11)
(478.027 8.65992 1.12025e-10)
(477.975 8.73895 -1.09498e-12)
(477.809 10.1302 -4.23489e-11)
(477.757 9.81295 1.60221e-11)
(477.562 11.5999 -5.44247e-11)
(477.504 10.847 -8.86439e-11)
(477.29 13.0351 1.01348e-10)
(477.209 11.8849 9.50897e-11)
(477.005 14.3585 -4.98593e-11)
(476.851 13.0662 -6.61451e-11)
(476.734 15.3834 3.32727e-11)
(476.413 14.4455 2.89481e-11)
(477.273 0.422999 -1.81671e-09)
(477.266 1.16115 4.97351e-10)
(477.25 1.67819 -1.1333e-10)
(477.228 2.55316 -8.21361e-12)
(477.195 3.0534 4.33548e-11)
(477.162 3.92517 -6.27063e-11)
(477.11 4.45681 -1.49622e-10)
(477.069 5.25806 -6.74632e-11)
(476.995 5.88567 1.39247e-11)
(476.949 6.5402 5.2269e-11)
(476.849 7.34111 4.86268e-12)
(476.802 7.76284 7.27288e-11)
(476.673 8.82206 1.25694e-10)
(476.627 8.92203 3.40138e-11)
(476.466 10.3215 -3.63361e-11)
(476.422 10.0219 -6.83179e-12)
(476.232 11.8226 -4.82596e-11)
(476.183 11.0794 -5.54212e-11)
(475.975 13.2923 1.08632e-10)
(475.904 12.1352 1.28788e-10)
(475.704 14.662 1.9717e-11)
(475.566 13.315 -8.84619e-11)
(475.447 15.7456 -2.86407e-11)
(475.148 14.7022 1.20219e-12)
(475.832 0.430777 -1.74932e-09)
(475.825 1.18058 5.63629e-10)
(475.81 1.70742 -7.19043e-11)
(475.789 2.59714 3.16354e-11)
(475.759 3.10568 7.46186e-11)
(475.727 3.99413 -3.7276e-11)
(475.678 4.53241 -1.31985e-10)
(475.64 5.35221 -5.49732e-11)
(475.57 5.98496 2.06764e-11)
(475.528 6.65961 5.28685e-11)
(475.433 7.4648 -1.3197e-12)
(475.39 7.90746 5.50638e-11)
(475.266 8.97131 1.01157e-10)
(475.227 9.09159 1.00897e-11)
(475.072 10.4981 -7.54028e-11)
(475.035 10.2157 -5.38406e-11)
(474.851 12.0288 -1.00847e-10)
(474.811 11.2957 -4.43062e-11)
(474.609 13.5316 1.09852e-10)
(474.548 12.369 1.18404e-10)
(474.352 14.9436 7.09586e-12)
(474.231 13.5465 -4.96237e-11)
(474.11 16.0864 9.5201e-12)
(473.833 14.9393 2.97797e-11)
(474.339 0.437849 -1.77434e-09)
(474.333 1.19831 5.3838e-10)
(474.319 1.73395 -1.09974e-10)
(474.299 2.63733 3.14677e-11)
(474.27 3.15317 6.28147e-11)
(474.241 4.05725 -6.42316e-11)
(474.195 4.60114 -1.2032e-10)
(474.16 5.43854 -6.15604e-11)
(474.093 6.07538 1.77713e-12)
(474.055 6.76927 7.90611e-11)
(473.964 7.57758 5.3113e-12)
(473.927 8.04039 4.94672e-11)
(473.809 9.10758 1.4114e-10)
(473.775 9.24752 2.86131e-11)
(473.626 10.6596 -6.94894e-11)
(473.597 10.394 -6.07804e-12)
(473.419 12.2181 -6.83854e-11)
(473.388 11.4951 -9.15756e-11)
(473.191 13.7522 1.10798e-10)
(473.142 12.5856 1.07515e-10)
(472.95 15.2034 -3.27223e-11)
(472.845 13.7606 -3.83041e-11)
(472.722 16.405 1.00513e-11)
(472.467 15.1563 7.02801e-12)
(472.794 0.444204 -1.83349e-09)
(472.788 1.21432 5.41137e-10)
(472.775 1.75776 -7.28886e-11)
(472.756 2.67368 -9.29814e-12)
(472.729 3.19579 6.9745e-11)
(472.703 4.11446 -1.74514e-11)
(472.659 4.66294 -1.60005e-10)
(472.627 5.51694 -5.5195e-11)
(472.565 6.15682 4.77654e-11)
(472.531 6.86909 4.07824e-11)
(472.444 7.67939 1.1957e-11)
(472.412 8.16159 1.01133e-10)
(472.299 9.23083 1.09104e-10)
(472.272 9.38979 3.49453e-11)
(472.129 10.806 -1.63194e-11)
(472.106 10.5567 -3.67063e-11)
(471.935 12.3901 -6.22786e-11)
(471.913 11.6772 -4.41587e-11)
(471.723 13.9537 7.77796e-11)
(471.684 12.784 1.14046e-10)
(471.498 15.4417 2.12386e-11)
(471.407 13.958 -6.7738e-11)
(471.283 16.7005 1.68949e-11)
(471.052 15.3528 5.4305e-11)
(471.197 0.449845 -1.80444e-09)
(471.191 1.2286 5.81496e-10)
(471.179 1.77883 -4.14753e-11)
(471.162 2.70619 2.5852e-11)
(471.137 3.23353 3.16644e-11)
(471.112 4.16571 -5.8986e-11)
(471.072 4.71774 -1.28293e-10)
(471.043 5.58738 -2.85195e-11)
(470.984 6.22923 7.48143e-11)
(470.954 6.95899 7.45853e-11)
(470.872 7.77016 -2.81619e-11)
(470.845 8.27101 5.67097e-11)
(470.737 9.34104 1.37112e-10)
(470.716 9.51841 6.05626e-11)
(470.579 10.9372 3.79413e-12)
(470.564 10.7039 -1.82868e-11)
(470.399 12.5447 -1.11242e-10)
(470.386 11.8417 -8.72973e-11)
(470.202 14.1356 9.24519e-11)
(470.175 12.9635 1.26919e-10)
(469.994 15.658 4.19534e-11)
(469.918 14.1386 -5.65162e-11)
(469.793 16.9722 -3.7602e-11)
(469.585 15.528 6.72086e-12)
(469.549 0.454776 -1.87235e-09)
(469.543 1.24117 5.09787e-10)
(469.532 1.7972 -1.26761e-10)
(469.515 2.73486 -2.33757e-11)
(469.492 3.26642 3.21129e-11)
(469.47 4.21101 -8.03826e-11)
(469.432 4.76553 -1.75905e-10)
(469.406 5.64978 -9.70939e-11)
(469.351 6.29252 -1.20471e-11)
(469.325 7.0389 2.80892e-11)
(469.248 7.84979 -2.81025e-11)
(469.226 8.36858 3.76228e-11)
(469.124 9.43812 9.03235e-11)
(469.109 9.63339 -4.07037e-12)
(468.977 11.0533 -8.63966e-11)
(468.97 10.8355 -5.65407e-11)
(468.811 12.6821 -1.04987e-10)
(468.807 11.9887 -1.06392e-10)
(468.63 14.2977 5.14118e-11)
(468.613 13.1237 7.28651e-11)
(468.438 15.8516 -4.90586e-11)
(468.377 14.3019 -9.32274e-11)
(468.252 17.2197 -3.06029e-11)
(468.067 15.6818 -5.12184e-12)
(467.848 0.459011 -1.81587e-09)
(467.842 1.25207 5.51744e-10)
(467.832 1.8129 -1.14776e-10)
(467.817 2.75976 4.11726e-11)
(467.795 3.29451 7.27335e-11)
(467.775 4.25043 -5.9866e-11)
(467.74 4.80637 -1.09516e-10)
(467.717 5.70421 -4.87657e-11)
(467.666 6.3467 1.55388e-11)
(467.644 7.10878 1.03717e-10)
(467.572 7.9182 2.72104e-11)
(467.555 8.4542 6.51474e-11)
(467.458 9.52198 1.67734e-10)
(467.449 9.73463 4.8486e-11)
(467.323 11.1542 -5.18115e-11)
(467.324 10.9516 -4.3851e-11)
(467.171 12.8022 -1.12784e-10)
(467.176 12.1182 -6.90544e-11)
(467.005 14.4402 7.39015e-11)
(466.999 13.2643 7.36234e-11)
(466.83 16.0224 6.14781e-13)
(466.784 14.4468 -6.92425e-11)
(466.66 17.4419 -3.05201e-11)
(466.498 15.814 3.83137e-11)
(466.094 0.46256 -1.8179e-09)
(466.089 1.26131 5.63033e-10)
(466.079 1.82599 -1.09302e-10)
(466.065 2.78094 4.87232e-11)
(466.046 3.31787 8.01329e-11)
(466.028 4.28403 -5.34326e-11)
(465.996 4.84032 -1.03616e-10)
(465.976 5.7507 -4.18375e-11)
(465.928 6.3918 2.26529e-11)
(465.911 7.16862 4.23592e-11)
(465.843 7.97535 -3.52401e-11)
(465.831 8.52778 7.95218e-11)
(465.739 9.59246 1.12726e-10)
(465.737 9.82199 -4.60412e-12)
(465.617 11.2397 -3.82436e-11)
(465.625 11.0522 -3.1091e-11)
(465.479 12.905 -9.95478e-11)
(465.492 12.2305 -5.65907e-11)
(465.327 14.5632 8.96113e-11)
(465.333 13.3857 8.69083e-11)
(465.17 16.1706 1.46548e-11)
(465.137 14.5718 -5.75963e-11)
(465.016 17.6372 -9.30503e-12)
(464.877 15.9247 5.75098e-11)
(464.289 0.465437 -1.84574e-09)
(464.283 1.26893 6.13402e-10)
(464.275 1.8365 -8.31023e-11)
(464.262 2.79847 -9.91067e-12)
(464.244 3.33658 8.06145e-11)
(464.228 4.31191 3.81811e-12)
(464.199 4.86749 -1.32111e-10)
(464.182 5.78936 -9.16072e-11)
(464.138 6.42793 2.99712e-11)
(464.124 7.21852 1.0595e-10)
(464.061 8.02128 1.41986e-11)
(464.055 8.58931 4.59461e-11)
(463.968 9.6495 1.35066e-10)
(463.972 9.89534 6.95951e-11)
(463.858 11.3097 -5.27943e-11)
(463.874 11.137 -5.77525e-11)
(463.734 12.9903 -7.14853e-11)
(463.757 12.3255 -4.39281e-11)
(463.598 14.6669 9.10344e-11)
(463.614 13.4882 7.49766e-11)
(463.456 16.2972 -1.48406e-11)
(463.438 14.6761 -3.92445e-11)
(463.32 17.8041 -1.83155e-12)
(463.203 16.0137 -1.11152e-11)
(462.431 0.467643 -1.88264e-09)
(462.425 1.27493 5.46338e-10)
(462.418 1.84446 -1.17761e-10)
(462.406 2.81236 -2.49235e-11)
(462.39 3.35068 1.9225e-11)
(462.376 4.33412 -1.0583e-10)
(462.349 4.88794 -1.40266e-10)
(462.335 5.82028 1.45733e-12)
(462.295 6.45516 7.97706e-11)
(462.285 7.25857 1.13872e-10)
(462.227 8.05607 4.29133e-11)
(462.225 8.63887 9.52775e-11)
(462.144 9.69308 1.43422e-10)
(462.154 9.95463 3.58143e-11)
(462.046 11.364 -6.0383e-11)
(462.069 11.2058 -4.46685e-11)
(461.936 13.0579 -1.01443e-10)
(461.968 12.4028 -1.09843e-10)
(461.815 14.7511 4.06301e-11)
(461.843 13.5717 5.63187e-11)
(461.691 16.4022 -8.08327e-12)
(461.686 14.7604 -7.68291e-12)
(461.572 17.9425 5.75437e-11)
(461.477 16.0803 6.52036e-11)
(460.52 0.469185 -1.92003e-09)
(460.515 1.27933 5.57756e-10)
(460.508 1.8499 -8.45602e-11)
(460.497 2.82265 -3.23218e-11)
(460.483 3.36022 4.01305e-11)
(460.47 4.3507 -5.48128e-11)
(460.447 4.90174 -1.34447e-10)
(460.436 5.84354 -3.45484e-11)
(460.399 6.4736 -4.65409e-12)
(460.393 7.28888 5.76144e-11)
(460.339 8.07983 2.18111e-11)
(460.342 8.67657 3.30876e-11)
(460.266 9.7233 1.08255e-10)
(460.283 9.99991 2.90877e-11)
(460.181 11.4025 -3.90362e-11)
(460.212 11.2585 2.30967e-12)
(460.085 13.1075 -9.47207e-11)
(460.127 12.4623 -7.73129e-11)
(459.98 14.8153 1.08488e-10)
(460.019 13.6361 6.97804e-11)
(459.873 16.4855 -3.86923e-11)
(459.881 14.8251 -6.57211e-11)
(459.771 18.0535 2.03621e-11)
(459.697 16.125 5.26508e-11)
(458.556 0.470055 -1.85963e-09)
(458.551 1.28212 5.85304e-10)
(458.544 1.85279 -1.06131e-10)
(458.535 2.82932 -1.73326e-11)
(458.522 3.36517 2.66741e-11)