/*--------------------------------*- C++ -*----------------------------------*\
  =========                 |
  \\      /  F ield         | OpenFOAM: The Open Source CFD Toolbox
   \\    /   O peration     | Website:  https://openfoam.org
    \\  /    A nd           | Version:  10
     \\/     M anipulation  |
\*---------------------------------------------------------------------------*/
FoamFile
{
    format      ascii;
    class       surfaceScalarField;
    location    "0.39";
    object      phi;
}
// * * * * * * * * * * * * * * * * * * * * * * * * * * * * * * * * * * * * * //

dimensions      [1 0 -1 0 0 0 0];

internalField   nonuniform List<scalar> 
8154
(
-5.81747e-09
-2.2056e-08
-5.67878e-08
-9.16604e-08
-1.71399e-07
-2.25748e-07
-3.70005e-07
-4.54615e-07
-6.74974e-07
-8.14861e-07
-1.10484e-06
-1.3373e-06
-1.66772e-06
-2.02644e-06
-2.35921e-06
-2.86479e-06
-3.25357e-06
-3.98568e-06
-4.56836e-06
-5.50811e-06
-6.82378e-06
-7.25735e-06
-6.85683e-06
-0.000277438
-0.000832369
2.40395e-08
-0.00138746
9.62891e-08
-0.00194289
2.13435e-07
-0.00249867
3.78228e-07
-0.00305503
5.77486e-07
-0.00361202
8.23729e-07
-0.00416973
1.08846e-06
-0.00472844
1.39757e-06
-0.00528791
1.71049e-06
-0.00584877
2.0555e-06
-0.00641056
2.40232e-06
-0.00697377
2.74809e-06
-0.00753865
3.12055e-06
-0.00810414
3.43715e-06
-0.00867309
3.85178e-06
-0.00924024
4.12811e-06
-0.00981489
4.57588e-06
-0.0103833
4.92471e-06
-0.0109645
5.13691e-06
-0.0115338
5.27767e-06
-0.0121235
5.11516e-06
-0.0126947
4.0335e-06
-0.013293
2.4443e-06
-0.000277462
-0.000832441
2.63531e-08
-0.00138758
1.04837e-07
-0.00194305
2.34828e-07
-0.00249886
4.10351e-07
-0.00305528
6.35418e-07
-0.00361228
8.89826e-07
-0.00417004
1.1947e-06
-0.00472876
1.501e-06
-0.00528825
1.86647e-06
-0.00584912
2.19016e-06
-0.00641091
2.59292e-06
-0.00697414
2.89277e-06
-0.00753897
3.29917e-06
-0.00810456
3.54014e-06
-0.00867337
3.90599e-06
-0.00924068
4.10699e-06
-0.00981524
4.3926e-06
-0.0103835
5.00232e-06
-0.0109647
4.66428e-06
-0.0115337
5.23224e-06
-0.0121224
5.32958e-06
-0.0126931
5.04094e-06
-0.0132906
4.22583e-06
-0.000277488
-0.000832519
2.12892e-08
-0.00138771
8.49477e-08
-0.00194323
1.88151e-07
-0.00249909
3.30678e-07
-0.00305553
5.02071e-07
-0.00361259
7.07587e-07
-0.00417035
9.22737e-07
-0.00472912
1.16639e-06
-0.00528858
1.39366e-06
-0.00584952
1.64145e-06
-0.00641121
1.84606e-06
-0.00697455
2.04983e-06
-0.00753921
2.19756e-06
-0.00810492
2.28462e-06
-0.00867357
2.35534e-06
-0.00924097
2.20874e-06
-0.00981585
2.34617e-06
-0.0103832
1.89972e-06
-0.0109653
1.78017e-06
-0.0115337
1.39178e-06
-0.0121221
1.15478e-06
-0.0126923
7.19716e-07
-0.0132863
5.11958e-07
-0.00027751
-0.000832583
2.55203e-08
-0.00138781
1.01894e-07
-0.00194337
2.26087e-07
-0.00249926
3.97932e-07
-0.00305574
6.05764e-07
-0.0036128
8.55899e-07
-0.00417059
1.11958e-06
-0.00472935
1.42059e-06
-0.00528883
1.70215e-06
-0.00584973
2.01664e-06
-0.00641141
2.27203e-06
-0.00697469
2.54853e-06
-0.0075393
2.73387e-06
-0.00810499
2.89567e-06
-0.00867342
2.98654e-06
-0.0092411
2.89977e-06
-0.00981541
2.97722e-06
-0.010383
2.28411e-06
-0.0109649
2.51768e-06
-0.0115335
1.72489e-06
-0.0121217
1.20361e-06
-0.0126921
3.79113e-07
-0.0132858
-1.73016e-07
-0.000277535
-0.000832659
3.3629e-08
-0.00138794
1.34237e-07
-0.00194354
2.9919e-07
-0.00249947
5.26535e-07
-0.00305599
8.08042e-07
-0.00361307
1.14192e-06
-0.00417089
1.51209e-06
-0.00472963
1.91923e-06
-0.00528914
2.33883e-06
-0.00584998
2.77326e-06
-0.00641169
3.19429e-06
-0.00697488
3.59632e-06
-0.00753946
3.96446e-06
-0.00810508
4.25911e-06
-0.00867334
4.52279e-06
-0.00924118
4.61673e-06
-0.00981472
4.73338e-06
-0.0103833
4.40254e-06
-0.0109641
4.36791e-06
-0.011533
3.67191e-06
-0.0121209
3.20749e-06
-0.0126916
2.26978e-06
-0.013286
1.35013e-06
-0.000277569
-0.00083276
3.75453e-08
-0.0013881
1.49879e-07
-0.00194377
3.34338e-07
-0.00249975
5.88503e-07
-0.00305632
9.04417e-07
-0.00361344
1.2786e-06
-0.0041713
1.69635e-06
-0.00473005
2.15411e-06
-0.00528957
2.63091e-06
-0.0058504
3.12109e-06
-0.00641209
3.60277e-06
-0.00697525
4.05874e-06
-0.00753975
4.4821e-06
-0.00810535
4.8218e-06
-0.00867343
5.1242e-06
-0.00924129
5.25087e-06
-0.00981439
5.37207e-06
-0.0103832
5.08491e-06
-0.0109634
4.96934e-06
-0.0115325
4.21339e-06
-0.0121199
3.67108e-06
-0.0126906
2.63888e-06
-0.0132846
1.61665e-06
-0.000277606
-0.000832872
4.1372e-08
-0.00138829
1.65168e-07
-0.00194402
3.68564e-07
-0.00250007
6.48917e-07
-0.0030567
9.9783e-07
-0.00361386
1.41146e-06
-0.00417175
1.87424e-06
-0.00473053
2.38217e-06
-0.00529006
2.91251e-06
-0.00585088
3.45936e-06
-0.00641255
3.99711e-06
-0.00697567
4.50978e-06
-0.00754009
4.98301e-06
-0.00810565
5.37103e-06
-0.00867355
5.70704e-06
-0.00924141
5.86316e-06
-0.0098141
5.99978e-06
-0.0103831
5.72227e-06
-0.0109626
5.60007e-06
-0.011532
4.8066e-06
-0.0121189
4.19226e-06
-0.0126896
2.98984e-06
-0.013283
1.80096e-06
-0.000277648
-0.000832996
4.50603e-08
-0.00138849
1.79882e-07
-0.0019443
4.01466e-07
-0.00250042
7.06791e-07
-0.00305711
1.08716e-06
-0.00361432
1.53792e-06
-0.00417226
2.04338e-06
-0.00473106
2.59794e-06
-0.00529061
3.17911e-06
-0.00585142
3.77828e-06
-0.00641306
4.3701e-06
-0.00697614
4.93486e-06
-0.00754048
5.45724e-06
-0.00810599
5.88887e-06
-0.00867371
6.25761e-06
-0.00924154
6.44154e-06
-0.00981382
6.5835e-06
-0.010383
6.33273e-06
-0.0109618
6.17826e-06
-0.0115313
5.37191e-06
-0.0121177
4.81348e-06
-0.0126884
3.36423e-06
-0.0132812
2.02184e-06
-0.000277693
-0.000833131
4.86992e-08
-0.00138871
1.94388e-07
-0.00194461
4.33847e-07
-0.0025008
7.63649e-07
-0.00305756
1.17465e-06
-0.00361482
1.66143e-06
-0.00417282
2.20785e-06
-0.00473164
2.80715e-06
-0.00529121
3.4365e-06
-0.00585201
4.08562e-06
-0.00641362
4.72856e-06
-0.00697667
5.34355e-06
-0.00754092
5.91297e-06
-0.00810636
6.3872e-06
-0.00867389
6.7874e-06
-0.00924168
6.99647e-06
-0.00981357
7.13847e-06
-0.0103829
6.90624e-06
-0.010961
6.72712e-06
-0.0115307
5.88839e-06
-0.0121163
4.87094e-06
-0.0126871
3.69533e-06
-0.0132792
2.21284e-06
-0.000277742
-0.000833276
5.22878e-08
-0.00138895
2.08689e-07
-0.00194494
4.65748e-07
-0.00250121
8.19611e-07
-0.00305805
1.26061e-06
-0.00361537
1.78251e-06
-0.00417341
2.36857e-06
-0.00473227
3.01084e-06
-0.00529186
3.68596e-06
-0.00585265
4.38227e-06
-0.00641424
5.07314e-06
-0.00697723
5.7354e-06
-0.00754139
6.34935e-06
-0.00810676
6.8645e-06
-0.0086741
7.29567e-06
-0.00924182
7.52813e-06
-0.00981333
7.66896e-06
-0.0103827
7.45017e-06
-0.0109602
7.24821e-06
-0.0115301
6.39592e-06
-0.0121147
5.59458e-06
-0.0126856
4.03662e-06
-0.0132769
2.40496e-06
-0.000277794
-0.000833433
5.58415e-08
-0.00138921
2.22854e-07
-0.00194529
4.97356e-07
-0.00250165
8.75078e-07
-0.00305857
1.34579e-06
-0.00361596
1.90243e-06
-0.00417406
2.52744e-06
-0.00473295
3.2117e-06
-0.00529255
3.93097e-06
-0.00585334
4.67235e-06
-0.0064149
5.40829e-06
-0.00697785
6.11476e-06
-0.00754191
6.77011e-06
-0.0081072
7.32386e-06
-0.00867433
7.7852e-06
-0.00924196
8.04231e-06
-0.00981311
8.18935e-06
-0.0103825
7.97268e-06
-0.0109594
7.74341e-06
-0.0115293
6.85839e-06
-0.0121132
6.00509e-06
-0.012684
4.35783e-06
-0.0132745
2.59021e-06
-0.00027785
-0.0008336
5.93537e-08
-0.00138948
2.3686e-07
-0.00194567
5.28638e-07
-0.00250212
9.30036e-07
-0.00305912
1.43027e-06
-0.00361658
2.02145e-06
-0.00417474
2.68513e-06
-0.00473367
3.41088e-06
-0.0052933
4.17336e-06
-0.00585408
4.95834e-06
-0.00641561
5.73701e-06
-0.0069785
6.48474e-06
-0.00754246
7.17792e-06
-0.00810766
7.76673e-06
-0.00867459
8.2553e-06
-0.00924211
8.53527e-06
-0.0098129
8.68878e-06
-0.0103823
8.46942e-06
-0.0109585
8.2054e-06
-0.0115284
7.28362e-06
-0.0121116
6.37322e-06
-0.0126822
4.65256e-06
-0.0132719
2.76037e-06
-0.000277909
-0.000833777
6.28246e-08
-0.00138977
2.50707e-07
-0.00194607
5.59589e-07
-0.00250262
9.8448e-07
-0.00305972
1.51406e-06
-0.00361725
2.13968e-06
-0.00417547
2.84193e-06
-0.00473443
3.60908e-06
-0.00529408
4.41443e-06
-0.00585486
5.24231e-06
-0.00641636
6.06234e-06
-0.0069792
6.84912e-06
-0.00754305
7.57697e-06
-0.00810815
8.19711e-06
-0.00867487
8.70922e-06
-0.00924226
9.0089e-06
-0.00981268
9.16646e-06
-0.010382
8.94746e-06
-0.0109576
8.64365e-06
-0.0115275
7.67702e-06
-0.0121098
6.70428e-06
-0.0126803
4.89658e-06
-0.0132692
2.90757e-06
-0.000277972
-0.000833965
6.62571e-08
-0.00139008
2.644e-07
-0.00194649
5.90198e-07
-0.00250315
1.03835e-06
-0.00306034
1.59702e-06
-0.00361795
2.25685e-06
-0.00417623
2.99749e-06
-0.00473523
3.80596e-06
-0.00529491
4.65414e-06
-0.00585568
5.52477e-06
-0.00641714
6.38562e-06
-0.00697992
7.21026e-06
-0.00754367
7.97061e-06
-0.00810866
8.61877e-06
-0.00867517
9.15031e-06
-0.00924242
9.46558e-06
-0.00981246
9.62546e-06
-0.0103817
9.40857e-06
-0.0109566
9.06281e-06
-0.0115265
8.05164e-06
-0.012108
7.00982e-06
-0.0126784
5.05557e-06
-0.0132663
3.03345e-06
-0.000278038
-0.000834164
6.96587e-08
-0.00139041
2.77961e-07
-0.00194694
6.20487e-07
-0.00250371
1.0916e-06
-0.003061
1.67897e-06
-0.00361869
2.37257e-06
-0.00417704
3.15116e-06
-0.00473608
4.00063e-06
-0.00529578
4.89145e-06
-0.00585654
5.80482e-06
-0.00641797
6.70656e-06
-0.00698069
7.56887e-06
-0.00754432
8.36095e-06
-0.0081092
9.03519e-06
-0.00867548
9.58273e-06
-0.00924258
9.90868e-06
-0.00981224
1.00669e-05
-0.0103813
9.84962e-06
-0.0109556
9.46301e-06
-0.0115255
8.41395e-06
-0.0121061
7.30835e-06
-0.0126763
5.27732e-06
-0.0132632
3.16627e-06
-0.000278108
-0.000834372
7.30327e-08
-0.00139075
2.91403e-07
-0.00194741
6.50458e-07
-0.0025043
1.14419e-06
-0.00306169
1.75973e-06
-0.00361947
2.48639e-06
-0.00417789
3.30211e-06
-0.00473697
4.19177e-06
-0.00529669
5.12459e-06
-0.00585744
6.08036e-06
-0.00641883
7.02304e-06
-0.00698148
7.92335e-06
-0.00754499
8.74761e-06
-0.00810975
9.44783e-06
-0.00867581
1.00102e-05
-0.00924273
1.03436e-05
-0.00981202
1.04935e-05
-0.010381
1.02631e-05
-0.0109545
9.84248e-06
-0.0115243
8.75582e-06
-0.0121041
7.58883e-06
-0.0126742
5.49564e-06
-0.0132601
3.29058e-06
-0.000278181
-0.00083459
7.63697e-08
-0.00139111
3.04683e-07
-0.0019479
6.80008e-07
-0.00250491
1.19591e-06
-0.00306242
1.8389e-06
-0.00362028
2.59765e-06
-0.00417878
3.44927e-06
-0.00473791
4.37777e-06
-0.00529765
5.35128e-06
-0.00585838
6.34844e-06
-0.00641973
7.33153e-06
-0.0069823
8.26993e-06
-0.00754569
9.12717e-06
-0.00811031
9.85447e-06
-0.00867614
1.0433e-05
-0.00924288
1.07741e-05
-0.0098118
1.09147e-05
-0.0103805
1.06674e-05
-0.0109535
1.02116e-05
-0.0115232
9.08803e-06
-0.0121019
7.85862e-06
-0.012672
5.69658e-06
-0.0132568
3.40819e-06
-0.000278257
-0.000834819
7.96435e-08
-0.00139149
3.17697e-07
-0.00194842
7.08915e-07
-0.00250556
1.24637e-06
-0.00306318
1.91594e-06
-0.00362113
2.70558e-06
-0.00417971
3.59158e-06
-0.00473888
4.55715e-06
-0.00529864
5.56942e-06
-0.00585936
6.60616e-06
-0.00642067
7.62827e-06
-0.00698316
8.60404e-06
-0.00754642
9.49457e-06
-0.00811089
1.02502e-05
-0.00867648
1.08471e-05
-0.00924302
1.11983e-05
-0.00981155
1.13316e-05
-0.0103801
1.10697e-05
-0.0109523
1.05742e-05
-0.0115219
9.41643e-06
-0.0120998
8.12414e-06
-0.0126697
5.89221e-06
-0.0132534
3.52191e-06
-0.000278337
-0.000835057
8.2796e-08
-0.00139188
3.30222e-07
-0.00194896
7.36715e-07
-0.00250623
1.29485e-06
-0.00306397
1.98982e-06
-0.00362202
2.80887e-06
-0.00418067
3.72743e-06
-0.00473989
4.72793e-06
-0.00529968
5.77656e-06
-0.00586039
6.85037e-06
-0.00642165
7.90914e-06
-0.00698405
8.92041e-06
-0.00754718
9.84333e-06
-0.00811149
1.06275e-05
-0.00867683
1.1245e-05
-0.00924316
1.16093e-05
-0.00981129
1.17397e-05
-0.0103796
1.14658e-05
-0.0109512
1.09301e-05
-0.0115207
9.74424e-06
-0.0120975
8.39215e-06
-0.0126673
6.0876e-06
-0.0132499
3.63442e-06
-0.00027842
-0.000835304
8.57494e-08
-0.00139229
3.41961e-07
-0.00194952
7.62782e-07
-0.00250692
1.34034e-06
-0.00306478
2.05916e-06
-0.00362294
2.90581e-06
-0.00418167
3.85483e-06
-0.00474094
4.88786e-06
-0.00530075
5.97015e-06
-0.00586145
7.07805e-06
-0.00642266
8.17038e-06
-0.00698497
9.21419e-06
-0.00754796
1.01672e-05
-0.00811211
1.09787e-05
-0.0086772
1.16173e-05
-0.00924329
1.19976e-05
-0.00981102
1.21303e-05
-0.0103791
1.18492e-05
-0.01095
1.12772e-05
-0.0115193
1.00715e-05
-0.0120952
8.66434e-06
-0.0126648
6.28909e-06
-0.0132463
3.749e-06
-0.000278506
-0.00083556
8.84141e-08
-0.00139271
3.52563e-07
-0.00195009
7.8637e-07
-0.00250764
1.38159e-06
-0.00306563
2.12223e-06
-0.00362389
2.99418e-06
-0.0041827
3.97121e-06
-0.00474202
5.0341e-06
-0.00530186
6.14711e-06
-0.00586254
7.28588e-06
-0.0064237
8.40827e-06
-0.00698592
9.48093e-06
-0.00754877
1.04603e-05
-0.00811275
1.12962e-05
-0.00867757
1.19543e-05
-0.00924342
1.23509e-05
-0.00981074
1.24901e-05
-0.0103785
1.22096e-05
-0.0109488
1.16156e-05
-0.0115179
1.03903e-05
-0.0120928
8.93396e-06
-0.0126623
6.49682e-06
-0.0132426
3.8667e-06
-0.000278594
-0.000835824
9.07031e-08
-0.00139314
3.61685e-07
-0.00195069
8.06725e-07
-0.00250838
1.41734e-06
-0.0030665
2.17712e-06
-0.00362487
3.07149e-06
-0.00418377
4.07347e-06
-0.00474314
5.1631e-06
-0.005303
6.30362e-06
-0.00586366
7.46988e-06
-0.00642478
8.61865e-06
-0.0069869
9.71613e-06
-0.00754961
1.07178e-05
-0.0081134
1.15736e-05
-0.00867797
1.22475e-05
-0.00924356
1.26576e-05
-0.00981046
1.28034e-05
-0.0103779
1.25276e-05
-0.0109476
1.19237e-05
-0.0115164
1.06803e-05
-0.0120904
9.18245e-06
-0.0126596
6.70052e-06
-0.0132387
3.98221e-06
-0.000278685
-0.000836095
9.2545e-08
-0.00139358
3.6904e-07
-0.0019513
8.2319e-07
-0.00250914
1.44639e-06
-0.0030674
2.22199e-06
-0.00362587
3.13511e-06
-0.00418486
4.15825e-06
-0.00474428
5.27081e-06
-0.00530417
6.43506e-06
-0.00586481
7.62508e-06
-0.00642587
8.79641e-06
-0.0069879
9.91466e-06
-0.00755046
1.09341e-05
-0.00811408
1.18051e-05
-0.00867838
1.249e-05
-0.0092437
1.29091e-05
-0.00981019
1.30583e-05
-0.0103773
1.27852e-05
-0.0109463
1.21714e-05
-0.0115149
1.09178e-05
-0.0120879
9.38495e-06
-0.0126569
6.87373e-06
-0.0132348
4.07747e-06
-0.000278777
-0.000836372
9.38906e-08
-0.00139404
3.74422e-07
-0.00195192
8.35271e-07
-0.00250992
1.4678e-06
-0.00306831
2.25527e-06
-0.00362689
3.18268e-06
-0.00418597
4.22221e-06
-0.00474544
5.35289e-06
-0.00530536
6.53622e-06
-0.00586598
7.74557e-06
-0.00642699
8.93524e-06
-0.00698892
1.00701e-05
-0.00755133
1.1103e-05
-0.00811477
1.19844e-05
-0.0086788
1.26752e-05
-0.00924385
1.30978e-05
-0.00980991
1.32457e-05
-0.0103767
1.29719e-05
-0.0109451
1.23471e-05
-0.0115134
1.10881e-05
-0.0120854
9.51571e-06
-0.0126541
6.97247e-06
-0.0132307
4.11875e-06
-0.000278871
-0.000836652
9.47271e-08
-0.0013945
3.77769e-07
-0.00195255
8.42797e-07
-0.0025107
1.48118e-06
-0.00306924
2.27617e-06
-0.00362793
3.21284e-06
-0.0041871
4.26322e-06
-0.00474663
5.40634e-06
-0.00530657
6.60308e-06
-0.00586717
7.82664e-06
-0.00642813
9.02982e-06
-0.00698995
1.01773e-05
-0.00755222
1.12196e-05
-0.00811546
1.2108e-05
-0.00867922
1.28e-05
-0.00924399
1.32219e-05
-0.00980964
1.33623e-05
-0.0103761
1.30839e-05
-0.0109438
1.24469e-05
-0.0115118
1.1186e-05
-0.0120828
9.5632e-06
-0.0126512
6.96072e-06
-0.0132266
4.08098e-06
-0.000278966
-0.000836935
9.5434e-08
-0.00139496
3.80592e-07
-0.00195319
8.49126e-07
-0.0025115
1.49242e-06
-0.00307017
2.29376e-06
-0.00362898
3.23834e-06
-0.00418824
4.29827e-06
-0.00474782
5.45279e-06
-0.00530779
6.66263e-06
-0.00586837
7.90099e-06
-0.00642927
9.1199e-06
-0.006991
1.02836e-05
-0.0075531
1.13409e-05
-0.00811615
1.22427e-05
-0.00867964
1.29441e-05
-0.00924413
1.33727e-05
-0.00980936
1.3514e-05
-0.0103754
1.32377e-05
-0.0109426
1.25972e-05
-0.0115102
1.13405e-05
-0.0120802
9.68892e-06
-0.0126484
7.04975e-06
-0.0132225
4.17059e-06
-0.000279061
-0.00083722
9.57426e-08
-0.00139543
3.81816e-07
-0.00195383
8.51848e-07
-0.0025123
1.49722e-06
-0.00307112
2.30125e-06
-0.00363004
3.24931e-06
-0.0041894
4.31367e-06
-0.00474904
5.47395e-06
-0.00530903
6.69111e-06
-0.00586959
7.93866e-06
-0.00643044
9.16852e-06
-0.00699205
1.03446e-05
-0.007554
1.14152e-05
-0.00811685
1.23298e-05
-0.00868007
1.3042e-05
-0.00924427
1.34785e-05
-0.00980908
1.36229e-05
-0.0103748
1.33484e-05
-0.0109413
1.27039e-05
-0.0115086
1.14493e-05
-0.0120776
9.78669e-06
-0.0126454
7.13646e-06
-0.0132184
4.33674e-06
-0.000279157
-0.000837506
9.5542e-08
-0.0013959
3.81004e-07
-0.00195448
8.4999e-07
-0.00251311
1.49389e-06
-0.00307206
2.29605e-06
-0.00363111
3.24201e-06
-0.00419056
4.30425e-06
-0.00475025
5.46285e-06
-0.00531027
6.67912e-06
-0.00587082
7.9273e-06
-0.00643161
9.15959e-06
-0.00699312
1.03404e-05
-0.00755492
1.14179e-05
-0.00811757
1.23408e-05
-0.00868051
1.30615e-05
-0.00924442
1.35053e-05
-0.0098088
1.36526e-05
-0.0103741
1.33787e-05
-0.01094
1.27279e-05
-0.0115069
1.14757e-05
-0.0120749
9.81103e-06
-0.0126425
7.15581e-06
-0.0132142
3.96681e-06
-0.000279252
-0.000837791
9.48686e-08
-0.00139637
3.78309e-07
-0.00195512
8.43938e-07
-0.00251391
1.4832e-06
-0.00307301
2.27948e-06
-0.00363217
3.21854e-06
-0.00419171
4.27302e-06
-0.00475147
5.42349e-06
-0.00531152
6.63163e-06
-0.00587205
7.87252e-06
-0.0064328
9.09897e-06
-0.0069942
1.02765e-05
-0.00755584
1.13537e-05
-0.00811829
1.22799e-05
-0.00868096
1.30068e-05
-0.00924456
1.34583e-05
-0.00980853
1.36118e-05
-0.0103735
1.33418e-05
-0.0109388
1.26858e-05
-0.0115053
1.14309e-05
-0.0120723
9.75595e-06
-0.0126397
7.14358e-06
-0.0132098
3.94374e-06
-0.000279347
-0.000838074
9.37486e-08
-0.00139684
3.73845e-07
-0.00195576
8.3398e-07
-0.00251471
1.46572e-06
-0.00307395
2.25262e-06
-0.00363322
3.18066e-06
-0.00419286
4.22273e-06
-0.00475268
5.35981e-06
-0.00531276
6.55389e-06
-0.00587328
7.78083e-06
-0.00643397
8.9941e-06
-0.00699528
1.01606e-05
-0.00755677
1.12301e-05
-0.00811901
1.21533e-05
-0.00868141
1.28823e-05
-0.00924471
1.33411e-05
-0.00980826
1.35049e-05
-0.0103728
1.32465e-05
-0.0109375
1.25961e-05
-0.0115036
1.13439e-05
-0.0120697
9.6471e-06
-0.0126368
7.09484e-06
-0.0132056
4.19914e-06
-0.00027944
-0.000838354
9.2209e-08
-0.0013973
3.67724e-07
-0.00195639
8.20384e-07
-0.00251549
1.44199e-06
-0.00307488
2.21636e-06
-0.00363427
3.12986e-06
-0.004194
4.15567e-06
-0.00475387
5.27523e-06
-0.00531399
6.45075e-06
-0.00587449
7.65873e-06
-0.00643514
8.85311e-06
-0.00699635
1.00023e-05
-0.00755769
1.10569e-05
-0.00811974
1.19701e-05
-0.00868187
1.26951e-05
-0.00924488
1.31578e-05
-0.009808
1.33329e-05
-0.0103722
1.30929e-05
-0.0109363
1.24625e-05
-0.0115019
1.12329e-05
-0.0120671
9.54435e-06
-0.0126338
7.01749e-06
-0.0132014
4.16879e-06
-0.000279533
-0.000838629
9.02901e-08
-0.00139775
3.60105e-07
-0.00195701
8.03494e-07
-0.00251627
1.4126e-06
-0.00307579
2.17163e-06
-0.00363529
3.06748e-06
-0.00419512
4.0738e-06
-0.00475505
5.17254e-06
-0.0053152
6.32619e-06
-0.00587569
7.51178e-06
-0.00643629
8.68353e-06
-0.0069974
9.81099e-06
-0.0075586
1.08456e-05
-0.00812047
1.17427e-05
-0.00868234
1.24567e-05
-0.00924505
1.2917e-05
-0.00980776
1.30995e-05
-0.0103716
1.28788e-05
-0.010935
1.22772e-05
-0.0115002
1.10868e-05
-0.0120646
9.43424e-06
-0.012631
6.93929e-06
-0.0131973
4.12273e-06
-0.000279623
-0.000838899
8.80505e-08
-0.00139819
3.51214e-07
-0.00195762
7.83794e-07
-0.00251703
1.37834e-06
-0.00307669
2.11956e-06
-0.0036363
2.99501e-06
-0.00419622
3.97898e-06
-0.0047562
5.05411e-06
-0.00531638
6.18332e-06
-0.00587686
7.3442e-06
-0.00643742
8.49121e-06
-0.00699843
9.59483e-06
-0.0075595
1.06067e-05
-0.00812118
1.1484e-05
-0.0086828
1.21816e-05
-0.00924523
1.26328e-05
-0.00980754
1.28157e-05
-0.010371
1.26092e-05
-0.0109338
1.20369e-05
-0.0114986
1.08933e-05
-0.0120621
9.29101e-06
-0.0126282
6.85817e-06
-0.0131931
4.06789e-06
-0.000279711
-0.000839161
8.55653e-08
-0.00139863
3.41344e-07
-0.00195822
7.61905e-07
-0.00251777
1.34023e-06
-0.00307756
2.06159e-06
-0.00363728
2.91426e-06
-0.00419729
3.87332e-06
-0.00475733
4.92226e-06
-0.00531754
6.02471e-06
-0.00587801
7.15898e-06
-0.00643852
8.28e-06
-0.00699945
9.35912e-06
-0.00756038
1.03479e-05
-0.00812188
1.12048e-05
-0.00868325
1.1884e-05
-0.00924541
1.23221e-05
-0.00980733
1.24984e-05
-0.0103704
1.22977e-05
-0.0109327
1.17471e-05
-0.011497
1.0648e-05
-0.0120597
9.10884e-06
-0.0126254
6.77611e-06
-0.0131891
4.00834e-06
-0.000279796
-0.000839417
8.29175e-08
-0.00139905
3.30817e-07
-0.0019588
7.38527e-07
-0.00251849
1.29943e-06
-0.00307841
1.99939e-06
-0.00363824
2.82737e-06
-0.00419834
3.75929e-06
-0.00475844
4.77963e-06
-0.00531868
5.85295e-06
-0.00587913
6.95859e-06
-0.0064396
8.05227e-06
-0.00700044
9.10653e-06
-0.00756123
1.0073e-05
-0.00812256
1.09108e-05
-0.00868369
1.15733e-05
-0.00924558
1.19987e-05
-0.00980713
1.2166e-05
-0.0103698
1.19648e-05
-0.0109316
1.1424e-05
-0.0114954
1.03553e-05
-0.0120573
8.87488e-06
-0.0126226
6.64958e-06
-0.0131851
3.93099e-06
-0.000279879
-0.000839665
8.01837e-08
-0.00139945
3.19936e-07
-0.00195936
7.14322e-07
-0.00251919
1.25709e-06
-0.00307924
1.93462e-06
-0.00363917
2.73654e-06
-0.00419936
3.63959e-06
-0.00475951
4.62921e-06
-0.00531978
5.67101e-06
-0.00588022
6.74566e-06
-0.00644066
7.81002e-06
-0.0070014
8.83823e-06
-0.00756207
9.78246e-06
-0.00812323
1.06029e-05
-0.00868411
1.12522e-05
-0.00924575
1.16691e-05
-0.00980692
1.18315e-05
-0.0103693
1.16307e-05
-0.0109305
1.10943e-05
-0.011494
1.00416e-05
-0.0120551
8.5922e-06
-0.0126199
6.42132e-06
-0.0131811
3.82026e-06
-0.000279959
-0.000839904
7.74217e-08
-0.00139985
3.08933e-07
-0.0019599
6.89809e-07
-0.00251987
1.21411e-06
-0.00308004
1.86869e-06
-0.00364008
2.64374e-06
-0.00420035
3.51671e-06
-0.00476055
4.47395e-06
-0.00532086
5.48207e-06
-0.00588129
6.52318e-06
-0.00644169
7.55561e-06
-0.00700235
8.55531e-06
-0.00756289
9.4757e-06
-0.00812388
1.02785e-05
-0.00868453
1.09169e-05
-0.00924591
1.13299e-05
-0.00980672
1.14951e-05
-0.0103688
1.13025e-05
-0.0109295
1.07772e-05
-0.0114925
9.74094e-06
-0.0120529
8.31364e-06
-0.0126173
6.18868e-06
-0.0131773
3.67668e-06
-0.000280037
-0.000840136
7.46625e-08
-0.00140023
2.97933e-07
-0.00196042
6.65281e-07
-0.00252052
1.17104e-06
-0.00308082
1.80248e-06
-0.00364095
2.55027e-06
-0.0042013
3.39244e-06
-0.00476156
4.31616e-06
-0.0053219
5.28891e-06
-0.00588232
6.29419e-06
-0.00644269
7.29176e-06
-0.00700327
8.2596e-06
-0.00756369
9.1526e-06
-0.00812452
9.93482e-06
-0.00868494
1.05613e-05
-0.00924607
1.09719e-05
-0.00980652
1.11458e-05
-0.0103682
1.09704e-05
-0.0109284
1.04701e-05
-0.0114911
9.46027e-06
-0.0120508
8.05948e-06
-0.0126148
5.97162e-06
-0.0131736
3.49016e-06
-0.000280111
-0.000840359
7.19049e-08
-0.0014006
2.86935e-07
-0.00196093
6.40747e-07
-0.00252115
1.12792e-06
-0.00308156
1.73612e-06
-0.00364179
2.45641e-06
-0.00420223
3.26733e-06
-0.00476253
4.1567e-06
-0.0053229
5.09285e-06
-0.00588332
6.06043e-06
-0.00644366
7.02044e-06
-0.00700416
7.95278e-06
-0.00756447
8.81389e-06
-0.00812515
9.5704e-06
-0.00868535
1.01804e-05
-0.00924625
1.05849e-05
-0.00980634
1.07676e-05
-0.0103677
1.06129e-05
-0.0109274
1.01515e-05
-0.0114897
9.18491e-06
-0.0120487
7.83796e-06
-0.0126123
5.7924e-06
-0.0131701
3.3168e-06
-0.000280183
-0.000840574
6.91259e-08
-0.00140095
2.75852e-07
-0.00196142
6.1602e-07
-0.00252176
1.08445e-06
-0.00308228
1.66917e-06
-0.0036426
2.3616e-06
-0.00420311
3.14078e-06
-0.00476347
3.99504e-06
-0.00532387
4.89357e-06
-0.00588428
5.82192e-06
-0.00644459
6.74217e-06
-0.00700503
7.63574e-06
-0.00756522
8.46056e-06
-0.00812576
9.18548e-06
-0.00868576
9.77227e-06
-0.00924643
1.01629e-05
-0.00980618
1.0347e-05
-0.0103673
1.02069e-05
-0.0109265
9.78755e-06
-0.0114883
8.87249e-06
-0.0120467
7.61166e-06
-0.0126098
5.64879e-06
-0.0131668
3.29232e-06
-0.000280253
-0.000840781
6.62763e-08
-0.00140129
2.64491e-07
-0.00196189
5.9067e-07
-0.00252235
1.03986e-06
-0.00308298
1.60047e-06
-0.00364338
2.26425e-06
-0.00420397
3.0107e-06
-0.00476437
3.82869e-06
-0.0053248
4.68829e-06
-0.00588521
5.57574e-06
-0.00644548
6.45416e-06
-0.00700585
7.30602e-06
-0.00756594
8.09081e-06
-0.00812635
8.77884e-06
-0.00868615
9.33574e-06
-0.00924661
9.70324e-06
-0.00980604
9.87733e-06
-0.0103669
9.73818e-06
-0.0109256
9.35046e-06
-0.0114871
8.47755e-06
-0.0120447
7.30874e-06
-0.0126075
5.44107e-06
-0.0131635
3.22779e-06
-0.000280319
-0.00084098
6.3289e-08
-0.00140162
2.52576e-07
-0.00196233
5.64074e-07
-0.00252291
9.93048e-07
-0.00308364
1.52829e-06
-0.00364413
2.16189e-06
-0.00420478
2.87379e-06
-0.00476523
3.65354e-06
-0.00532569
4.47191e-06
-0.00588609
5.31622e-06
-0.00644634
6.14987e-06
-0.00700664
6.95733e-06
-0.00756663
7.69783e-06
-0.0081269
8.34552e-06
-0.00868652
8.8653e-06
-0.00924679
9.2038e-06
-0.00980591
9.35297e-06
-0.0103665
9.20386e-06
-0.0109247
8.82428e-06
-0.0114859
7.98202e-06
-0.0120429
6.88228e-06
-0.0126053
5.11241e-06
-0.0131603
3.04601e-06
-0.000280382
-0.000841169
6.0421e-08
-0.00140193
2.41127e-07
-0.00196276
5.38522e-07
-0.00252344
9.48103e-07
-0.00308427
1.45901e-06
-0.00364484
2.06371e-06
-0.00420556
2.74259e-06
-0.00476605
3.48604e-06
-0.00532653
4.26541e-06
-0.00588692
5.06946e-06
-0.00644714
5.86126e-06
-0.00700738
6.62829e-06
-0.00756728
7.32807e-06
-0.00812741
7.94097e-06
-0.00868686
8.42713e-06
-0.00924694
8.74259e-06
-0.00980577
8.8661e-06
-0.0103661
8.71003e-06
-0.0109239
8.32725e-06
-0.0114848
7.51505e-06
-0.0120411
6.45993e-06
-0.0126032
4.77683e-06
-0.0131573
2.82077e-06
-0.000280443
-0.00084135
5.78842e-08
-0.00140223
2.31017e-07
-0.00196317
5.15988e-07
-0.00252395
9.08527e-07
-0.00308488
1.39812e-06
-0.00364552
1.9776e-06
-0.00420631
2.62794e-06
-0.00476683
3.34024e-06
-0.00532733
4.087e-06
-0.00588772
4.85753e-06
-0.00644791
5.6161e-06
-0.00700809
6.3508e-06
-0.00756789
7.0216e-06
-0.00812789
7.6093e-06
-0.00868717
8.07805e-06
-0.00924707
8.38058e-06
-0.00980563
8.49955e-06
-0.0103657
8.34352e-06
-0.0109231
7.9785e-06
-0.0114837
7.19476e-06
-0.0120394
6.20154e-06
-0.0126013
4.57848e-06
-0.0131544
2.74627e-06
-0.000280501
-0.000841524
5.51493e-08
-0.00140251
2.20121e-07
-0.00196357
4.91698e-07
-0.00252444
8.65847e-07
-0.00308545
1.33238e-06
-0.00364617
1.88456e-06
-0.00420702
2.50402e-06
-0.00476757
3.18262e-06
-0.00532811
3.89417e-06
-0.00588848
4.62842e-06
-0.00644865
5.35107e-06
-0.00700876
6.05045e-06
-0.00756848
6.68978e-06
-0.00812835
7.24967e-06
-0.00868747
7.69961e-06
-0.00924719
7.98785e-06
-0.00980548
8.1047e-06
-0.0103653
7.95033e-06
-0.0109223
7.60471e-06
-0.0114827
6.84777e-06
-0.0120378
5.90228e-06
-0.0125994
4.32971e-06
-0.0131517
2.66747e-06
-0.000280556
-0.000841689
5.21879e-08
-0.00140278
2.0833e-07
-0.00196394
4.65418e-07
-0.00252491
8.19669e-07
-0.00308601
1.26124e-06
-0.00364678
1.78384e-06
-0.0042077
2.36986e-06
-0.00476828
3.01205e-06
-0.00532884
3.68562e-06
-0.0058892
4.38075e-06
-0.00644935
5.06466e-06
-0.0070094
5.72576e-06
-0.00756904
6.3308e-06
-0.00812879
6.86002e-06
-0.00868776
7.28854e-06
-0.00924731
7.56037e-06
-0.00980534
7.67683e-06
-0.010365
7.52868e-06
-0.0109215
7.21151e-06
-0.0114818
6.48698e-06
-0.0120362
5.57729e-06
-0.0125978
4.03323e-06
-0.013149
2.46869e-06
-0.000280609
-0.000841846
4.8975e-08
-0.00140304
1.9555e-07
-0.00196429
4.3695e-07
-0.00252535
7.69671e-07
-0.00308653
1.18422e-06
-0.00364737
1.67482e-06
-0.00420834
2.22474e-06
-0.00476896
2.82767e-06
-0.00532953
3.46039e-06
-0.00588989
4.11346e-06
-0.00645001
4.75602e-06
-0.00701001
5.37596e-06
-0.00756957
5.94437e-06
-0.0081292
6.43988e-06
-0.00868803
6.84452e-06
-0.00924743
7.09633e-06
-0.0098052
7.21225e-06
-0.0103646
7.07165e-06
-0.0109208
6.79345e-06
-0.0114808
6.10815e-06
-0.0120346
5.2821e-06
-0.0125962
4.03141e-06
-0.0131466
2.31368e-06
-0.000280658
-0.000841993
4.54868e-08
-0.00140328
1.8169e-07
-0.00196463
4.06105e-07
-0.00252576
7.15529e-07
-0.00308702
1.10086e-06
-0.00364792
1.55691e-06
-0.00420894
2.06789e-06
-0.00476959
2.62854e-06
-0.00533019
3.21737e-06
-0.00589053
3.82524e-06
-0.00645064
4.42387e-06
-0.00701058
4.99988e-06
-0.00757007
5.52972e-06
-0.0081296
5.98883e-06
-0.00868828
6.36804e-06
-0.00924754
6.59659e-06
-0.00980505
6.7115e-06
-0.0103644
6.57494e-06
-0.0109201
6.33094e-06
-0.01148
5.67576e-06
-0.0120331
4.9707e-06
-0.0125948
3.62871e-06
-0.0131443
2.15662e-06
-0.000280703
-0.000842129
4.1711e-08
-0.00140351
1.66698e-07
-0.00196494
3.72749e-07
-0.00252615
6.57012e-07
-0.00308747
1.01081e-06
-0.00364843
1.42964e-06
-0.0042095
1.89871e-06
-0.00477018
2.41386e-06
-0.00533079
2.95551e-06
-0.00589113
3.51473e-06
-0.00645122
4.06683e-06
-0.00701112
4.59599e-06
-0.00757053
5.08575e-06
-0.00812997
5.50576e-06
-0.00868851
5.85892e-06
-0.00924765
6.06249e-06
-0.00980492
6.18064e-06
-0.0103641
6.04458e-06
-0.0109194
5.82488e-06
-0.0114793
5.17561e-06
-0.0120318
4.60699e-06
-0.0125933
3.32529e-06
-0.0131421
1.97464e-06
-0.000280745
-0.000842255
3.76548e-08
-0.00140371
1.50581e-07
-0.00196522
3.36866e-07
-0.0025265
5.94031e-07
-0.00308789
9.13942e-07
-0.0036489
1.29285e-06
-0.00421002
1.71696e-06
-0.00477072
2.18325e-06
-0.00533135
2.67422e-06
-0.00589169
3.18099e-06
-0.00645175
3.68383e-06
-0.00701161
4.16294e-06
-0.00757095
4.61167e-06
-0.00813032
4.98932e-06
-0.00868872
5.31629e-06
-0.00924777
5.49261e-06
-0.00980479
5.62143e-06
-0.0103639
5.48308e-06
-0.0109188
5.33624e-06
-0.0114788
5.01771e-06
-0.0120305
4.0966e-06
-0.012592
3.01598e-06
-0.0131401
1.78305e-06
-0.000280783
-0.000842368
3.33445e-08
-0.0014039
1.33408e-07
-0.00196548
2.9855e-07
-0.00252682
5.26715e-07
-0.00308827
8.10354e-07
-0.00364933
1.1467e-06
-0.00421048
1.5229e-06
-0.00477121
1.93697e-06
-0.00533186
2.37363e-06
-0.00589219
2.82378e-06
-0.00645223
3.27457e-06
-0.00701206
3.70003e-06
-0.00757133
4.1078e-06
-0.00813065
4.4388e-06
-0.0086889
4.74207e-06
-0.00924789
4.88531e-06
-0.00980466
5.02836e-06
-0.0103637
4.86468e-06
-0.0109181
4.82094e-06
-0.0114782
4.35362e-06
-0.0120294
3.66426e-06
-0.0125908
2.71895e-06
-0.0131383
1.60413e-06
-0.000280817
-0.000842468
2.87994e-08
-0.00140407
1.1525e-07
-0.0019657
2.57943e-07
-0.0025271
4.55292e-07
-0.00308861
7.00399e-07
-0.0036497
9.91749e-07
-0.0042109
1.31738e-06
-0.00477164
1.67601e-06
-0.00533231
2.05488e-06
-0.00589264
2.44391e-06
-0.00645266
2.84018e-06
-0.00701247
3.20726e-06
-0.00757166
3.57625e-06
-0.00813095
3.85355e-06
-0.00868905
4.14378e-06
-0.00924803
4.24314e-06
-0.00980446
4.42856e-06
-0.0103637
4.56698e-06
-0.0109176
4.15231e-06
-0.0114776
3.76377e-06
-0.0120285
3.2024e-06
-0.0125896
2.38838e-06
-0.0131367
1.40765e-06
-0.000280846
-0.000842555
2.39885e-08
-0.00140421
9.61197e-08
-0.0019659
2.15191e-07
-0.00252735
3.80175e-07
-0.0030889
5.84813e-07
-0.00365003
8.29053e-07