/*--------------------------------*- C++ -*----------------------------------*\
  =========                 |
  \\      /  F ield         | OpenFOAM: The Open Source CFD Toolbox
   \\    /   O peration     | Website:  https://openfoam.org
    \\  /    A nd           | Version:  10
     \\/     M anipulation  |
\*---------------------------------------------------------------------------*/
FoamFile
{
    format      ascii;
    class       volScalarField;
    location    "0.39";
    object      rho;
}
// * * * * * * * * * * * * * * * * * * * * * * * * * * * * * * * * * * * * * //

dimensions      [1 -3 0 0 0 0 0];

internalField   nonuniform List<scalar> 
4176
(
0.0308487
0.0308517
0.0308579
0.0308683
0.0308813
0.0308978
0.0309186
0.0309401
0.0309693
0.0309956
0.0310323
0.0310647
0.0311069
0.0311475
0.0311924
0.0312439
0.0312871
0.0313549
0.0313933
0.0314789
0.0315109
0.031616
0.0316359
0.0317506
0.0308567
0.0308596
0.0308648
0.0308748
0.0308857
0.0309016
0.0309192
0.0309399
0.0309649
0.03099
0.031022
0.0310523
0.0310899
0.031127
0.0311681
0.0312141
0.0312541
0.0313144
0.03135
0.0314266
0.031454
0.0315541
0.0315745
0.0317038
0.030876
0.0308789
0.0308844
0.0308947
0.0309062
0.0309224
0.0309409
0.0309621
0.0309884
0.031014
0.0310477
0.0310787
0.0311182
0.0311562
0.0311995
0.0312468
0.0312891
0.031352
0.0313877
0.031468
0.0314956
0.0315945
0.0316131
0.0317345
0.0309047
0.0309076
0.0309129
0.0309229
0.0309341
0.0309498
0.0309679
0.0309884
0.0310142
0.0310388
0.031072
0.0311016
0.0311408
0.031177
0.03122
0.0312654
0.0313074
0.0313703
0.0314014
0.0314841
0.0315093
0.0316069
0.0316243
0.0317368
0.0309441
0.030947
0.0309523
0.0309624
0.0309734
0.0309893
0.0310072
0.031028
0.0310534
0.0310784
0.0311112
0.0311412
0.0311801
0.0312165
0.0312596
0.0313044
0.0313484
0.0314082
0.031443
0.0315235
0.0315505
0.0316474
0.0316664
0.0317805
0.0309936
0.0309965
0.0310017
0.0310117
0.0310225
0.0310383
0.0310558
0.0310764
0.0311013
0.0311261
0.0311583
0.0311881
0.0312263
0.0312623
0.0313049
0.0313488
0.0313931
0.03145
0.0314881
0.0315647
0.0315925
0.0316884
0.0317082
0.0318237
0.0310535
0.0310564
0.0310615
0.0310714
0.0310822
0.0310978
0.0311151
0.0311356
0.0311603
0.0311849
0.0312168
0.0312463
0.0312842
0.0313198
0.0313623
0.0314054
0.0314499
0.0315051
0.0315442
0.0316189
0.0316479
0.0317421
0.0317623
0.0318758
0.0311237
0.0311265
0.0311316
0.0311414
0.031152
0.0311675
0.0311845
0.0312048
0.0312291
0.0312534
0.0312849
0.031314
0.0313516
0.0313865
0.0314288
0.0314709
0.0315155
0.0315689
0.0316091
0.0316811
0.0317112
0.031804
0.0318246
0.0319368
0.0312042
0.031207
0.031212
0.0312217
0.0312321
0.0312475
0.0312643
0.0312844
0.0313084
0.0313324
0.0313635
0.0313922
0.0314293
0.0314637
0.0315057
0.031547
0.0315916
0.0316432
0.0316843
0.0317539
0.0317849
0.0318759
0.0318969
0.0320073
0.031295
0.0312978
0.0313027
0.0313124
0.0313226
0.0313379
0.0313544
0.0313742
0.0313979
0.0314216
0.0314523
0.0314805
0.0315172
0.0315509
0.0315925
0.0316329
0.0316774
0.0317274
0.0317692
0.0318363
0.0318686
0.0319566
0.0319784
0.032087
0.0313963
0.0313991
0.0314039
0.0314135
0.0314235
0.0314386
0.0314549
0.0314744
0.0314977
0.0315211
0.0315513
0.0315791
0.0316153
0.0316484
0.0316895
0.0317289
0.0317732
0.0318218
0.031864
0.0319288
0.0319619
0.0320473
0.0320697
0.0321762
0.031508
0.0315108
0.0315155
0.031525
0.0315349
0.0315497
0.0315657
0.031585
0.0316079
0.0316309
0.0316607
0.0316879
0.0317236
0.031756
0.0317967
0.0318351
0.0318791
0.0319262
0.0319688
0.0320312
0.0320647
0.0321481
0.0321705
0.0322749
0.0316303
0.0316331
0.0316377
0.031647
0.0316567
0.0316714
0.031687
0.031706
0.0317286
0.0317511
0.0317804
0.0318071
0.0318423
0.031874
0.0319141
0.0319515
0.0319951
0.0320407
0.0320836
0.0321436
0.0321778
0.0322584
0.0322811
0.0323832
0.0317632
0.0317659
0.0317705
0.0317797
0.0317891
0.0318036
0.0318189
0.0318376
0.0318597
0.0318818
0.0319106
0.0319367
0.0319713
0.0320022
0.0320418
0.0320782
0.0321213
0.0321654
0.0322084
0.032266
0.0323007
0.0323789
0.0324015
0.0325012
0.0319068
0.0319095
0.0319139
0.031923
0.0319322
0.0319465
0.0319614
0.0319797
0.0320014
0.032023
0.0320512
0.0320768
0.0321107
0.0321409
0.0321798
0.0322151
0.0322577
0.0323003
0.0323433
0.0323985
0.0324337
0.0325091
0.0325318
0.032629
0.0320612
0.0320639
0.0320682
0.0320771
0.0320861
0.0321001
0.0321147
0.0321326
0.0321537
0.0321748
0.0322025
0.0322273
0.0322606
0.03229
0.0323282
0.0323625
0.0324044
0.0324455
0.0324883
0.0325411
0.0325766
0.0326493
0.0326724
0.0327667
0.0322265
0.0322291
0.0322333
0.0322421
0.0322508
0.0322645
0.0322787
0.0322962
0.0323168
0.0323374
0.0323644
0.0323885
0.0324211
0.0324495
0.0324871
0.0325202
0.0325615
0.0326011
0.0326435
0.032694
0.0327299
0.0327995
0.032823
0.0329144
0.0324027
0.0324054
0.0324094
0.0324181
0.0324265
0.0324399
0.0324536
0.0324707
0.0324907
0.0325107
0.032537
0.0325604
0.0325923
0.0326197
0.0326565
0.0326884
0.032729
0.0327671
0.0328091
0.0328571
0.0328933
0.0329599
0.0329837
0.0330722
0.0325901
0.0325927
0.0325966
0.0326051
0.0326132
0.0326263
0.0326396
0.0326562
0.0326756
0.032695
0.0327206
0.0327432
0.0327742
0.0328007
0.0328366
0.0328673
0.0329071
0.0329436
0.032985
0.0330306
0.033067
0.0331306
0.0331547
0.0332401
0.0327887
0.0327912
0.032795
0.0328033
0.0328111
0.0328238
0.0328366
0.0328527
0.0328715
0.0328902
0.032915
0.0329368
0.0329669
0.0329924
0.0330274
0.0330568
0.0330957
0.0331306
0.0331714
0.0332147
0.0332512
0.0333116
0.033336
0.0334183
0.0329985
0.0330011
0.0330047
0.0330127
0.0330202
0.0330325
0.0330449
0.0330604
0.0330786
0.0330966
0.0331206
0.0331415
0.0331707
0.0331951
0.033229
0.0332571
0.0332951
0.0333283
0.0333684
0.0334093
0.0334457
0.0335032
0.0335278
0.0336067
0.0332198
0.0332223
0.0332258
0.0332336
0.0332407
0.0332526
0.0332644
0.0332794
0.0332969
0.0333141
0.0333373
0.0333573
0.0333855
0.0334088
0.0334417
0.0334684
0.0335053
0.0335369
0.0335761
0.0336147
0.0336511
0.033705
0.0337299
0.0338055
0.0334526
0.0334551
0.0334583
0.0334659
0.0334726
0.0334842
0.0334954
0.0335098
0.0335265
0.033543
0.0335653
0.0335843
0.0336115
0.0336336
0.0336655
0.0336907
0.0337266
0.0337563
0.0337946
0.0338309
0.0338669
0.0339178
0.0339427
0.0340147
0.033697
0.0336994
0.0337025
0.0337098
0.0337162
0.0337272
0.0337378
0.0337516
0.0337676
0.0337832
0.0338046
0.0338226
0.0338488
0.0338697
0.0339005
0.0339242
0.0339589
0.0339869
0.0340241
0.034058
0.0340938
0.0341411
0.0341662
0.0342345
0.0339531
0.0339555
0.0339583
0.0339654
0.0339713
0.033982
0.033992
0.0340051
0.0340202
0.034035
0.0340555
0.0340724
0.0340975
0.0341172
0.0341468
0.034169
0.0342025
0.0342287
0.0342648
0.0342963
0.0343316
0.0343757
0.0344005
0.034465
0.0342209
0.0342232
0.0342259
0.0342328
0.0342383
0.0342484
0.0342578
0.0342702
0.0342846
0.0342985
0.0343179
0.0343338
0.0343578
0.0343761
0.0344045
0.0344252
0.0344575
0.0344817
0.0345167
0.0345458
0.0345806
0.0346212
0.0346459
0.0347065
0.0345006
0.0345029
0.0345054
0.0345119
0.034517
0.0345267
0.0345354
0.0345472
0.0345607
0.0345737
0.0345921
0.0346068
0.0346297
0.0346467
0.0346738
0.0346929
0.0347239
0.0347462
0.03478
0.0348068
0.0348407
0.0348779
0.0349025
0.0349595
0.0347923
0.0347945
0.0347968
0.0348031
0.0348077
0.0348169
0.034825
0.0348361
0.0348487
0.0348608
0.0348781
0.0348917
0.0349133
0.0349289
0.0349548
0.0349723
0.0350019
0.0350223
0.0350548
0.0350792
0.0351122
0.0351458
0.0351704
0.0352235
0.0350959
0.0350981
0.0351002
0.0351062
0.0351104
0.0351191
0.0351265
0.0351369
0.0351487
0.0351598
0.0351761
0.0351886
0.0352089
0.0352231
0.0352476
0.0352634
0.0352916
0.0353101
0.0353413
0.0353633
0.0353952
0.0354253
0.0354498
0.0354987
0.0354117
0.0354138
0.0354157
0.0354214
0.0354252
0.0354334
0.0354402
0.0354499
0.0354607
0.0354709
0.0354862
0.0354974
0.0355166
0.0355293
0.0355524
0.0355665
0.0355932
0.0356097
0.0356395
0.035659
0.03569
0.0357164
0.0357412
0.0357851
0.0357397
0.0357418
0.0357434
0.0357489
0.0357522
0.0357599
0.035766
0.035775
0.035785
0.0357942
0.0358084
0.0358185
0.0358364
0.0358476
0.0358693
0.0358817
0.0359069
0.0359213
0.0359497
0.0359668
0.0359965
0.0360196
0.0360439
0.0360837
0.03608
0.036082
0.0360834
0.0360886
0.0360915
0.0360987
0.0361041
0.0361123
0.0361215
0.0361298
0.0361429
0.0361517
0.0361684
0.0361782
0.0361985
0.0362091
0.0362329
0.0362451
0.036272
0.0362865
0.036315
0.0363348
0.0363588
0.0363941
0.0364327
0.0364346
0.0364358
0.0364408
0.0364432
0.0364499
0.0364546
0.0364621
0.0364703
0.0364777
0.0364897
0.0364974
0.0365128
0.0365211
0.0365401
0.0365489
0.0365712
0.0365813
0.0366066
0.0366185
0.0366457
0.0366623
0.036686
0.0367166
0.0367979
0.0367997
0.0368007
0.0368054
0.0368073
0.0368136
0.0368176
0.0368244
0.0368317
0.0368381
0.036849
0.0368555
0.0368697
0.0368765
0.0368941
0.0369012
0.036922
0.03693
0.0369537
0.036963
0.0369887
0.037002
0.0370254
0.0370513
0.0371755
0.0371774
0.0371782
0.0371826
0.037184
0.0371898
0.0371931
0.0371992
0.0372056
0.037211
0.0372209
0.0372262
0.0372391
0.0372445
0.0372607
0.037266
0.0372853
0.0372912
0.0373135
0.0373202
0.0373445
0.0373544
0.0373771
0.0373983
0.0375659
0.0375677
0.0375683
0.0375724
0.0375734
0.0375787
0.0375814
0.0375868
0.0375923
0.0375968
0.0376055
0.0376096
0.0376212
0.0376251
0.03764
0.0376435
0.0376614
0.0376651
0.0376859
0.03769
0.0377129
0.0377196
0.0377414
0.0377579
0.037969
0.0379707
0.0379711
0.037975
0.0379756
0.0379805
0.0379824
0.0379871
0.0379918
0.0379953
0.038003
0.0380058
0.0380162
0.0380186
0.0380321
0.0380337
0.0380502
0.0380517
0.0380712
0.0380727
0.0380942
0.0380977
0.0381183
0.03813
0.0383849
0.0383866
0.0383868
0.0383905
0.0383906
0.038395
0.0383963
0.0384004
0.0384042
0.0384067
0.0384134
0.038415
0.0384242
0.038425
0.0384371
0.0384369
0.0384519
0.0384512
0.0384692
0.0384681
0.0384883
0.0384888
0.0385083
0.0385152
0.0388139
0.0388155
0.0388155
0.0388189
0.0388187
0.0388226
0.0388233
0.0388266
0.0388296
0.0388312
0.0388368
0.0388373
0.0388452
0.0388446
0.0388553
0.0388532
0.0388667
0.0388638
0.0388803
0.0388766
0.0388954
0.0388927
0.0389113
0.0389134
0.0392559
0.0392575
0.0392574
0.0392605
0.0392598
0.0392633
0.0392633
0.039266
0.0392681
0.0392688
0.0392734
0.0392727
0.0392794
0.0392772
0.0392866
0.0392827
0.0392947
0.0392895
0.0393045
0.0392981
0.0393154
0.0393097
0.0393271
0.0393251
0.0397112
0.0397128
0.0397124
0.0397153
0.0397142
0.0397173
0.0397166
0.0397186
0.0397199
0.0397197
0.0397232
0.0397213
0.0397268
0.0397232
0.0397312
0.0397255
0.0397361
0.0397286
0.0397422
0.0397329
0.0397488
0.0397396
0.0397559
0.0397501
0.0401798
0.0401814
0.0401808
0.0401835
0.0401819
0.0401845
0.0401832
0.0401846
0.0401849
0.0401839
0.0401863
0.0401833
0.0401876
0.0401825
0.0401892
0.0401817
0.0401909
0.0401811
0.0401933
0.0401812
0.0401957
0.0401832
0.0401983
0.0401882
0.040662
0.0406635
0.0406627
0.0406651
0.0406631
0.0406653
0.0406633
0.040664
0.0406635
0.0406615
0.0406629
0.0406587
0.0406618
0.0406552
0.0406606
0.0406512
0.0406591
0.0406471
0.0406579
0.040643
0.0406564
0.0406401
0.0406544
0.0406395
0.0411577
0.0411592
0.0411581
0.0411604
0.0411579
0.0411596
0.041157
0.041157
0.0411556
0.0411527
0.041153
0.0411476
0.0411495
0.0411414
0.0411455
0.0411343
0.0411409
0.0411266
0.0411362
0.0411184
0.0411307
0.0411108
0.0411244
0.0411048
0.0416671
0.0416685
0.0416673
0.0416693
0.0416663
0.0416676
0.0416643
0.0416636
0.0416614
0.0416575
0.0416568
0.0416502
0.0416508
0.0416413
0.041644
0.0416311
0.0416362
0.0416197
0.0416279
0.0416073
0.0416187
0.0415951
0.0416081
0.0415841
0.0421902
0.0421916
0.0421902
0.0421919
0.0421885
0.0421894
0.0421853
0.042184
0.0421808
0.042176
0.0421743
0.0421665
0.0421659
0.0421549
0.0421561
0.0421414
0.0421453
0.0421264
0.0421334
0.0421099
0.0421204
0.0420931
0.0421057
0.0420767
0.0427271
0.0427285
0.0427269
0.0427284
0.0427245
0.0427249
0.0427202
0.0427182
0.0427141
0.0427084
0.0427056
0.0426965
0.0426947
0.0426822
0.0426821
0.0426656
0.0426681
0.0426469
0.0426527
0.042626
0.042636
0.0426047
0.0426174
0.042583
0.0432779
0.0432793
0.0432774
0.0432787
0.0432744
0.0432743
0.0432689
0.0432662
0.0432612
0.0432545
0.0432507
0.0432404
0.0432374
0.0432234
0.043222
0.0432035
0.0432048
0.0431811
0.0431859
0.0431561
0.0431652
0.0431296
0.0431431
0.0431034
0.0438425
0.0438439
0.0438418
0.0438429
0.043838
0.0438376
0.0438314
0.043828
0.0438222
0.0438146
0.0438096
0.0437982
0.043794
0.0437784
0.0437757
0.0437554
0.0437554
0.0437292
0.0437331
0.0437
0.0437087
0.0436684
0.0436827
0.0436378
0.044421
0.0444223
0.04442
0.0444208
0.0444156
0.0444147
0.0444078
0.0444038
0.0443971
0.0443885
0.0443825
0.0443698
0.0443645
0.0443473
0.0443434
0.0443211
0.04432
0.0442912
0.0442944
0.0442578
0.0442664
0.0442217
0.0442356
0.0441862
0.0450132
0.0450144
0.045012
0.0450126
0.0450068
0.0450055
0.044998
0.0449933
0.0449857
0.0449762
0.0449692
0.0449553
0.0449489
0.0449301
0.0449251
0.0449007
0.0448986
0.0448671
0.0448696
0.044829
0.0448389
0.0447886
0.0448028
0.0447488
0.0456191
0.0456203
0.0456177
0.045618
0.0456118
0.0456101
0.0456019
0.0455966
0.0455882
0.0455777
0.0455698
0.0455545
0.0455471
0.0455267
0.0455208
0.0454941
0.0454914
0.0454569
0.0454591
0.0454143
0.0454246
0.0453705
0.045384
0.0453256
0.0462385
0.0462397
0.0462369
0.046237
0.0462304
0.0462283
0.0462194
0.0462135
0.0462043
0.0461929
0.0461841
0.0461675
0.0461592
0.046137
0.0461304
0.0461013
0.0460983
0.0460599
0.0460636
0.0460143
0.0460238
0.0459663
0.0459794
0.0459167
0.0468713
0.0468725
0.0468695
0.0468695
0.0468624
0.04686
0.0468505
0.0468439
0.046834
0.0468216
0.0468121
0.0467941
0.0467852
0.046761
0.046754
0.046722
0.0467195
0.0466772
0.046681
0.0466285
0.0466371
0.0465766
0.0465888
0.0465221
0.0475174
0.0475186
0.0475154
0.0475152
0.0475077
0.047505
0.0474948
0.0474877
0.0474771
0.0474637
0.0474537
0.0474341
0.047425
0.0473984
0.0473917
0.0473566
0.0473544
0.0473092
0.0473116
0.0472572
0.0472645
0.0472009
0.0472125
0.0471418
0.0481765
0.0481777
0.0481744
0.048174
0.0481661
0.0481631
0.0481524
0.0481447
0.0481335
0.048119
0.0481089
0.0480873
0.0480787
0.048049
0.0480433
0.048005
0.0480021
0.047955
0.0479565
0.0478997
0.0479059
0.0478396
0.0478504
0.0477758
0.0488484
0.0488497
0.0488461
0.0488458
0.0488374
0.0488342
0.0488229
0.0488146
0.0488033
0.0487873
0.0487776
0.0487535
0.0487455
0.0487136
0.0487073
0.0486676
0.0486636
0.0486151
0.0486148
0.0485563
0.0485612
0.0484923
0.0485022
0.0484241
0.0495329
0.0495343
0.0495303
0.0495303
0.0495212
0.0495181
0.0495062
0.0494972
0.0494861
0.0494685
0.0494588
0.0494336
0.0494247
0.0493921
0.0493844
0.0493438
0.0493383
0.0492884
0.0492872
0.0492266
0.0492304
0.049159
0.0491683
0.0490866
0.0502298
0.0502313
0.050227
0.0502271
0.0502174
0.0502145
0.0502019
0.0501928
0.0501809
0.0501631
0.0501525
0.0501268
0.0501169
0.0500835
0.0500749
0.050033
0.0500266
0.0499755
0.0499727
0.0499107
0.0499134
0.0498396
0.049848
0.0497632
0.0509389
0.0509404
0.0509361
0.050936
0.0509263
0.050923
0.0509097
0.0509014
0.050888
0.0508702
0.0508589
0.0508326
0.0508219
0.0507879
0.0507783
0.0507355
0.0507279
0.0506756
0.0506719
0.0506083
0.0506097
0.0505339
0.0505417
0.0504536
0.05166
0.0516616
0.0516573
0.051657
0.0516472
0.0516438
0.0516301
0.0516219
0.051607
0.0515902
0.0515773
0.051551
0.0515395
0.0515049
0.0514946
0.0514507
0.0514423
0.0513889
0.051384
0.051319
0.0513197
0.0512417
0.0512486
0.0511578
0.052393
0.0523945
0.0523903
0.0523899
0.05238
0.0523765
0.0523625
0.0523543
0.0523385
0.0523223
0.0523077
0.0522821
0.0522693
0.0522344
0.0522232
0.0521787
0.0521693
0.052115
0.052109
0.052043
0.0520423
0.0519627
0.051969
0.0518755
0.0531377
0.0531393
0.053135
0.0531346
0.0531246
0.0531211
0.0531067
0.0530985
0.0530821
0.0530662
0.0530504
0.0530254
0.0530112
0.0529761
0.0529643
0.052919
0.0529089
0.0528534
0.0528468
0.0527794
0.052778
0.0526967
0.0527022
0.0526063
0.0538941
0.0538957
0.0538914
0.0538911
0.0538808
0.0538773
0.0538628
0.0538545
0.0538375
0.0538219
0.0538051
0.0537804
0.053765
0.05373
0.0537171
0.0536714
0.0536606
0.0536043
0.0535966
0.0535283
0.0535258
0.0534432
0.0534481
0.0533498
0.0546621
0.0546638
0.0546594
0.0546592
0.0546488
0.0546453
0.0546304
0.0546222
0.0546047
0.0545893
0.0545716
0.0545471
0.0545305
0.0544958
0.0544818
0.0544356
0.0544239
0.0543667
0.0543587
0.054289
0.0542859
0.0542018
0.054206
0.0541058
0.0554419
0.0554437
0.0554392
0.055439
0.0554284
0.0554249
0.0554097
0.0554014
0.0553835
0.0553681
0.0553495
0.0553251
0.0553077
0.0552726
0.0552579
0.0552111
0.0551989
0.0551409
0.0551319
0.0550614
0.0550573
0.0549723
0.0549757
0.0548738
0.0562333
0.0562352
0.0562306
0.0562304
0.0562196
0.056216
0.0562005
0.0561921
0.0561736
0.0561582
0.0561387
0.0561144
0.0560958
0.0560607
0.056045
0.0559979
0.0559847
0.055926
0.0559165
0.0558448
0.0558401
0.0557539
0.0557567
0.0556533
0.0570364
0.0570384
0.0570335
0.0570334
0.0570222
0.0570186
0.0570026
0.0569939
0.0569749
0.0569593
0.0569387
0.0569146
0.0568949
0.0568594
0.056843
0.0567951
0.0567814
0.056722
0.0567117
0.0566391
0.0566335
0.0565467
0.0565488
0.056444
0.0578509
0.0578529
0.0578479
0.0578477
0.0578361
0.0578322
0.0578157
0.0578067
0.0577869
0.0577711
0.0577493
0.0577253
0.0577041
0.0576689
0.0576509
0.0576029
0.0575884
0.0575281
0.0575173
0.0574438
0.0574376
0.0573499
0.0573514
0.0572456
0.0586762
0.0586783
0.0586731
0.0586727
0.0586607
0.0586564
0.0586393
0.0586298
0.0586093
0.0585929
0.05857
0.0585462
0.0585233
0.0584884
0.0584687
0.0584209
0.0584055
0.0583443
0.0583328
0.0582589
0.0582518
0.0581637
0.0581645
0.0580578
0.0595114
0.0595135
0.059508
0.0595074
0.059495
0.0594903
0.0594726
0.0594625
0.0594413
0.0594244
0.0594005
0.0593766
0.0593519
0.0593177
0.0592959
0.0592488
0.0592319
0.0591703
0.0591583
0.059084
0.0590762
0.0589876
0.0589878
0.0588806
0.0603547
0.0603568
0.0603513
0.0603504
0.0603378
0.0603327
0.0603146
0.060304
0.0602822
0.0602647
0.0602401
0.0602161
0.0601897
0.0601564
0.0601324
0.0600862
0.060067
0.0600067
0.0599936
0.0599191
0.0599105
0.059822
0.0598215
0.0597139
0.0612042
0.0612063
0.0612008
0.0611999
0.0611872
0.061182
0.0611637
0.0611529
0.0611309
0.0611132
0.0610881
0.061064
0.0610366
0.0610039
0.0609779
0.0609333
0.0609117
0.060853
0.0608385
0.060764
0.0607549
0.0606665
0.0606657
0.060558
0.0620576
0.0620598
0.0620545
0.0620537
0.0620413
0.0620363
0.0620183
0.0620079
0.0619861
0.0619686
0.0619436
0.0619198
0.0618919
0.0618602
0.0618328
0.0617897
0.0617664
0.0617089
0.0616928
0.0616195
0.0616098
0.0615217
0.0615206
0.0614131
0.0629129
0.0629153
0.0629104
0.0629101
0.0628983
0.0628941
0.0628769
0.0628673
0.0628464
0.0628299
0.0628057
0.0627829
0.0627554
0.0627249
0.0626968
0.0626557
0.0626306
0.0625756
0.062557
0.062486
0.0624754
0.0623876
0.0623866
0.0622795
0.0637695
0.0637721
0.0637677
0.0637682
0.0637573
0.0637544
0.0637384
0.0637304
0.063711
0.0636962
0.0636735
0.0636525
0.0636262
0.0635976
0.0635702
0.0635311
0.0635056
0.0634525
0.0634329
0.063363
0.0633524
0.0632649
0.0632639
0.0631571
0.064628
0.0646309
0.0646271
0.0646286
0.0646188
0.0646174
0.0646031
0.064597
0.0645796
0.0645669
0.0645464
0.0645279
0.0645037
0.0644775
0.0644518
0.0644154
0.0643903
0.0643408
0.0643204
0.0642522
0.0642414
0.0641538
0.064153
0.0640462
0.0654919
0.0654951
0.0654918
0.0654943
0.0654855
0.0654856
0.0654728
0.0654687
0.0654533
0.065443
0.0654248
0.065409
0.0653873
0.0653641
0.0653409
0.0653075
0.0652847
0.0652377
0.065219
0.0651532
0.0651433
0.0650558
0.0650552
0.0649472
0.0663665
0.0663703
0.0663671
0.0663706
0.0663622
0.0663637
0.0663516
0.0663493
0.0663351
0.066327
0.0663105
0.0662973
0.0662776
0.0662572
0.0662373
0.0662056
0.0661875
0.0661415
0.0661279
0.0660626
0.0660572
0.0659705
0.0659712
0.0658627
0.06726
0.0672645
0.0672604
0.0672653
0.0672555
0.067259
0.0672452
0.0672454
0.0672296
0.067224
0.0672072
0.0671959
0.0671771
0.0671582
0.0671423
0.0671082
0.0670995
0.067048
0.067045
0.0669775
0.0669788
0.0668946
0.0668988
0.0667959
0.0681814
0.0681854
0.0681821
0.0681852
0.0681764
0.0681771
0.0681646
0.0681616
0.068147
0.0681387
0.0681223
0.0681098
0.0680904
0.0680733
0.0680548
0.0680235
0.0680146
0.0679651
0.0679634
0.0678978
0.0679028
0.0678203
0.0678294
0.0677343
0.0691391
0.0691428
0.0691389
0.069141
0.0691307
0.0691298
0.0691151
0.0691098
0.0690926
0.0690815
0.0690624
0.0690471
0.069025
0.0690061
0.0689827
0.068955
0.0689379
0.0688925
0.0688888
0.0688226
0.0688296
0.0687455
0.0687579
0.0686631
0.0701396
0.070143
0.0701382
0.070139
0.0701267
0.0701234
0.0701056
0.070097
0.0700757
0.0700605
0.0700367
0.0700166
0.0699893
0.0699655
0.0699363
0.0699052
0.0698818
0.0698352
0.0698258
0.0697567
0.0697637
0.0696745
0.0696893
0.0695904
0.0711862
0.0711898
0.0711835
0.0711834
0.0711685
0.071163
0.0711414
0.0711293
0.0711031
0.0710832
0.0710531
0.0710272
0.0709927
0.0709621
0.0709246
0.0708866
0.0708545
0.0708011
0.0707849
0.0707069
0.0707117
0.0706138
0.0706293
0.070522
0.0722789
0.0722831
0.072275
0.0722745
0.072257
0.0722498
0.0722242
0.0722097
0.0721774
0.0721548
0.0721163
0.0720867
0.0720422
0.0720051
0.0719581
0.0719101
0.0718701
0.071801
0.0717783
0.0716867
0.0716838
0.0715724
0.0715855
0.0714645
0.0734146
0.0734181
0.0734107
0.0734078
0.0733902
0.0733799
0.0733535
0.0733343
0.0733011
0.0732714
0.0732317
0.0731931
0.0731453
0.0730992
0.0730435
0.0729897
0.0729316
0.0728584
0.0728176
0.072713
0.0726957
0.0725658
0.0725706
0.0724276
0.0745864
0.0745897
0.0745823
0.0745788
0.0745604
0.0745491
0.0745214
0.0745006
0.0744652
0.0744332
0.0743904
0.0743485
0.0742965
0.0742455
0.0741842
0.0741234
0.0740543
0.07398
0.0739118
0.0738093
0.0737654
0.0736179
0.0736063
0.0734301
0.0757866
0.0757898
0.0757823
0.0757788
0.0757602
0.0757487
0.0757205
0.0756993
0.0756632
0.0756303
0.0755865
0.0755431
0.0754897
0.0754365
0.0753727
0.0753088
0.0752356
0.0751574
0.0750787
0.0749779
0.0749045
0.0747601
0.0747214
0.0745075
0.0770062
0.0770094
0.0770023
0.076999
0.0769806
0.0769696
0.0769416
0.0769208
0.0768852
0.0768527
0.0768094
0.0767665
0.0767135
0.0766608
0.0765973
0.0765338
0.0764609
0.0763831
0.0763035
0.0762044
0.076125
0.0759888
0.0759326
0.0757069
0.0782366
0.0782402
0.0782333
0.0782307
0.0782128
0.0782027
0.0781755
0.0781559
0.0781213
0.0780903
0.0780484
0.0780072
0.077956
0.0779054
0.0778441
0.0777832
0.0777129
0.0776378
0.077564
0.0774654
0.0773983
0.0772604
0.0772208
0.0770223
0.0794701
0.079474
0.0794675
0.0794656
0.0794484
0.0794395
0.0794134
0.0793954
0.0793624
0.0793334
0.0792936
0.0792549
0.0792062
0.0791587
0.0791005
0.0790433
0.0789767
0.0789068
0.0788367
0.0787444
0.0786827
0.0785526
0.0785159
0.078332
0.0806994
0.0807036
0.0806975
0.0806965
0.0806801
0.0806725
0.0806478
0.0806317
0.0806005
0.0805739
0.0805364
0.0805007
0.0804549
0.080411
0.0803564
0.0803033
0.080241
0.0801759
0.0801111
0.0800253
0.079968
0.0798478
0.0798134
0.0796432
0.0819183
0.0819232
0.0819172
0.0819173
0.0819017
0.0818957
0.0818722
0.0818583
0.0818288
0.0818051
0.0817697
0.0817377
0.0816945
0.0816548
0.0816036
0.0815552
0.0814972
0.0814382
0.0813773
0.0812982
0.081246
0.0811353
0.0811032
0.0809469
0.0831223
0.0831276
0.0831214
0.0831232
0.0831077
0.083104
0.0830811
0.0830702
0.0830416
0.0830218
0.0829875
0.0829604
0.0829186
0.0828846
0.0828355
0.0827931
0.0827387
0.0826852
0.0826295
0.0825572
0.0825088
0.0824082
0.0823783
0.0822356
0.0843067
0.0843123
0.0843063
0.0843093
0.0842942
0.0842926
0.0842703
0.0842625
0.0842346
0.084219
0.0841855
0.0841637
0.0841227
0.0840954
0.084047
0.0840123
0.0839596
0.083913
0.0838615
0.0837961
0.0837515
0.083661
0.0836331
0.0835039
0.0854681
0.0854736
0.0854687
0.0854715
0.0854586
0.0854568
0.0854379
0.0854298
0.0854063
0.0853908
0.0853623
0.0853412
0.0853057
0.0852802
0.0852371
0.0852058
0.0851579
0.0851172
0.0850689
0.0850106
0.0849702
0.0848894
0.0848634
0.0847472
0.0866037
0.0866093
0.0866049
0.0866081
0.0865966
0.0865956
0.0865786
0.0865718
0.0865511
0.0865368
0.0865124
0.0864925
0.086462
0.086438
0.0864007
0.0863717
0.0863294
0.0862933
0.0862481
0.0861993
0.0861613
0.0860899
0.0860657
0.0859621
0.0877112
0.0877166
0.0877128
0.0877166
0.087706
0.0877062
0.0876907
0.0876854
0.087667
0.0876546
0.0876331
0.0876155
0.0875888
0.0875673
0.0875345
0.0875088
0.0874711
0.0874395
0.0873986
0.0873574
0.0873218
0.0872592
0.0872372
0.0871457
0.0887883
0.088794
0.0887906
0.0887949
0.0887852
0.0887864
0.0887724
0.0887686
0.0887523
0.0887418
0.088723
0.0887077
0.0886843
0.0886657
0.0886368
0.0886145
0.0885812
0.0885542
0.0885176
0.088483
0.0884483
0.0883961
0.088376
0.0882961
0.0898343
0.0898397
0.0898368
0.0898416
0.0898327
0.089835
0.0898223
0.08982
0.0898055
0.0897969
0.0897806
0.0897676
0.0897474
0.0897314
0.0897063
0.0896873
0.0896581
0.0896351
0.0896026
0.0895736
0.0895423
0.0894982
0.0894804
0.0894113
0.0908474
0.0908528
0.0908503
0.0908555
0.0908475
0.0908506
0.0908393
0.0908383
0.0908256
0.0908188
0.0908048
0.090794
0.0907766
0.0907634
0.0907415
0.0907257
0.0907005
0.0906814
0.0906532
0.090629
0.0906005
0.090565
0.0905488
0.09049
0.0918271
0.0918326
0.0918301
0.0918361
0.0918284
0.0918329
0.0918222
0.0918229
0.0918116
0.0918067
0.0917948
0.0917861
0.0917714
0.0917607
0.091742
0.0917293
0.0917075
0.091692
0.0916675
0.0916482
0.0916234
0.0915956
0.0915799
0.0915311
0.092773
0.0927782
0.0927765
0.092782
0.0927761
0.0927802
0.0927717
0.0927727
0.0927635
0.0927598
0.0927501
0.0927433
0.0927311
0.0927228
0.0927071
0.0926971
0.0926788
0.0926668
0.092646
0.0926305
0.0926095
0.0925878
0.0925745
0.0925338
0.0936845
0.09369
0.0936874
0.0936953
0.0936871
0.0936953
0.0936846
0.0936894
0.0936797
0.0936787
0.0936702
0.0936656
0.0936555
0.0936495
0.0936365
0.0936293
0.0936139
0.0936051
0.0935877
0.0935767
0.0935589
0.0935423
0.0935303
0.0934985
0.0945619
0.0945666
0.0945662
0.0945708
0.0945684
0.094571
0.0945672
0.0945681
0.0945633
0.0945614
0.0945559
0.0945524
0.0945446
0.0945406
0.0945301
0.0945254
0.094513
0.0945072
0.094493
0.0944853
0.0944709
0.0944593
0.0944487
0.0944249
0.0954048
0.0954102
0.0954079
0.0954166
0.095409
0.0954192
0.0954093
0.0954172
0.0954088
0.0954115
0.0954056
0.0954047
0.0953985
0.0953965
0.0953883
0.095386
0.0953761
0.095373
0.0953616
0.0953575
0.0953458
0.095338
0.0953304
0.0953134
0.0962142
0.0962186
0.0962188
0.0962234
0.0962225
0.0962258
0.0962243
0.0962261
0.0962244
0.0962243
0.0962222
0.0962216
0.0962177
0.0962173
0.0962113
0.096211
0.0962036
0.0962032
0.0961943
0.0961933
0.0961842
0.0961807
0.0961747
0.0961642
0.0969898
0.0969948
0.0969935
0.0970011
0.0969966
0.0970052
0.0969991
0.0970069
0.0970016
0.0970062
0.097003
0.097005
0.0970022
0.0970037
0.0969995
0.0970013
0.096996
0.0969979
0.0969916
0.0969934
0.096987
0.0969868
0.0969835
0.0969781
0.0977328
0.0977369
0.0977375
0.0977425
0.0977418
0.0977467
0.097746
0.0977496
0.0977496
0.0977516
0.097752
0.0977539
0.0977532
0.0977559
0.0977536
0.0977571
0.097754
0.097758
0.0977538
0.0977585
0.097754
0.0977576
0.0977559
0.0977556
0.0984432
0.0984476
0.0984473
0.0984538
0.0984519
0.0984591
0.0984565
0.0984634
0.0984617
0.0984669
0.0984666
0.0984707
0.0984707
0.098475
0.0984742
0.0984794
0.098478
0.0984839
0.0984818
0.0984887
0.0984865
0.098493
0.0984928
0.0984972
0.0991224
0.099126
0.0991274
0.0991316
0.0991327
0.0991372
0.0991383
0.0991426
0.0991444
0.0991481
0.0991503
0.0991545
0.0991561
0.0991615
0.0991621
0.0991688
0.099169
0.0991767
0.0991763
0.0991856
0.0991848
0.0991941
0.0991951
0.099204
0.0997706
0.0997747
0.0997747
0.0997813
0.0997796
0.0997877
0.0997862
0.0997935
0.0997939
0.0997998
0.0998019
0.0998075
0.09981
0.0998164
0.0998183
0.0998263
0.0998278
0.0998372
0.0998382
0.0998494
0.0998503
0.0998621
0.0998637
0.0998768
0.100389
0.100392
0.100395
0.100397
0.100402
0.100403
0.100409
0.100411
0.100416
0.10042
0.100424
0.10043
0.100433
0.100441
0.100444
0.100453
0.100456
0.100466
0.100469
0.100482
0.100484
0.100498
0.1005
0.100517
0.100979
0.100983
0.100982
0.10099
0.100987
0.100998
0.100995
0.101005
0.101005
0.101013
0.101016
0.101023
0.101027
0.101035
0.101039
0.101049
0.101053
0.101065
0.101069
0.101083
0.101086
0.101103
0.101105
0.101125
0.101541
0.101543
0.101547
0.101547
0.101555
0.101553
0.101563
0.101562
0.101571
0.101574
0.101581
0.101587
0.101593
0.101601
0.101606
0.101617
0.101622
0.101635
0.10164
0.101655
0.101659
0.101677
0.101681
0.101703
0.102076
0.102079
0.102079
0.102087
0.102083
0.102095
0.102091
0.102104
0.102103
0.102113
0.102116
0.102125
0.10213
0.10214
0.102145
0.102157
0.102163
0.102177
0.102182
0.102199
0.102204
0.102224
0.102228
0.102251
0.102585
0.102586
0.102591
0.10259
0.102599
0.102597
0.102608
0.102607
0.102617
0.10262
0.102628
0.102635
0.102642
0.102652
0.102658
0.102671
0.102677
0.102692
0.102698
0.102716
0.102721
0.102743
0.102748
0.102771
0.103069
0.103072
0.103072
0.103078
0.103078
0.103087
0.103086
0.103097
0.103097
0.103108
0.103112
0.103122
0.103128
0.103139
0.103145
0.103158
0.103165
0.103181
0.103187
0.103206
0.103212
0.103235
0.10324
0.103267
0.103529
0.103531
0.103534
0.103535
0.103542
0.103542
0.103551
0.103553
0.103562
0.103566
0.103575
0.103582
0.10359
0.103601
0.103608
0.103622
0.103629
0.103645
0.103653
0.103672
0.103679
0.103702
0.103708
0.103736
0.103966
0.103969
0.10397
0.103975
0.103976
0.103983
0.103985
0.103993
0.103997
0.104006
0.104011
0.104021
0.104028
0.10404
0.104048
0.104062
0.104069
0.104086
0.104094
0.104114
0.104121
0.104146
0.104151
0.10418
0.104382
0.104383
0.104387
0.104388
0.104394
0.104395
0.104403
0.104407
0.104414
0.104421
0.104428
0.104437
0.104445
0.104457
0.104465
0.104479
0.104487
0.104504
0.104513
0.104534
0.104541
0.104566
0.104571
0.104603
0.104776
0.104778
0.104779
0.104784
0.104785
0.104792
0.104795
0.104803
0.104808
0.104816
0.104823
0.104832
0.10484
0.104852
0.10486
0.104875
0.104884
0.104901
0.10491
0.104931
0.104939
0.104964
0.10497
0.105002
0.105151
0.105152
0.105155
0.105156
0.105162
0.105164
0.105171
0.105176
0.105183
0.10519
0.105197
0.105207
0.105215
0.105227
0.105236
0.105251
0.105259
0.105277
0.105286
0.105308
0.105316
0.105342
0.105348
0.105381
0.105506
0.105508
0.105509
0.105513
0.105515
0.105521
0.105524
0.105532
0.105537
0.105546
0.105552
0.105563
0.10557
0.105583
0.105592
0.105607
0.105615
0.105634
0.105643
0.105664
0.105673
0.105699
0.105705
0.105739
0.105843
0.105844
0.105846
0.105849
0.105853
0.105857
0.105862
0.105868
0.105875
0.105882
0.10589
0.1059
0.105908
0.10592
0.105929
0.105944
0.105953
0.105972
0.10598