/*--------------------------------*- C++ -*----------------------------------*\
  =========                 |
  \\      /  F ield         | OpenFOAM: The Open Source CFD Toolbox
   \\    /   O peration     | Website:  https://openfoam.org
    \\  /    A nd           | Version:  10
     \\/     M anipulation  |
\*---------------------------------------------------------------------------*/
FoamFile
{
    format      ascii;
    class       volVectorField;
    location    "0.39";
    object      U;
}
// * * * * * * * * * * * * * * * * * * * * * * * * * * * * * * * * * * * * * //

dimensions      [0 1 -1 0 0 0 0];

internalField   nonuniform List<vector> 
4176
(
(497.488 -0.0141042 -6.23472e-09)
(497.474 0.0637013 1.87193e-09)
(497.45 0.0014929 -6.0058e-10)
(497.4 0.0903913 1.8055e-11)
(497.346 0.051078 -1.27271e-10)
(497.271 0.0895745 -5.99138e-10)
(497.181 0.125876 -4.20713e-10)
(497.088 0.060522 2.41483e-10)
(496.954 0.225193 6.45502e-10)
(496.848 0.00484378 6.64693e-10)
(496.672 0.344299 4.65003e-10)
(496.549 -0.0689978 3.77887e-10)
(496.338 0.46976 1.40708e-10)
(496.191 -0.139345 -2.44779e-10)
(495.956 0.567778 -4.08751e-10)
(495.773 -0.135428 -2.76552e-10)
(495.536 0.528471 -2.14772e-10)
(495.286 0.0238598 -1.53213e-11)
(495.073 0.334672 3.06814e-10)
(494.73 0.323082 1.71462e-10)
(494.575 -0.0169353 -1.4114e-10)
(494.097 0.771829 -1.62285e-10)
(494.067 -0.516568 1.18299e-10)
(493.444 1.44243 2.43492e-10)
(497.47 0.00496938 -6.23442e-09)
(497.455 0.114524 1.87207e-09)
(497.431 0.0765477 -6.00697e-10)
(497.379 0.2033 1.72336e-11)
(497.325 0.186332 -1.27255e-10)
(497.247 0.264298 -5.98789e-10)
(497.156 0.321782 -4.21378e-10)
(497.059 0.29562 2.41573e-10)
(496.925 0.482162 6.46167e-10)
(496.814 0.297973 6.64849e-10)
(496.636 0.662818 4.64505e-10)
(496.508 0.278826 3.77776e-10)
(496.293 0.850333 1.39098e-10)
(496.142 0.258528 -2.44653e-10)
(495.901 1.01246 -4.0853e-10)
(495.714 0.302245 -2.76076e-10)
(495.47 1.04223 -2.15942e-10)
(495.216 0.510906 -1.54533e-11)
(494.996 0.914208 3.05779e-10)
(494.646 0.855248 1.71058e-10)
(494.491 0.628381 -1.41081e-10)
(493.992 1.33108 -1.64612e-10)
(493.957 0.125117 1.19059e-10)
(493.269 1.99255 2.43114e-10)
(497.413 0.0233169 -6.23792e-09)
(497.399 0.161182 1.87115e-09)
(497.375 0.147722 -6.02636e-10)
(497.324 0.307642 1.81633e-11)
(497.273 0.313934 -1.27659e-10)
(497.194 0.426486 -5.99585e-10)
(497.108 0.505906 -4.18646e-10)
(497.011 0.514852 2.43424e-10)
(496.882 0.722889 6.48195e-10)
(496.772 0.572639 6.65089e-10)
(496.599 0.960604 4.63513e-10)
(496.474 0.606231 3.76842e-10)
(496.263 1.20613 1.40659e-10)
(496.116 0.634109 -2.44545e-10)
(495.877 1.42866 -4.08735e-10)
(495.698 0.713995 -2.74843e-10)
(495.454 1.52273 -2.18664e-10)
(495.209 0.966154 -1.70772e-11)
(494.993 1.45703 3.06412e-10)
(494.653 1.34392 1.70619e-10)
(494.506 1.24764 -1.4204e-10)
(494.016 1.88222 -1.61934e-10)
(493.982 0.838717 1.19376e-10)
(493.271 2.60872 2.44059e-10)
(497.309 0.0420492 -6.23629e-09)
(497.294 0.208689 1.87472e-09)
(497.271 0.220214 -6.03552e-10)
(497.22 0.413958 2.11525e-11)
(497.169 0.443899 -1.28498e-10)
(497.09 0.59184 -6.03948e-10)
(497.004 0.693466 -4.18534e-10)
(496.907 0.738484 2.40982e-10)
(496.778 0.968108 6.41535e-10)
(496.668 0.852955 6.68551e-10)
(496.494 1.26394 4.6442e-10)
(496.37 0.940592 3.75079e-10)
(496.158 1.56881 1.42129e-10)
(496.013 1.01831 -2.4609e-10)
(495.771 1.85353 -4.1585e-10)
(495.593 1.13548 -2.76017e-10)
(495.346 2.01717 -2.16239e-10)
(495.097 1.42668 -1.74542e-11)
(494.891 2.00919 3.08664e-10)
(494.54 1.8408 1.69994e-10)
(494.398 1.85824 -1.44866e-10)
(493.915 2.42008 -1.62727e-10)
(493.887 1.52571 1.17638e-10)
(493.205 3.20546 2.34615e-10)
(497.157 0.0603782 -6.23869e-09)
(497.143 0.255211 1.88102e-09)
(497.12 0.291128 -5.99666e-10)
(497.069 0.518141 2.1089e-11)
(497.019 0.571031 -1.2531e-10)
(496.941 0.754004 -5.98571e-10)
(496.856 0.876939 -4.20464e-10)
(496.76 0.958031 2.4323e-10)
(496.632 1.20799 6.47145e-10)
(496.524 1.12844 6.66524e-10)
(496.351 1.56074 4.64612e-10)
(496.229 1.2694 3.77938e-10)
(496.018 1.92408 1.38639e-10)
(495.876 1.39606 -2.47103e-10)
(495.634 2.27124 -4.13927e-10)
(495.461 1.55017 -2.78513e-10)
(495.21 2.51249 -2.17331e-10)
(494.967 1.86985 -1.66867e-11)
(494.764 2.55427 3.03177e-10)
(494.411 2.33874 1.75762e-10)
(494.271 2.45267 -1.37129e-10)
(493.793 2.94586 -1.59791e-10)
(493.764 2.16836 1.21254e-10)
(493.102 3.76336 2.45445e-10)
(496.957 0.0786993 -6.25208e-09)
(496.942 0.301438 1.87887e-09)
(496.92 0.361889 -5.98193e-10)
(496.869 0.621738 1.63602e-11)
(496.819 0.697857 -1.3659e-10)
(496.742 0.915313 -6.03659e-10)
(496.658 1.05998 -4.17994e-10)
(496.561 1.17653 2.39501e-10)
(496.435 1.44729 6.4789e-10)
(496.327 1.40285 6.72047e-10)
(496.157 1.85666 4.64921e-10)
(496.035 1.59737 3.72176e-10)
(495.825 2.27773 1.3586e-10)
(495.684 1.77371 -2.44762e-10)
(495.443 2.68566 -4.16988e-10)
(495.274 1.96912 -2.75917e-10)
(495.018 3.00311 -2.06798e-10)
(494.787 2.31274 -1.38314e-11)
(494.57 3.10383 3.12985e-10)
(494.229 2.83561 1.77887e-10)
(494.084 3.04883 -1.41392e-10)
(493.611 3.47381 -1.70518e-10)
(493.576 2.81533 1.18041e-10)
(492.913 4.3203 2.45742e-10)
(496.708 0.0968427 -6.25149e-09)
(496.693 0.346999 1.87645e-09)
(496.671 0.431857 -6.14281e-10)
(496.621 0.723894 1.63416e-11)
(496.572 0.823226 -1.22032e-10)
(496.495 1.0744 -6.02931e-10)
(496.412 1.24091 -4.29367e-10)
(496.316 1.39209 2.44275e-10)
(496.192 1.68385 6.54657e-10)
(496.084 1.67376 6.67388e-10)
(495.916 2.14912 4.62189e-10)
(495.795 1.92154 3.83116e-10)
(495.587 2.627 1.51522e-10)
(495.448 2.14772 -2.42916e-10)
(495.208 3.09399 -4.12615e-10)
(495.043 2.38641 -2.72606e-10)
(494.784 3.48272 -2.16247e-10)
(494.565 2.75743 -1.94719e-11)
(494.337 3.65127 3.07466e-10)
(494.01 3.32058 1.75391e-10)
(493.859 3.64385 -1.4285e-10)
(493.393 4.00129 -1.70622e-10)
(493.353 3.47203 1.20425e-10)
(492.692 4.88256 2.50863e-10)
(496.411 0.114849 -6.26802e-09)
(496.396 0.392094 1.88709e-09)
(496.374 0.501202 -5.94017e-10)
(496.324 0.825029 1.9711e-11)
(496.276 0.947425 -1.35038e-10)
(496.199 1.2319 -6.00184e-10)
(496.118 1.4201 -4.12837e-10)
(496.022 1.6055 2.43284e-10)
(495.9 1.91807 6.36742e-10)
(495.793 1.94205 6.65119e-10)
(495.626 2.43867 4.73111e-10)
(495.506 2.24283 3.77353e-10)
(495.301 2.97266 1.25793e-10)
(495.163 2.51875 -2.51691e-10)
(494.924 3.49782 -4.05646e-10)
(494.763 2.8012 -2.80673e-10)
(494.503 3.95495 -2.12605e-10)
(494.292 3.19973 -2.90373e-12)
(494.058 4.19403 3.11308e-10)
(493.742 3.80109 1.60655e-10)
(493.585 4.23705 -1.43054e-10)
(493.127 4.52395 -1.5451e-10)
(493.084 4.12339 1.17973e-10)
(492.431 5.43757 2.27751e-10)
(496.065 0.132673 -6.28089e-09)
(496.051 0.436633 1.87401e-09)
(496.029 0.569762 -6.16166e-10)
(495.979 0.924936 7.40584e-12)
(495.932 1.07016 -1.35332e-10)
(495.855 1.38745 -6.08712e-10)
(495.775 1.59711 -4.28145e-10)
(495.68 1.81626 2.40427e-10)
(495.559 2.14938 6.43711e-10)
(495.454 2.20706 6.62265e-10)
(495.289 2.72452 4.61381e-10)
(495.171 2.56034 3.75728e-10)
(494.967 3.31385 1.3402e-10)
(494.832 2.88579 -2.50574e-10)
(494.594 3.89621 -4.1246e-10)
(494.436 3.21216 -2.77586e-10)
(494.176 4.41869 -2.16884e-10)
(493.973 3.63906 -1.38977e-11)
(493.734 4.72998 3.07866e-10)
(493.43 4.2749 1.67491e-10)
(493.267 4.82775 -1.4509e-10)
(492.818 5.04192 -1.65592e-10)
(492.771 4.7703 1.19813e-10)
(492.127 5.98596 2.44213e-10)
(495.671 0.150313 -6.26588e-09)
(495.656 0.480625 1.90356e-09)
(495.635 0.637535 -5.97651e-10)
(495.585 1.02363 3.0449e-11)
(495.539 1.19144 -1.16987e-10)
(495.463 1.54111 -5.919e-10)
(495.384 1.77194 -4.11155e-10)
(495.29 2.0244 2.5817e-10)
(495.171 2.37772 6.62611e-10)
(495.066 2.46874 6.79245e-10)
(494.903 3.00662 4.79799e-10)
(494.787 2.87396 3.91504e-10)
(494.585 3.65045 1.5236e-10)
(494.452 3.24858 -2.38102e-10)
(494.216 4.28908 -3.98943e-10)
(494.062 3.61899 -2.66875e-10)
(493.802 4.8743 -2.03054e-10)
(493.607 4.07461 -2.90444e-12)
(493.364 5.25839 3.2176e-10)
(493.071 4.74223 1.79024e-10)
(492.902 5.41409 -1.33045e-10)
(492.464 5.55352 -1.53442e-10)
(492.413 5.41076 1.2937e-10)
(491.778 6.526 2.53494e-10)
(495.228 0.167743 -6.28794e-09)
(495.214 0.524016 1.89299e-09)
(495.193 0.704423 -6.07675e-10)
(495.143 1.12101 2.28657e-11)
(495.098 1.31111 -1.24039e-10)
(495.023 1.69269 -6.00187e-10)
(494.944 1.94439 -4.16188e-10)
(494.852 2.22971 2.56872e-10)
(494.734 2.60285 6.61464e-10)
(494.631 2.72681 6.77862e-10)
(494.47 3.2846 4.80248e-10)
(494.355 3.18325 3.93918e-10)
(494.155 3.982 1.54757e-10)
(494.026 3.60656 -2.36616e-10)
(493.791 4.67592 -3.94439e-10)
(493.641 4.02096 -2.6086e-10)
(493.382 5.32167 -1.95551e-10)
(493.194 4.50587 3.36459e-12)
(492.947 5.77842 3.32231e-10)
(492.666 5.20357 1.89718e-10)
(492.491 5.99341 -1.44833e-10)
(492.065 6.05668 -1.87346e-10)
(492.01 6.04524 1.00281e-10)
(491.386 7.05725 2.22507e-10)
(494.737 0.184939 -6.29784e-09)
(494.723 0.566763 1.8966e-09)
(494.702 0.77035 -6.11386e-10)
(494.653 1.21697 1.73489e-11)
(494.608 1.42904 -1.29442e-10)
(494.534 1.8421 -6.06511e-10)
(494.457 2.11431 -4.24237e-10)
(494.365 2.43205 2.4749e-10)
(494.249 2.82461 6.52282e-10)
(494.147 2.98111 6.68788e-10)
(493.988 3.55826 4.69835e-10)
(493.876 3.48797 3.8459e-10)
(493.678 4.30821 1.43508e-10)
(493.551 3.9593 -2.46601e-10)
(493.318 5.05635 -4.09231e-10)
(493.173 4.41747 -2.74553e-10)
(492.914 5.76083 -2.126e-10)
(492.733 4.93249 -9.92784e-12)
(492.483 6.28952 3.13801e-10)
(492.214 5.65797 1.71184e-10)
(492.034 6.56461 -1.40025e-10)
(491.621 6.55061 -1.58043e-10)
(491.562 6.67235 1.264e-10)
(490.949 7.57911 2.49153e-10)
(494.197 0.201875 -6.30877e-09)
(494.183 0.608807 1.89714e-09)
(494.163 0.835216 -6.18157e-10)
(494.114 1.31139 1.13674e-11)
(494.07 1.54507 -1.38103e-10)
(493.996 1.98914 -6.1926e-10)
(493.921 2.28151 -4.38688e-10)
(493.83 2.63121 2.31522e-10)
(493.715 3.04277 6.36267e-10)
(493.615 3.23138 6.50607e-10)
(493.459 3.82736 4.4377e-10)
(493.348 3.78782 3.58404e-10)
(493.152 4.62877 1.10294e-10)
(493.029 4.30638 -2.52488e-10)
(492.798 5.42994 -3.85566e-10)
(492.657 4.80784 -2.57253e-10)
(492.4 6.19165 -1.9442e-10)
(492.225 5.35405 2.53711e-12)
(491.973 6.79096 3.26386e-10)
(491.715 6.10456 1.81426e-10)
(491.532 7.12717 -1.31979e-10)
(491.13 7.03471 -1.52867e-10)
(491.069 7.29072 1.31911e-10)
(490.468 8.09107 2.52489e-10)
(493.608 0.218526 -6.3122e-09)
(493.594 0.650097 1.92253e-09)
(493.574 0.89893 -6.19648e-10)
(493.526 1.40415 -7.96946e-12)
(493.483 1.65905 -1.41475e-10)
(493.41 2.13363 -6.10907e-10)
(493.336 2.44575 -4.17578e-10)
(493.247 2.82695 2.69641e-10)
(493.134 3.25708 6.56648e-10)
(493.036 3.47739 6.51707e-10)
(492.881 4.09163 4.57048e-10)
(492.773 4.08252 3.81806e-10)
(492.579 4.94338 1.52239e-10)
(492.459 4.64746 -2.33658e-10)
(492.23 5.79632 -4.18968e-10)
(492.094 5.19154 -2.98172e-10)
(491.838 6.61371 -2.30719e-10)
(491.67 5.76998 -1.60013e-11)
(491.416 7.28231 3.20703e-10)
(491.17 6.54292 1.87021e-10)
(490.982 7.6803 -1.44479e-10)
(490.594 7.50783 -1.81671e-10)
(490.53 7.89905 1.15279e-10)
(489.941 8.59259 2.49951e-10)
(492.97 0.234869 -6.33907e-09)
(492.956 0.690582 1.88513e-09)
(492.937 0.961406 -6.11681e-10)
(492.889 1.49513 4.86223e-11)
(492.847 1.7708 -1.1619e-10)
(492.776 2.27536 -6.08706e-10)
(492.702 2.60679 -4.37653e-10)
(492.615 3.019 2.24561e-10)
(492.504 3.46723 6.55038e-10)
(492.407 3.71881 6.94489e-10)
(492.255 4.35076 4.78146e-10)
(492.149 4.37175 3.76017e-10)
(491.958 5.25176 1.17475e-10)
(491.841 4.98217 -2.55643e-10)
(491.615 6.15516 -3.95141e-10)
(491.483 5.56812 -2.6903e-10)
(491.229 7.02658 -2.2039e-10)
(491.068 6.17956 -2.72657e-11)
(490.813 7.76294 2.80119e-10)
(490.579 6.97271 1.57808e-10)
(490.387 8.22368 -1.31672e-10)
(490.012 7.96921 -1.574e-10)
(489.945 8.49605 1.15671e-10)
(489.37 9.08315 2.24886e-10)
(492.283 0.250883 -6.33615e-09)
(492.269 0.730219 1.93766e-09)
(492.25 1.02256 -6.19677e-10)
(492.203 1.5842 -1.11282e-11)
(492.162 1.88017 -1.44029e-10)
(492.092 2.41414 -6.09991e-10)
(492.02 2.76439 -4.09718e-10)
(491.934 3.20708 2.78791e-10)
(491.825 3.67289 6.60397e-10)
(491.73 3.95529 6.54505e-10)
(491.58 4.60438 4.64271e-10)
(491.477 4.65513 3.8981e-10)
(491.289 5.55355 1.61533e-10)
(491.175 5.31017 -2.59652e-10)
(490.952 6.50614 -4.51923e-10)
(490.824 5.93714 -2.94444e-10)
(490.573 7.42989 -2.20636e-10)
(490.419 6.58195 -2.22949e-12)
(490.163 8.23209 3.36212e-10)
(489.941 7.39371 1.6422e-10)
(489.745 8.75661 -1.7081e-10)
(489.384 8.41849 -1.70604e-10)
(489.314 9.08116 1.29295e-10)
(488.753 9.56205 2.62711e-10)
(491.546 0.266547 -6.36377e-09)
(491.533 0.76896 1.90357e-09)
(491.514 1.08232 -6.39023e-10)
(491.468 1.67127 -1.49749e-11)
(491.428 1.98699 -1.33827e-10)
(491.358 2.54978 -5.84327e-10)
(491.288 2.91828 -4.06285e-10)
(491.204 3.39088 2.61321e-10)
(491.097 3.87371 6.58478e-10)
(491.005 4.18644 6.66771e-10)
(490.857 4.85208 4.53416e-10)
(490.757 4.93223 3.58297e-10)
(490.572 5.84833 1.41802e-10)
(490.462 5.63102 -2.2954e-10)
(490.241 6.84891 -4.01681e-10)
(490.118 6.29821 -2.71095e-10)
(489.869 7.82339 -2.16934e-10)
(489.722 6.97633 -1.84968e-11)
(489.467 8.68895 2.94199e-10)
(489.256 7.80554 1.40966e-10)
(489.057 9.27757 -1.82603e-10)
(488.71 8.85637 -1.67369e-10)
(488.636 9.65483 1.47483e-10)
(488.09 10.028 2.59756e-10)
(490.76 0.281836 -6.3696e-09)
(490.746 0.806753 1.93183e-09)
(490.728 1.14059 -6.06547e-10)
(490.683 1.75621 3.96107e-11)
(490.644 2.09112 -1.10959e-10)
(490.576 2.68206 -5.89755e-10)
(490.507 3.06824 -3.98759e-10)
(490.425 3.57012 2.86545e-10)
(490.32 4.06935 7.00492e-10)
(490.23 4.41185 6.79762e-10)
(490.086 5.0934 4.37827e-10)
(489.988 5.20256 3.54935e-10)
(489.806 6.13561 1.08645e-10)
(489.7 5.94421 -2.81859e-10)
(489.483 7.18304 -4.44236e-10)
(489.365 6.65091 -2.96383e-10)
(489.119 8.20682 -2.33917e-10)
(488.978 7.36195 -2.17891e-11)
(488.724 9.13285 3.07535e-10)
(488.524 8.20792 1.69274e-10)
(488.322 9.78614 -1.39255e-10)
(487.99 9.28238 -1.5305e-10)
(487.912 10.2162 1.3666e-10)
(487.382 10.4805 2.64112e-10)
(489.924 0.29672 -6.39056e-09)
(489.91 0.843533 1.92256e-09)
(489.893 1.19727 -6.28549e-10)
(489.848 1.83888 1.33364e-11)
(489.81 2.19236 -1.44177e-10)
(489.743 2.81079 -6.34061e-10)
(489.677 3.21399 -4.44948e-10)
(489.596 3.7445 2.37608e-10)
(489.494 4.25948 6.43519e-10)
(489.407 4.63115 6.56597e-10)
(489.265 5.32793 4.5132e-10)
(489.171 5.46563 3.59456e-10)
(488.992 6.41489 1.0412e-10)
(488.89 6.2492 -2.90678e-10)
(488.676 7.50798 -4.62791e-10)
(488.563 6.99467 -3.19377e-10)
(488.32 8.57975 -2.21237e-10)
(488.186 7.7383 1.92654e-11)
(487.934 9.56334 3.47713e-10)
(487.745 8.60044 1.95493e-10)
(487.54 10.2818 -1.1866e-10)
(487.224 9.69622 -1.41824e-10)
(487.141 10.7648 1.45185e-10)
(486.628 10.9191 2.68703e-10)
(489.037 0.311166 -6.42149e-09)
(489.024 0.879223 1.93823e-09)
(489.007 1.25224 -6.00943e-10)
(488.963 1.91911 1.82293e-11)
(488.926 2.29053 -1.18867e-10)
(488.861 2.93573 -5.8597e-10)
(488.797 3.35528 -4.23605e-10)
(488.718 3.91374 2.34614e-10)
(488.618 4.44375 6.63206e-10)
(488.534 4.84398 6.96815e-10)
(488.395 5.55524 4.65567e-10)
(488.305 5.72097 3.89397e-10)
(488.13 6.68564 1.53847e-10)
(488.031 6.54539 -2.71329e-10)
(487.821 7.82318 -4.18301e-10)
(487.714 7.32886 -2.59854e-10)
(487.474 8.94162 -2.262e-10)
(487.347 8.10481 -4.29414e-11)
(487.096 9.98003 2.98435e-10)
(486.919 8.98269 1.68452e-10)
(486.712 10.7641 -1.72254e-10)
(486.411 10.0976 -1.69907e-10)
(486.324 11.2998 1.33112e-10)
(485.827 11.3433 2.32446e-10)
(488.1 0.325134 -6.41712e-09)
(488.087 0.913733 1.95465e-09)
(488.071 1.30535 -6.02983e-10)
(488.028 1.99673 5.27016e-11)
(487.992 2.38538 -1.01149e-10)
(487.929 3.05662 -6.25267e-10)
(487.866 3.49183 -4.69961e-10)
(487.79 4.07752 2.2681e-10)
(487.693 4.62185 6.46726e-10)
(487.611 5.04997 6.6692e-10)
(487.476 5.77494 4.66394e-10)
(487.389 5.96815 3.85609e-10)
(487.218 6.9474 1.44333e-10)
(487.124 6.83223 -2.46714e-10)
(486.918 8.12804 -4.0044e-10)
(486.816 7.65282 -2.55963e-10)
(486.58 9.29185 -1.88132e-10)
(486.46 8.4608 -1.82069e-11)
(486.212 10.3826 2.70673e-10)
(486.046 9.35428 1.36011e-10)
(485.836 11.2323 -1.72837e-10)
(485.551 10.4861 -1.82635e-10)
(485.46 11.8207 1.07009e-10)
(484.981 11.7527 2.41649e-10)
(487.113 0.338584 -6.45292e-09)
(487.1 0.946971 1.91239e-09)
(487.084 1.35645 -6.28267e-10)
(487.042 2.07152 5.30594e-11)
(487.008 2.47669 -1.2512e-10)
(486.946 3.17319 -6.26966e-10)
(486.886 3.62332 -4.46811e-10)
(486.812 4.23555 2.71658e-10)
(486.718 4.79343 7.11759e-10)
(486.639 5.24879 7.06353e-10)
(486.507 5.98667 4.81931e-10)
(486.424 6.20677 3.72492e-10)
(486.257 7.1997 9.98715e-11)
(486.168 7.10922 -2.70289e-10)
(485.966 8.422 -4.06515e-10)
(485.87 7.96587 -2.78139e-10)
(485.638 9.62979 -2.33332e-10)
(485.525 8.80544 -3.9538e-11)
(485.28 10.7706 3.16283e-10)
(485.125 9.71488 1.91499e-10)
(484.914 11.6856 -1.39398e-10)
(484.644 10.8615 -1.74284e-10)
(484.549 12.3271 9.35573e-11)
(484.088 12.1469 2.46783e-10)
(486.075 0.351477 -6.47395e-09)
(486.062 0.978852 1.91889e-09)
(486.047 1.40541 -6.30485e-10)
(486.006 2.14331 5.87134e-11)
(485.973 2.5642 -1.1569e-10)
(485.913 3.28517 -6.23501e-10)
(485.855 3.74946 -4.47442e-10)
(485.784 4.38747 2.23071e-10)
(485.692 4.95815 6.64024e-10)
(485.617 5.44007 7.13108e-10)
(485.489 6.19005 4.93044e-10)
(485.41 6.43645 3.82769e-10)
(485.247 7.44216 1.09941e-10)
(485.162 7.3759 -2.62176e-10)
(484.965 8.70459 -3.97258e-10)
(484.875 8.26743 -2.73885e-10)
(484.647 9.9548 -2.28491e-10)
(484.542 9.13786 -3.03916e-11)
(484.3 11.1437 3.27462e-10)
(484.156 10.0641 2.00656e-10)
(483.944 12.1229 -1.29755e-10)
(483.691 11.223 -1.65633e-10)
(483.591 12.8183 1.08686e-10)
(483.149 12.5255 2.2001e-10)
(484.985 0.363782 -6.50052e-09)
(484.973 1.0093 1.96573e-09)
(484.958 1.4521 -6.07707e-10)
(484.919 2.21192 1.52681e-11)
(484.888 2.64771 -1.72069e-10)
(484.829 3.39228 -6.41401e-10)
(484.774 3.86993 -4.22398e-10)
(484.705 4.53296 2.40301e-10)
(484.617 5.11563 6.71512e-10)
(484.545 5.62344 7.04907e-10)
(484.421 6.38469 4.67909e-10)
(484.345 6.65681 3.98427e-10)
(484.187 7.67438 1.68114e-10)
(484.107 7.63188 -2.6825e-10)
(483.915 8.97538 -4.67827e-10)
(483.83 8.557 -2.98021e-10)
(483.608 10.2664 -2.12708e-10)
(483.51 9.45738 -2.55136e-11)
(483.273 11.5015 3.22994e-10)
(483.139 10.4013 1.87127e-10)
(482.926 12.5434 -1.56571e-10)
(482.689 11.5699 -1.51944e-10)
(482.587 13.2933 1.60081e-10)
(482.164 12.8878 2.53945e-10)
(483.845 0.375477 -6.48913e-09)
(483.833 1.03827 1.99618e-09)
(483.819 1.49645 -5.94522e-10)
(483.78 2.27723 2.67e-11)
(483.751 2.72704 -1.67504e-10)
(483.695 3.49432 -6.43583e-10)
(483.642 3.98445 -4.28325e-10)
(483.576 4.67169 2.8514e-10)
(483.491 5.26552 7.11678e-10)
(483.422 5.79852 6.86026e-10)
(483.302 6.57019 4.41715e-10)
(483.231 6.86743 3.68198e-10)
(483.077 7.89595 1.29748e-10)
(483.003 7.87676 -2.59486e-10)
(482.815 9.23398 -4.08431e-10)
(482.737 8.83416 -2.49054e-10)
(482.519 10.564 -2.2392e-10)
(482.43 9.76347 -4.45797e-11)
(482.196 11.8434 2.96248e-10)
(482.073 10.7258 1.58805e-10)
(481.861 12.9464 -1.40828e-10)
(481.64 11.9014 -1.42518e-10)
(481.535 13.7508 1.66092e-10)
(481.131 13.2333 2.54642e-10)
(482.654 0.386546 -6.50424e-09)
(482.641 1.06572 1.97246e-09)
(482.629 1.53837 -6.56192e-10)
(482.591 2.33913 3.8737e-11)
(482.563 2.80205 -1.41231e-10)
(482.509 3.59109 -6.51361e-10)
(482.459 4.0928 -4.12543e-10)
(482.395 4.80339 2.64727e-10)
(482.314 5.40747 6.53297e-10)
(482.249 5.96491 7.0451e-10)
(482.133 6.74614 4.81905e-10)
(482.066 7.06791 3.68954e-10)
(481.917 8.10645 1.52182e-10)
(481.848 8.11012 -2.71155e-10)
(481.665 9.47998 -4.6116e-10)
(481.594 9.09851 -2.79954e-10)
(481.381 10.8475 -2.35452e-10)
(481.3 10.0556 -3.43973e-11)
(481.071 12.1689 3.26039e-10)
(480.958 11.0369 1.5406e-10)
(480.747 13.3313 -1.81175e-10)
(480.543 12.2166 -1.62559e-10)
(480.435 14.1897 1.06727e-10)
(480.052 13.5615 2.2011e-10)
(481.411 0.396978 -6.58401e-09)
(481.399 1.09161 1.95429e-09)
(481.387 1.57784 -6.58789e-10)
(481.351 2.39757 9.09272e-12)
(481.325 2.87265 -1.41637e-10)
(481.272 3.68246 -6.30295e-10)
(481.225 4.19479 -4.24453e-10)
(481.164 4.92781 2.83878e-10)
(481.086 5.54119 7.01526e-10)
(481.025 6.1223 7.17969e-10)
(480.914 6.91213 5.17739e-10)
(480.852 7.2578 3.7529e-10)
(480.707 8.30542 1.22992e-10)
(480.644 8.33154 -2.77985e-10)
(480.466 9.71296 -4.39345e-10)
(480.401 9.34965 -2.85576e-10)
(480.194 11.1162 -2.18218e-10)
(480.121 10.3334 1.97107e-12)
(479.896 12.4777 3.39018e-10)
(479.794 11.334 1.84631e-10)
(479.585 13.6973 -1.8197e-10)
(479.397 12.5152 -1.8826e-10)
(479.287 14.6093 1.07569e-10)
(478.923 13.8722 2.36481e-10)
(480.117 0.406762 -6.56487e-09)
(480.105 1.11594 2.0141e-09)
(480.094 1.6148 -6.04309e-10)
(480.059 2.45247 2.16413e-11)
(480.035 2.93875 -1.7652e-10)
(479.984 3.76834 -6.62469e-10)
(479.939 4.29029 -4.42446e-10)
(479.882 5.04479 2.797e-10)
(479.808 5.66647 7.04216e-10)
(479.75 6.27039 7.31732e-10)
(479.643 7.06782 4.83619e-10)
(479.586 7.43673 3.53282e-10)
(479.446 8.49244 1.10874e-10)
(479.389 8.54053 -2.84926e-10)
(479.217 9.93249 -4.34951e-10)
(479.159 9.58714 -2.69772e-10)
(478.957 11.3701 -1.88526e-10)
(478.892 10.5965 3.94964e-11)
(478.672 12.7696 3.2846e-10)
(478.581 11.6159 1.32632e-10)
(478.374 14.0433 -1.70603e-10)
(478.203 12.7975 -1.67585e-10)
(478.09 15.0108 1.4335e-10)
(477.747 14.166 2.85164e-10)
(478.772 0.415885 -6.57455e-09)
(478.76 1.13867 1.9889e-09)
(478.75 1.64922 -6.82607e-10)
(478.716 2.5038 1.55699e-11)
(478.693 3.0003 -1.06558e-10)
(478.645 3.84863 -6.27613e-10)
(478.603 4.37921 -4.55162e-10)
(478.548 5.15421 2.81595e-10)
(478.478 5.78315 6.71034e-10)
(478.424 6.40898 6.56654e-10)
(478.322 7.21296 4.8482e-10)
(478.269 7.60436 4.2404e-10)
(478.135 8.66709 1.35373e-10)
(478.083 8.73666 -2.97778e-10)
(477.917 10.1381 -4.30367e-10)
(477.866 9.81049 -2.47821e-10)
(477.67 11.6084 -2.13521e-10)
(477.613 10.8444 -2.55911e-11)
(477.399 13.0443 3.4251e-10)
(477.318 11.8822 1.59582e-10)
(477.114 14.3683 -1.90004e-10)
(476.96 13.0633 -1.7326e-10)
(476.845 15.3931 1.56039e-10)
(476.522 14.4416 2.58857e-10)
(477.375 0.424331 -6.6582e-09)
(477.363 1.15976 1.96928e-09)
(477.354 1.68104 -6.73162e-10)
(477.321 2.55147 2.88116e-12)
(477.301 3.0572 -1.55128e-10)
(477.255 3.92327 -6.55057e-10)
(477.215 4.46145 -4.43985e-10)
(477.164 5.25598 2.7106e-10)
(477.097 5.89111 6.86226e-10)
(477.047 6.53796 6.95331e-10)
(476.949 7.34735 4.92239e-10)
(476.902 7.76047 4.07136e-10)
(476.773 8.82906 1.48022e-10)
(476.727 8.91955 -2.64191e-10)
(476.567 10.3292 -4.25493e-10)
(476.523 10.0192 -2.71028e-10)
(476.333 11.8309 -2.07264e-10)
(476.284 11.0767 8.44671e-12)
(476.075 13.3013 3.50493e-10)
(476.005 12.1323 1.92917e-10)
(475.805 14.6716 -1.20991e-10)
(475.668 13.3118 -1.9561e-10)
(475.55 15.7555 9.46757e-11)
(475.249 14.6987 2.3179e-10)
(475.926 0.432084 -6.6072e-09)
(475.915 1.17918 2.0403e-09)
(475.907 1.71021 -6.33593e-10)
(475.875 2.5954 4.28401e-11)
(475.856 3.10939 -1.24963e-10)
(475.813 3.99215 -6.31601e-10)
(475.776 4.53692 -4.26186e-10)
(475.727 5.35002 2.85714e-10)
(475.664 5.99027 6.95511e-10)
(475.619 6.65724 6.97652e-10)
(475.525 7.47089 4.87159e-10)
(475.483 7.90493 3.89743e-10)
(475.359 8.97815 1.22429e-10)
(475.32 9.08892 -2.89641e-10)
(475.165 10.5056 -4.65759e-10)
(475.129 10.2128 -3.18404e-10)
(474.945 12.037 -2.59805e-10)
(474.905 11.2927 2.03853e-11)
(474.702 13.5403 3.52429e-10)
(474.642 12.3658 1.82183e-10)
(474.446 14.9529 -1.34242e-10)
(474.325 13.543 -1.56827e-10)
(474.205 16.0964 1.33453e-10)
(473.926 14.9359 2.61043e-10)
(474.426 0.439128 -6.64937e-09)
(474.416 1.19689 2.01997e-09)
(474.408 1.73667 -6.73686e-10)
(474.378 2.63555 4.28185e-11)
(474.36 3.15677 -1.37934e-10)
(474.319 4.05518 -6.60444e-10)
(474.285 4.60554 -4.14385e-10)
(474.24 5.43623 2.8132e-10)
(474.18 6.08056 6.7917e-10)
(474.139 6.76676 7.25635e-10)
(474.05 7.58353 4.94939e-10)
(474.012 8.03768 3.84434e-10)
(473.894 9.11425 1.61403e-10)
(473.861 9.24466 -2.72691e-10)
(473.712 10.667 -4.61048e-10)
(473.683 10.391 -2.71054e-10)
(473.505 12.2261 -2.27247e-10)
(473.474 11.4919 -2.60434e-11)
(473.278 13.7608 3.54106e-10)
(473.229 12.5822 1.70945e-10)
(473.037 15.2125 -1.7472e-10)
(472.932 13.757 -1.45562e-10)
(472.81 16.4147 1.34587e-10)
(472.554 15.1527 2.39021e-10)
(472.875 0.445457 -6.72622e-09)
(472.864 1.21288 2.02824e-09)
(472.857 1.76041 -6.38529e-10)
(472.828 2.67185 2.01514e-12)
(472.813 3.1993 -1.32167e-10)
(472.774 4.11231 -6.15748e-10)
(472.742 4.66722 -4.54004e-10)
(472.7 5.51454 2.89892e-10)
(472.645 6.16189 7.27819e-10)
(472.607 6.86645 6.89201e-10)
(472.523 7.68521 5.02768e-10)
(472.491 8.15872 4.36383e-10)
(472.377 9.23734 1.28316e-10)
(472.35 9.38674 -2.67947e-10)
(472.207 10.8132 -4.09076e-10)
(472.186 10.5535 -3.02094e-10)
(472.015 12.3979 -2.2108e-10)
(471.993 11.6739 2.21878e-11)
(471.802 13.9621 3.21812e-10)
(471.764 12.7805 1.77128e-10)
(471.578 15.4506 -1.2137e-10)
(471.488 13.9542 -1.75044e-10)
(471.365 16.71 1.42064e-10)
(471.131 15.349 2.87006e-10)
(471.271 0.45107 -6.71508e-09)
(471.261 1.22714 2.07384e-09)
(471.255 1.78141 -6.09076e-10)
(471.227 2.70431 3.72069e-11)
(471.214 3.23695 -1.7148e-10)
(471.177 4.16349 -6.59322e-10)
(471.148 4.72192 -4.22176e-10)
(471.109 5.58487 3.18782e-10)
(471.057 6.23418 7.57555e-10)
(471.024 6.95623 7.24869e-10)
(470.944 7.77584 4.63832e-10)
(470.917 8.26798 3.92289e-10)
(470.809 9.34738 1.55309e-10)
(470.788 9.51518 -2.43939e-10)
(470.651 10.9442 -3.90212e-10)
(470.637 10.7004 -2.84123e-10)
(470.472 12.5524 -2.70031e-10)
(470.459 11.8382 -2.01125e-11)
(470.275 14.1438 3.37252e-10)
(470.249 12.9598 1.89658e-10)
(470.067 15.6667 -1.01294e-10)
(469.992 14.1347 -1.63888e-10)
(469.869 16.9815 8.81622e-11)
(469.658 15.524 2.40164e-10)
(469.616 0.455974 -6.80162e-09)
(469.606 1.2397 2.00763e-09)
(469.6 1.79971 -6.96512e-10)
(469.574 2.73294 -1.19358e-11)
(469.563 3.26975 -1.72241e-10)
(469.528 4.20873 -6.82802e-10)
(469.502 4.76962 -4.69762e-10)
(469.466 5.64719 2.52481e-10)
(469.418 6.29736 6.73331e-10)
(469.389 7.03603 6.80316e-10)
(469.314 7.85533 4.65146e-10)
(469.292 8.3654 3.73568e-10)
(469.189 9.44431 1.07457e-10)
(469.174 9.62998 -3.10167e-10)
(469.043 11.0601 -4.81748e-10)
(469.037 10.8318 -3.22827e-10)
(468.878 12.6895 -2.63734e-10)
(468.874 11.985 -3.83742e-11)
(468.696 14.3057 2.96958e-10)
(468.681 13.1198 1.35285e-10)
(468.505 15.8601 -1.93012e-10)
(468.445 14.2979 -2.00654e-10)
(468.321 17.2288 9.58053e-11)
(468.134 15.6776 2.29067e-10)
(467.909 0.460181 -6.76387e-09)
(467.899 1.25058 2.05505e-09)
(467.894 1.81534 -6.86557e-10)
(467.869 2.7578 5.26055e-11)
(467.859 3.29775 -1.32815e-10)
(467.827 4.24808 -6.64422e-10)
(467.804 4.81036 -4.03262e-10)
(467.771 5.70153 3.0305e-10)
(467.727 6.35144 7.03686e-10)
(467.702 7.10579 7.5788e-10)
(467.631 7.92361 5.21796e-10)
(467.614 8.45086 4.01464e-10)
(467.517 9.52801 1.83895e-10)
(467.509 9.73104 -2.59259e-10)
(467.383 11.1608 -4.48452e-10)
(467.384 10.9478 -3.10622e-10)
(467.232 12.8094 -2.7151e-10)
(467.237 12.1143 -2.19616e-13)
(467.065 14.4479 3.20241e-10)
(467.061 13.2603 1.35716e-10)
(466.891 16.0307 -1.43974e-10)
(466.846 14.4426 -1.76743e-10)
(466.723 17.4508 9.65386e-11)
(466.559 15.8096 2.73244e-10)
(466.149 0.463703 -6.78517e-09)
(466.14 1.25981 2.07195e-09)
(466.136 1.82836 -6.83156e-10)
(466.112 2.77894 6.01815e-11)
(466.104 3.32103 -1.26675e-10)
(466.074 4.28163 -6.60147e-10)
(466.054 4.84423 -3.97315e-10)
(466.024 5.74795 3.12266e-10)
(465.983 6.39645 7.13594e-10)
(465.962 7.16554 6.98554e-10)
(465.896 7.98063 4.60646e-10)
(465.885 8.5243 4.16241e-10)
(465.793 9.59834 1.27838e-10)
(465.791 9.81824 -3.13972e-10)
(465.671 11.2462 -4.3621e-10)
(465.68 11.0482 -2.98368e-10)
(465.533 12.9121 -2.58254e-10)
(465.548 12.2264 1.30678e-11)
(465.382 14.5708 3.36749e-10)
(465.389 13.3815 1.48675e-10)
(465.225 16.1787 -1.306e-10)
(465.194 14.5674 -1.65173e-10)
(465.074 17.6459 1.18422e-10)
(464.932 15.9202 2.9323e-10)
(464.338 0.466552 -6.83263e-09)
(464.329 1.26742 2.12798e-09)
(464.326 1.83881 -6.59048e-10)
(464.303 2.79643 1.62386e-12)
(464.297 3.33965 -1.27491e-10)
(464.268 4.30946 -6.05113e-10)
(464.251 4.87131 -4.25796e-10)
(464.225 5.78655 2.64776e-10)
(464.187 6.43248 7.23727e-10)
(464.17 7.21534 7.64159e-10)
(464.109 8.02644 5.11502e-10)
(464.102 8.5857 3.83043e-10)
(464.016 9.65524 1.49196e-10)
(464.02 9.89143 -2.4145e-10)
(463.907 11.3161 -4.52119e-10)
(463.923 11.1328 -3.25536e-10)
(463.783 12.9972 -2.30176e-10)
(463.806 12.3212 2.6553e-11)
(463.647 14.6744 3.38974e-10)
(463.664 13.4839 1.36432e-10)
(463.506 16.3051 -1.60789e-10)
(463.489 14.6715 -1.46901e-10)
(463.372 17.8125 1.26566e-10)
(463.253 16.0089 2.25407e-10)
(462.475 0.468732 -6.8894e-09)
(462.465 1.27341 2.06681e-09)
(462.463 1.8467 -6.95951e-10)
(462.442 2.81029 -1.33282e-11)
(462.437 3.35368 -1.90261e-10)
(462.411 4.33162 -7.16913e-10)
(462.396 4.89169 -4.33914e-10)
(462.372 5.81741 3.60098e-10)
(462.339 6.45963 7.76399e-10)
(462.326 7.2553 7.7416e-10)
(462.269 8.06112 5.41627e-10)
(462.267 8.63514 4.32781e-10)
(462.187 9.69869 1.56573e-10)
(462.197 9.95057 -2.76876e-10)
(462.089 11.3702 -4.61077e-10)
(462.113 11.2014 -3.12987e-10)
(461.98 13.0646 -2.60159e-10)
(462.012 12.3985 -3.85125e-11)
(461.859 14.7584 2.89343e-10)
(461.888 13.5673 1.1747e-10)
(461.735 16.4099 -1.54697e-10)
(461.731 14.7557 -1.15434e-10)
(461.618 17.9508 1.86642e-10)
(461.522 16.0753 3.02496e-10)
(460.558 0.470245 -6.94673e-09)
(460.549 1.27779 2.08411e-09)
(460.548 1.85206 -6.64979e-10)
(460.528 2.82054 -2.06493e-11)
(460.525 3.36313 -1.70626e-10)
(460.5 4.34816 -6.68159e-10)
(460.488 4.90541 -4.28169e-10)
(460.468 5.84061 3.26396e-10)
(460.438 6.47798 6.9478e-10)
(460.429 7.28552 7.20056e-10)
(460.377 8.08477 5.21933e-10)
(460.38 8.67272 3.71058e-10)
(460.304 9.72878 1.20391e-10)
(460.321 9.9957 -2.85267e-10)
(460.219 11.4085 -4.41102e-10)
(460.251 11.254 -2.66572e-10)
(460.123 13.114 -2.5345e-10)
(460.166 12.4578 -5.16606e-12)
(460.019 14.8224 3.58048e-10)
(460.059 13.6315 1.30621e-10)
(459.912 16.4931 -1.86024e-10)
(459.922 14.8203 -1.73538e-10)
(459.812 18.0615 1.50119e-10)
(459.737 16.1199 2.90746e-10)
(458.589 0.471088 -6.90624e-09)
(458.581 1.28057 2.11761e-09)
(458.58 1.85489 -6.88796e-10)
(458.561 2.82718 -5.58241e-12)
(458.559 3.36801 -1.85432e-10)