/*--------------------------------*- C++ -*----------------------------------*\
  =========                 |
  \\      /  F ield         | OpenFOAM: The Open Source CFD Toolbox
   \\    /   O peration     | Website:  https://openfoam.org
    \\  /    A nd           | Version:  10
     \\/     M anipulation  |
\*---------------------------------------------------------------------------*/
FoamFile
{
    format      ascii;
    class       surfaceScalarField;
    location    "0.29";
    object      phi;
}
// * * * * * * * * * * * * * * * * * * * * * * * * * * * * * * * * * * * * * //

dimensions      [1 0 -1 0 0 0 0];

internalField   nonuniform List<scalar> 
8154
(
-5.86978e-09
-2.23052e-08
-5.71643e-08
-9.23122e-08
-1.71978e-07
-2.26242e-07
-3.70158e-07
-4.54469e-07
-6.74851e-07
-8.14334e-07
-1.10422e-06
-1.33665e-06
-1.66757e-06
-2.02792e-06
-2.36251e-06
-2.86815e-06
-3.257e-06
-3.98607e-06
-4.56483e-06
-5.50783e-06
-6.82465e-06
-7.25721e-06
-6.84638e-06
-0.000277438
-0.000832368
2.39866e-08
-0.00138746
9.60863e-08
-0.00194288
2.13003e-07
-0.00249867
3.77709e-07
-0.00305502
5.76817e-07
-0.00361202
8.23296e-07
-0.00416972
1.08822e-06
-0.00472846
1.39755e-06
-0.0052879
1.71036e-06
-0.00584877
2.05568e-06
-0.00641057
2.40271e-06
-0.00697376
2.74854e-06
-0.00753865
3.12078e-06
-0.00810417
3.43617e-06
-0.00867309
3.84889e-06
-0.00924022
4.12469e-06
-0.0098149
4.57299e-06
-0.0103833
4.92473e-06
-0.0109646
5.13863e-06
-0.0115338
5.27981e-06
-0.0121235
5.11773e-06
-0.0126947
4.02821e-06
-0.013293
2.44922e-06
-0.000277462
-0.000832441
2.63002e-08
-0.00138758
1.04639e-07
-0.00194305
2.34409e-07
-0.00249887
4.09846e-07
-0.00305527
6.34758e-07
-0.00361229
8.8938e-07
-0.00417003
1.19441e-06
-0.00472877
1.50087e-06
-0.00528825
1.86615e-06
-0.00584912
2.19008e-06
-0.00641092
2.593e-06
-0.00697413
2.89299e-06
-0.00753897
3.29938e-06
-0.00810458
3.5394e-06
-0.00867337
3.90349e-06
-0.00924067
4.10399e-06
-0.00981525
4.38985e-06
-0.0103835
5.00214e-06
-0.0109647
4.66525e-06
-0.0115336
5.23098e-06
-0.0121224
5.33416e-06
-0.0126931
5.04232e-06
-0.0132906
4.22604e-06
-0.000277489
-0.000832519
2.12385e-08
-0.00138771
8.47577e-08
-0.00194322
1.8775e-07
-0.0024991
3.30193e-07
-0.00305553
5.01424e-07
-0.00361259
7.07127e-07
-0.00417034
9.22392e-07
-0.00472914
1.16617e-06
-0.00528857
1.39318e-06
-0.00584952
1.64116e-06
-0.00641122
1.8458e-06
-0.00697454
2.04975e-06
-0.00753921
2.19768e-06
-0.00810494
2.28418e-06
-0.00867357
2.35347e-06
-0.00924095
2.20615e-06
-0.00981586
2.34373e-06
-0.0103832
1.89939e-06
-0.0109653
1.77949e-06
-0.0115337
1.39191e-06
-0.0121221
1.16016e-06
-0.0126923
7.21361e-07
-0.0132863
5.13989e-07
-0.00027751
-0.000832583
2.54718e-08
-0.00138781
1.01712e-07
-0.00194336
2.25709e-07
-0.00249927
3.97461e-07
-0.00305573
6.05135e-07
-0.00361281
8.55424e-07
-0.00417058
1.11919e-06
-0.00472936
1.4203e-06
-0.00528882
1.70157e-06
-0.00584972
2.01615e-06
-0.00641142
2.27148e-06
-0.00697469
2.54813e-06
-0.0075393
2.73382e-06
-0.00810501
2.89542e-06
-0.00867342
2.98539e-06
-0.00924109
2.89774e-06
-0.00981541
2.97484e-06
-0.010383
2.28265e-06
-0.0109649
2.51409e-06
-0.0115335
1.72517e-06
-0.0121217
1.21452e-06
-0.0126921
3.80967e-07
-0.0132858
-1.73513e-07
-0.000277535
-0.000832659
3.35829e-08
-0.00138794
1.34064e-07
-0.00194354
2.98836e-07
-0.00249948
5.2608e-07
-0.00305598
8.07435e-07
-0.00361307
1.14142e-06
-0.00417088
1.51166e-06
-0.00472965
1.91887e-06
-0.00528913
2.33816e-06
-0.00584998
2.77261e-06
-0.0064117
3.19348e-06
-0.00697487
3.59559e-06
-0.00753946
3.96413e-06
-0.0081051
4.25893e-06
-0.00867334
4.52223e-06
-0.00924117
4.6154e-06
-0.00981472
4.73093e-06
-0.0103833
4.40016e-06
-0.0109641
4.36285e-06
-0.011533
3.67308e-06
-0.0121209
3.22367e-06
-0.0126915
2.2718e-06
-0.013286
1.34736e-06
-0.000277569
-0.00083276
3.75014e-08
-0.0013881
1.49714e-07
-0.00194376
3.34007e-07
-0.00249976
5.88063e-07
-0.00305632
9.03826e-07
-0.00361344
1.27808e-06
-0.00417129
1.69587e-06
-0.00473007
2.15368e-06
-0.00528957
2.63017e-06
-0.0058504
3.12031e-06
-0.0064121
3.60174e-06
-0.00697524
4.05768e-06
-0.00753976
4.48143e-06
-0.00810537
4.82149e-06
-0.00867343
5.12399e-06
-0.00924128
5.25007e-06
-0.00981439
5.36951e-06
-0.0103832
5.08174e-06
-0.0109634
4.96313e-06
-0.0115325
4.21678e-06
-0.0121199
3.691e-06
-0.0126906
2.6414e-06
-0.0132847
1.6123e-06
-0.000277607
-0.000832872
4.133e-08
-0.00138829
1.6501e-07
-0.00194402
3.68252e-07
-0.00250007
6.48489e-07
-0.00305669
9.97252e-07
-0.00361386
1.41091e-06
-0.00417175
1.87371e-06
-0.00473054
2.38167e-06
-0.00529006
2.9117e-06
-0.00585088
3.45848e-06
-0.00641256
3.9959e-06
-0.00697567
4.50845e-06
-0.0075401
4.98199e-06
-0.00810567
5.37045e-06
-0.00867355
5.70689e-06
-0.0092414
5.86261e-06
-0.0098141
5.99718e-06
-0.0103831
5.71801e-06
-0.0109626
5.59415e-06
-0.011532
4.81178e-06
-0.0121189
4.21398e-06
-0.0126896
2.99326e-06
-0.0132831
1.79684e-06
-0.000277648
-0.000832996
4.50195e-08
-0.00138849
1.79729e-07
-0.0019443
4.01168e-07
-0.00250042
7.06368e-07
-0.0030571
1.08659e-06
-0.00361432
1.53734e-06
-0.00417226
2.04278e-06
-0.00473107
2.59735e-06
-0.0052906
3.17823e-06
-0.00585142
3.77731e-06
-0.00641307
4.36876e-06
-0.00697614
4.93332e-06
-0.00754048
5.45591e-06
-0.008106
5.888e-06
-0.00867371
6.25736e-06
-0.00924153
6.4411e-06
-0.00981383
6.58144e-06
-0.010383
6.32774e-06
-0.0109619
6.17496e-06
-0.0115314
5.37043e-06
-0.0121176
4.84535e-06
-0.0126884
3.3617e-06
-0.0132813
2.01952e-06
-0.000277693
-0.000833131
4.86586e-08
-0.00138871
1.94236e-07
-0.0019446
4.33557e-07
-0.0025008
7.63221e-07
-0.00305755
1.17407e-06
-0.00361483
1.6608e-06
-0.00417281
2.20719e-06
-0.00473165
2.80649e-06
-0.0052912
3.43555e-06
-0.00585201
4.08459e-06
-0.00641363
4.72713e-06
-0.00697666
5.34187e-06
-0.00754092
5.91141e-06
-0.00810637
6.38607e-06
-0.00867389
6.78702e-06
-0.00924167
6.99622e-06
-0.00981357
7.1378e-06
-0.0103828
6.90361e-06
-0.0109611
6.72806e-06
-0.0115308
5.90682e-06
-0.0121163
4.86275e-06
-0.012687
3.70985e-06
-0.0132792
2.21531e-06
-0.000277742
-0.000833276
5.22462e-08
-0.00138895
2.08534e-07
-0.00194493
4.65458e-07
-0.00250121
8.1917e-07
-0.00305804
1.26002e-06
-0.00361537
1.78184e-06
-0.00417341
2.36783e-06
-0.00473228
3.01008e-06
-0.00529185
3.68495e-06
-0.00585265
4.38118e-06
-0.00641425
5.07166e-06
-0.00697723
5.73361e-06
-0.00754139
6.34757e-06
-0.00810677
6.86309e-06
-0.0086741
7.2951e-06
-0.00924181
7.52783e-06
-0.00981334
7.66893e-06
-0.0103827
7.45162e-06
-0.0109602
7.25112e-06
-0.01153
6.39467e-06
-0.0121148
5.59246e-06
-0.0126855
4.0368e-06
-0.013277
2.40658e-06
-0.000277794
-0.000833433
5.57975e-08
-0.00138921
2.22691e-07
-0.00194529
4.97057e-07
-0.00250165
8.7461e-07
-0.00305856
1.34517e-06
-0.00361596
1.90168e-06
-0.00417405
2.52661e-06
-0.00473296
3.21084e-06
-0.00529255
3.92989e-06
-0.00585334
4.67123e-06
-0.00641491
5.40679e-06
-0.00697785
6.11291e-06
-0.00754191
6.76814e-06
-0.00810721
7.32215e-06
-0.00867433
7.78435e-06
-0.00924195
8.04184e-06
-0.00981312
8.18927e-06
-0.0103825
7.97307e-06
-0.0109594
7.7445e-06
-0.0115292
6.86014e-06
-0.0121132
6.00811e-06
-0.0126839
4.35858e-06
-0.0132746
2.59136e-06
-0.00027785
-0.0008336
5.93059e-08
-0.00138948
2.36684e-07
-0.00194566
5.2832e-07
-0.00250213
9.29531e-07
-0.00305912
1.4296e-06
-0.00361659
2.02063e-06
-0.00417474
2.68419e-06
-0.00473368
3.4099e-06
-0.00529329
4.1722e-06
-0.00585408
4.95719e-06
-0.00641561
5.73554e-06
-0.0069785
6.4829e-06
-0.00754246
7.1758e-06
-0.00810767
7.76472e-06
-0.00867459
8.25414e-06
-0.0092421
8.53467e-06
-0.0098129
8.68901e-06
-0.0103822
8.47093e-06
-0.0109585
8.20797e-06
-0.0115284
7.28502e-06
-0.0121115
6.37401e-06
-0.0126822
4.65422e-06
-0.0132721
2.76222e-06
-0.000277909
-0.000833778
6.27717e-08
-0.00138978
2.50514e-07
-0.00194607
5.59244e-07
-0.00250263
9.83925e-07
-0.00305971
1.51335e-06
-0.00361725
2.13877e-06
-0.00417546
2.84088e-06
-0.00473444
3.60797e-06
-0.00529407
4.4132e-06
-0.00585486
5.24116e-06
-0.00641636
6.06094e-06
-0.0069792
6.84736e-06
-0.00754305
7.57477e-06
-0.00810816
8.1948e-06
-0.00867487
8.70766e-06
-0.00924225
9.00802e-06
-0.00981268
9.16683e-06
-0.010382
8.94943e-06
-0.0109576
8.64641e-06
-0.0115275
7.67846e-06
-0.0121098
6.70612e-06
-0.0126803
4.89857e-06
-0.0132693
2.90905e-06
-0.000277972
-0.000833966
6.61978e-08
-0.00139009
2.64184e-07
-0.00194649
5.89817e-07
-0.00250315
1.03773e-06
-0.00306034
1.59625e-06
-0.00361795
2.25583e-06
-0.00417623
2.99632e-06
-0.00473525
3.80471e-06
-0.0052949
4.65282e-06
-0.00585568
5.52361e-06
-0.00641715
6.38434e-06
-0.00697993
7.20866e-06
-0.00754367
7.96841e-06
-0.00810867
8.61621e-06
-0.00867517
9.14829e-06
-0.00924241
9.46431e-06
-0.00981246
9.6259e-06
-0.0103817
9.41132e-06
-0.0109566
9.06645e-06
-0.0115265
8.05341e-06
-0.012108
7.01124e-06
-0.0126783
5.05793e-06
-0.0132664
3.03409e-06
-0.000278038
-0.000834164
6.9592e-08
-0.00139041
2.77718e-07
-0.00194694
6.20063e-07
-0.00250371
1.09092e-06
-0.003061
1.67814e-06
-0.00361869
2.37146e-06
-0.00417704
3.14987e-06
-0.00473609
3.99922e-06
-0.00529577
4.89002e-06
-0.00585654
5.80364e-06
-0.00641797
6.70542e-06
-0.00698069
7.56752e-06
-0.00754432
8.35889e-06
-0.0081092
9.03248e-06
-0.00867549
9.58024e-06
-0.00924257
9.90689e-06
-0.00981224
1.00672e-05
-0.0103813
9.85299e-06
-0.0109556
9.46741e-06
-0.0115255
8.41569e-06
-0.0121061
7.31103e-06
-0.0126763
5.28007e-06
-0.0132633
3.16476e-06
-0.000278108
-0.000834372
7.29578e-08
-0.00139075
2.9113e-07
-0.00194741
6.49988e-07
-0.0025043
1.14344e-06
-0.00306169
1.75883e-06
-0.00361947
2.48518e-06
-0.00417788
3.3007e-06
-0.00473698
4.1902e-06
-0.00529669
5.12303e-06
-0.00585744
6.07915e-06
-0.00641884
7.02204e-06
-0.00698148
7.9223e-06
-0.00754499
8.74581e-06
-0.00810975
9.44511e-06
-0.00867582
1.00073e-05
-0.00924273
1.03411e-05
-0.00981202
1.04935e-05
-0.0103809
1.0267e-05
-0.0109545
9.84795e-06
-0.0115244
8.75872e-06
-0.012104
7.59179e-06
-0.0126742
5.49782e-06
-0.0132601
3.28591e-06
-0.000278181
-0.000834591
7.6286e-08
-0.00139111
3.04378e-07
-0.0019479
6.79487e-07
-0.00250492
1.19508e-06
-0.00306242
1.83793e-06
-0.00362029
2.59634e-06
-0.00417877
3.44774e-06
-0.00473792
4.37605e-06
-0.00529764
5.34958e-06
-0.00585838
6.34715e-06
-0.00641974
7.33064e-06
-0.0069823
8.2692e-06
-0.00754569
9.12576e-06
-0.00811031
9.85194e-06
-0.00867615
1.04298e-05
-0.00924288
1.0771e-05
-0.00981179
1.09141e-05
-0.0103805
1.06717e-05
-0.0109534
1.02183e-05
-0.0115232
9.09195e-06
-0.0121019
7.86258e-06
-0.012672
5.6971e-06
-0.0132568
3.39912e-06
-0.000278258
-0.000834819
7.95509e-08
-0.00139149
3.1736e-07
-0.00194842
7.08344e-07
-0.00250556
1.24548e-06
-0.00306317
1.91492e-06
-0.00362114
2.70419e-06
-0.0041797
3.58995e-06
-0.00473889
4.55528e-06
-0.00529864
5.56759e-06
-0.00585936
6.60478e-06
-0.00642067
7.62746e-06
-0.00698316
8.60362e-06
-0.00754642
9.49362e-06
-0.00811089
1.0248e-05
-0.00867649
1.08438e-05
-0.00924302
1.11944e-05
-0.00981155
1.13303e-05
-0.0103801
1.10739e-05
-0.0109523
1.05821e-05
-0.011522
9.42213e-06
-0.0120998
8.12895e-06
-0.0126697
5.89055e-06
-0.0132534
3.50806e-06
-0.000278337
-0.000835057
8.26947e-08
-0.00139188
3.29854e-07
-0.00194896
7.36096e-07
-0.00250623
1.29389e-06
-0.00306396
1.98875e-06
-0.00362202
2.80741e-06
-0.00418067
3.72572e-06
-0.0047399
4.72593e-06
-0.00529968
5.7746e-06
-0.00586039
6.84888e-06
-0.00642165
7.90833e-06
-0.00698405
8.92023e-06
-0.00754717
9.84285e-06
-0.00811149
1.06259e-05
-0.00867684
1.12419e-05
-0.00924315
1.1605e-05
-0.00981128
1.17374e-05
-0.0103796
1.14696e-05
-0.0109512
1.09391e-05
-0.0115207
9.75191e-06
-0.0120975
8.39733e-06
-0.0126673
6.08361e-06
-0.0132499
3.61645e-06
-0.00027842
-0.000835304
8.56401e-08
-0.00139229
3.41563e-07
-0.00194952
7.62119e-07
-0.00250692
1.33931e-06
-0.00306478
2.05806e-06
-0.00362294
2.9043e-06
-0.00418167
3.85308e-06
-0.00474095
4.88578e-06
-0.00530075
5.9681e-06
-0.00586145
7.07645e-06
-0.00642266
8.16952e-06
-0.00698497
9.21415e-06
-0.00754796
1.01671e-05
-0.00811211
1.09777e-05
-0.00867721
1.16147e-05
-0.00924328
1.19931e-05
-0.00981101
1.21271e-05
-0.0103791
1.18522e-05
-0.01095
1.12867e-05
-0.0115193
1.00808e-05
-0.0120952
8.6697e-06
-0.0126649
6.28301e-06
-0.0132463
3.72914e-06
-0.000278506
-0.000835561
8.82979e-08
-0.00139271
3.5214e-07
-0.00195009
7.85671e-07
-0.00250764
1.38052e-06
-0.00306563
2.1211e-06
-0.00362389
2.99264e-06
-0.0041827
3.96943e-06
-0.00474203
5.03195e-06
-0.00530186
6.14501e-06
-0.00586254
7.2842e-06
-0.0064237
8.40733e-06
-0.00698593
9.48091e-06
-0.00754877
1.04605e-05
-0.00811274
1.12957e-05
-0.00867759
1.19524e-05
-0.00924341
1.23467e-05
-0.00981073
1.24863e-05
-0.0103785
1.22115e-05
-0.0109488
1.16249e-05
-0.0115179
1.04007e-05
-0.0120928
8.93858e-06
-0.0126623
6.48989e-06
-0.0132426
3.84897e-06
-0.000278594
-0.000835825
9.05814e-08
-0.00139314
3.61242e-07
-0.00195069
8.05999e-07
-0.00250838
1.41623e-06
-0.0030665
2.17597e-06
-0.00362487
3.06992e-06
-0.00418376
4.07169e-06
-0.00474314
5.16094e-06
-0.005303
6.30154e-06
-0.00586366
7.46816e-06
-0.00642478
8.61763e-06
-0.0069869
9.71606e-06
-0.0075496
1.0718e-05
-0.0081134
1.15735e-05
-0.00867799
1.22464e-05
-0.00924355
1.26542e-05
-0.00981045
1.27995e-05
-0.0103779
1.25282e-05
-0.0109475
1.19312e-05
-0.0115165
1.06901e-05
-0.0120904
9.18573e-06
-0.0126597
6.69435e-06
-0.0132387
3.97216e-06
-0.000278685
-0.000836095
9.24197e-08
-0.00139359
3.68583e-07
-0.0019513
8.22449e-07
-0.00250914
1.44526e-06
-0.0030674
2.22084e-06
-0.00362587
3.13353e-06
-0.00418485
4.15648e-06
-0.00474428
5.26864e-06
-0.00530416
6.43304e-06
-0.00586481
7.62337e-06
-0.00642588
8.79535e-06
-0.00698791
9.91449e-06
-0.00755046
1.09343e-05
-0.00811408
1.18053e-05
-0.0086784
1.24897e-05
-0.00924369
1.29067e-05
-0.00981018
1.30547e-05
-0.0103773
1.27847e-05
-0.0109463
1.21762e-05
-0.011515
1.09257e-05
-0.0120879
9.3861e-06
-0.0126569
6.87052e-06
-0.0132348
4.08125e-06
-0.000278777
-0.000836372
9.37637e-08
-0.00139404
3.73958e-07
-0.00195192
8.3453e-07
-0.00250992
1.46667e-06
-0.00306831
2.25414e-06
-0.00362689
3.1811e-06
-0.00418597
4.22046e-06
-0.00474545
5.35073e-06
-0.00530535
6.53426e-06
-0.00586598
7.7439e-06
-0.00642699
8.93416e-06
-0.00698893
1.00699e-05
-0.00755133
1.11031e-05
-0.00811476
1.19848e-05
-0.00867881
1.26756e-05
-0.00924384
1.30968e-05
-0.0098099
1.3243e-05
-0.0103767
1.29708e-05
-0.010945
1.23486e-05
-0.0115134
1.10922e-05
-0.0120854
9.51386e-06
-0.0126541
6.9738e-06
-0.0132307
4.14171e-06
-0.000278871
-0.000836652
9.4601e-08
-0.0013945
3.77307e-07
-0.00195255
8.42067e-07
-0.0025107
1.48006e-06
-0.00306924
2.27507e-06
-0.00362793
3.21127e-06
-0.0041871
4.2615e-06
-0.00474663
5.40419e-06
-0.00530656
6.60118e-06
-0.00586717
7.82503e-06
-0.00642813
9.02878e-06
-0.00698996
1.01771e-05
-0.00755221
1.12196e-05
-0.00811546
1.21083e-05
-0.00867924
1.28007e-05
-0.00924399
1.32219e-05
-0.00980963
1.33607e-05
-0.0103761
1.30827e-05
-0.0109438
1.24453e-05
-0.0115119
1.11853e-05
-0.0120828
9.5587e-06
-0.0126513
6.9676e-06
-0.0132266
4.12438e-06
-0.000278966
-0.000836935
9.53107e-08
-0.00139496
3.80138e-07
-0.00195319
8.48422e-07
-0.0025115
1.49133e-06
-0.00307017
2.2927e-06
-0.00362898
3.2368e-06
-0.00418824
4.29658e-06
-0.00474783
5.45063e-06
-0.00530779
6.66076e-06
-0.00586837
7.89942e-06
-0.00642928
9.1189e-06
-0.006991
1.02833e-05
-0.0075531
1.13408e-05
-0.00811615
1.22429e-05
-0.00867966
1.29449e-05
-0.00924413
1.33732e-05
-0.00980934
1.35133e-05
-0.0103754
1.32368e-05
-0.0109425
1.25936e-05
-0.0115102
1.1334e-05
-0.0120802
9.68443e-06
-0.0126485
7.06035e-06
-0.0132224
4.23008e-06
-0.000279061
-0.00083722
9.56241e-08
-0.00139543
3.81377e-07
-0.00195384
8.5118e-07
-0.0025123
1.49617e-06
-0.00307112
2.30026e-06
-0.00363004
3.2478e-06
-0.00418939
4.31202e-06
-0.00474904
5.47177e-06
-0.00530902
6.68922e-06
-0.00586959
7.93707e-06
-0.00643044
9.16756e-06
-0.00699206
1.03445e-05
-0.007554
1.14152e-05
-0.00811685
1.233e-05
-0.00868009
1.30429e-05
-0.00924427
1.34792e-05
-0.00980907
1.36224e-05
-0.0103748
1.33478e-05
-0.0109413
1.27e-05
-0.0115086
1.14374e-05
-0.0120776
9.78802e-06
-0.0126456
7.14283e-06
-0.0132182
4.40558e-06
-0.000279157
-0.000837506
9.54295e-08
-0.0013959
3.80583e-07
-0.00195448
8.49367e-07
-0.0025131
1.4929e-06
-0.00307207
2.29513e-06
-0.0036311
3.24055e-06
-0.00419056
4.30263e-06
-0.00475025
5.46061e-06
-0.00531027
6.67717e-06
-0.00587082
7.92564e-06
-0.00643161
9.15867e-06
-0.00699313
1.03405e-05
-0.00755491
1.14181e-05
-0.00811756
1.23412e-05
-0.00868053
1.30625e-05
-0.00924441
1.35059e-05
-0.00980879
1.3652e-05
-0.0103741
1.33783e-05
-0.01094
1.27261e-05
-0.0115069
1.14662e-05
-0.012075
9.80896e-06
-0.0126427
7.19159e-06
-0.013214
3.96171e-06
-0.000279252
-0.000837791
9.47633e-08
-0.00139637
3.77912e-07
-0.00195512
8.43364e-07
-0.00251391
1.48226e-06
-0.00307301
2.27864e-06
-0.00363217
3.21713e-06
-0.00419171
4.27142e-06
-0.00475147
5.42117e-06
-0.00531152
6.62957e-06
-0.00587206
7.87074e-06
-0.0064328
9.09807e-06
-0.00699421
1.02768e-05
-0.00755583
1.13544e-05
-0.00811828
1.22807e-05
-0.00868097
1.30081e-05
-0.00924456
1.34589e-05
-0.00980852
1.36108e-05
-0.0103735
1.33412e-05
-0.0109388
1.26862e-05
-0.0115053
1.14303e-05
-0.0120723
9.75512e-06
-0.0126397
7.16529e-06
-0.0132098
3.91897e-06
-0.000279347
-0.000838074
9.36509e-08
-0.00139684
3.73472e-07
-0.00195576
8.33459e-07
-0.0025147
1.46485e-06
-0.00307395
2.25186e-06
-0.00363322
3.17931e-06
-0.00419286
4.22115e-06
-0.00475268
5.35737e-06
-0.00531276
6.55166e-06
-0.00587328
7.77889e-06
-0.00643397
8.99321e-06
-0.00699529
1.01612e-05
-0.00755676
1.12312e-05
-0.00811901
1.21545e-05
-0.00868142
1.28839e-05
-0.00924472
1.33417e-05
-0.00980825
1.35035e-05
-0.0103728
1.32454e-05
-0.0109375
1.25964e-05
-0.0115036
1.13448e-05
-0.0120697
9.65085e-06
-0.0126367
7.08883e-06
-0.0132056
4.19656e-06
-0.000279441
-0.000838354
9.21192e-08
-0.0013973
3.67377e-07
-0.0019564
8.19915e-07
-0.00251549
1.44118e-06
-0.00307488
2.21568e-06
-0.00363426
3.12856e-06
-0.004194
4.15409e-06
-0.00475387
5.27265e-06
-0.00531399
6.44832e-06
-0.0058745
7.65661e-06
-0.00643514
8.85223e-06
-0.00699636
1.00031e-05
-0.00755768
1.10585e-05
-0.00811974
1.19718e-05
-0.00868189
1.26972e-05
-0.00924488
1.31585e-05
-0.009808
1.33312e-05
-0.0103722
1.30912e-05
-0.0109363
1.24624e-05
-0.0115019
1.12324e-05
-0.0120672
9.54552e-06
-0.0126339
7.01889e-06
-0.0132014
4.1669e-06
-0.000279533
-0.000838629
9.02077e-08
-0.00139775
3.59783e-07
-0.00195702
8.03077e-07
-0.00251626
1.41185e-06
-0.00307579
2.17102e-06
-0.00363529
3.06621e-06
-0.00419512
4.0722e-06
-0.00475505
5.16981e-06
-0.0053152
6.32356e-06
-0.00587569
7.50948e-06
-0.00643629
8.68267e-06
-0.00699741
9.81211e-06
-0.00755859
1.08477e-05
-0.00812046
1.17449e-05
-0.00868235
1.24594e-05
-0.00924506
1.2918e-05
-0.00980777
1.30977e-05
-0.0103715
1.28764e-05
-0.0109351
1.22766e-05
-0.0115002
1.10861e-05
-0.0120646
9.43651e-06
-0.012631
6.93991e-06
-0.0131972
4.11977e-06
-0.000279623
-0.000838899
8.79754e-08
-0.00139819
3.50917e-07
-0.00195763
7.83425e-07
-0.00251702
1.37765e-06
-0.00307669
2.11902e-06
-0.0036363
2.99378e-06
-0.00419622
3.97734e-06
-0.0047562
5.05122e-06
-0.00531638
6.18049e-06
-0.00587686
7.34174e-06
-0.00643742
8.49039e-06
-0.00699845
9.59621e-06
-0.00755949
1.06093e-05
-0.00812117
1.14868e-05
-0.00868281
1.2185e-05
-0.00924524
1.26343e-05
-0.00980755
1.28138e-05
-0.0103709
1.2606e-05
-0.0109339
1.20355e-05
-0.0114985
1.08917e-05
-0.0120621
9.2926e-06
-0.0126282
6.8601e-06
-0.0131931
4.06512e-06
-0.000279711
-0.000839162
8.54972e-08
-0.00139862
3.41071e-07
-0.00195822
7.61585e-07
-0.00251776
1.33959e-06
-0.00307756
2.06111e-06
-0.00363728
2.91304e-06
-0.0041973
3.87163e-06
-0.00475733
4.9192e-06
-0.00531754
6.02172e-06
-0.00587801
7.15641e-06
-0.00643852
8.27923e-06
-0.00699946
9.36072e-06
-0.00756037
1.03509e-05
-0.00812186
1.12081e-05
-0.00868327
1.18881e-05
-0.00924542
1.23241e-05
-0.00980735
1.24964e-05
-0.0103704
1.22935e-05
-0.0109327
1.17449e-05
-0.0114969
1.06458e-05
-0.0120597
9.1106e-06
-0.0126254
6.77799e-06
-0.013189
4.00612e-06
-0.000279796
-0.000839417
8.28568e-08
-0.00139904
3.30571e-07
-0.0019588
7.38257e-07
-0.00251849
1.29886e-06
-0.00307842
1.99895e-06
-0.00363824
2.82613e-06
-0.00419834
3.75753e-06
-0.00475843
4.77643e-06
-0.00531868
5.84986e-06
-0.00587913
6.95597e-06
-0.0064396
8.05158e-06
-0.00700045
9.10831e-06
-0.00756123
1.00764e-05
-0.00812253
1.09146e-05
-0.00868371
1.15781e-05
-0.0092456
1.20013e-05
-0.00980716
1.21643e-05
-0.0103698
1.19597e-05
-0.0109316
1.14208e-05
-0.0114954
1.03523e-05
-0.0120574
8.87587e-06
-0.0126227
6.65197e-06
-0.013185
3.92947e-06
-0.000279879
-0.000839665
8.01311e-08
-0.00139945
3.1972e-07
-0.00195936
7.1411e-07
-0.00251919
1.25658e-06
-0.00307925
1.93422e-06
-0.00363917
2.73528e-06
-0.00419936
3.63774e-06
-0.0047595
4.62588e-06
-0.00531978
5.66788e-06
-0.00588023
6.74306e-06
-0.00644066
7.80945e-06
-0.00700142
8.84015e-06
-0.00756207
9.78614e-06
-0.00812319
1.06071e-05
-0.00868413
1.12575e-05
-0.00924576
1.16722e-05
-0.00980696
1.183e-05
-0.0103693
1.16249e-05
-0.0109306
1.10901e-05
-0.0114939
1.00382e-05
-0.0120551
8.59319e-06
-0.01262
6.42417e-06
-0.0131811
3.81908e-06
-0.000279959
-0.000839905
7.73788e-08
-0.00139985
3.08753e-07
-0.0019599
6.89663e-07
-0.00251986
1.21368e-06
-0.00308005
1.86833e-06
-0.00364007
2.64243e-06
-0.00420035
3.51475e-06
-0.00476054
4.47052e-06
-0.00532086
5.47897e-06
-0.00588129
6.5207e-06
-0.00644168
7.55521e-06
-0.00700236
8.55736e-06
-0.00756289
9.47955e-06
-0.00812384
1.0283e-05
-0.00868455
1.09226e-05
-0.00924592
1.13334e-05
-0.00980675
1.1494e-05
-0.0103687
1.12963e-05
-0.0109295
1.07722e-05
-0.0114925
9.73758e-06
-0.012053
8.31396e-06
-0.0126174
6.19091e-06
-0.0131773
3.67625e-06
-0.000280037
-0.000840136
7.46313e-08
-0.00140023
2.97796e-07
-0.00196043
6.65214e-07
-0.00252052
1.1707e-06
-0.00308082
1.80216e-06
-0.00364094
2.54891e-06
-0.00420131
3.39038e-06
-0.00476155
4.31265e-06
-0.0053219
5.2859e-06
-0.00588233
6.29189e-06
-0.00644269
7.29163e-06
-0.00700328
8.26182e-06
-0.00756369
9.15654e-06
-0.00812447
9.93931e-06
-0.00868497
1.0567e-05
-0.00924608
1.09753e-05
-0.00980656
1.11454e-05
-0.0103682
1.09645e-05
-0.0109285
1.04646e-05
-0.011491
9.45747e-06
-0.0120508
8.05952e-06
-0.0126149
5.97238e-06
-0.0131736
3.48996e-06
-0.000280111
-0.00084036
7.18874e-08
-0.0014006
2.8685e-07
-0.00196093
6.40772e-07
-0.00252115
1.12769e-06
-0.00308157
1.73585e-06
-0.00364179
2.455e-06
-0.00420223
3.26516e-06
-0.00476252
4.15313e-06
-0.0053229
5.08996e-06
-0.00588332
6.05835e-06
-0.00644366
7.02067e-06
-0.00700417
7.95527e-06
-0.00756448
8.81788e-06
-0.0081251
9.57463e-06
-0.00868538
1.01855e-05
-0.00924625
1.05878e-05
-0.00980638
1.07677e-05
-0.0103677
1.06081e-05
-0.0109275
1.01461e-05
-0.0114896
9.18342e-06
-0.0120487
7.83725e-06
-0.0126124
5.78969e-06
-0.0131701
3.31621e-06
-0.000280183
-0.000840575
6.91233e-08
-0.00140095
2.75822e-07
-0.00196142
6.16146e-07
-0.00252176
1.08434e-06
-0.00308229
1.66898e-06
-0.0036426
2.36019e-06
-0.00420312
3.13853e-06
-0.00476346
3.99143e-06
-0.00532387
4.89079e-06
-0.00588429
5.82007e-06
-0.00644459
6.74284e-06
-0.00700503
7.63861e-06
-0.00756523
8.46458e-06
-0.00812571
9.18917e-06
-0.00868579
9.77636e-06
-0.00924643
1.01648e-05
-0.00980621
1.03478e-05
-0.0103672
1.02043e-05
-0.0109265
9.78316e-06
-0.0114883
8.87294e-06
-0.0120467
7.61035e-06
-0.0126099
5.64069e-06
-0.0131668
3.29115e-06
-0.000280252
-0.000840782
6.6288e-08
-0.00140129
2.64515e-07
-0.00196189
5.90895e-07
-0.00252234
1.03988e-06
-0.00308298
1.60039e-06
-0.00364337
2.26288e-06
-0.00420398
3.00843e-06
-0.00476436
3.82507e-06
-0.0053248
4.68557e-06
-0.00588521
5.57403e-06
-0.00644548
6.4553e-06
-0.00700586
7.3094e-06
-0.00756596
8.09489e-06
-0.00812629
8.78174e-06
-0.00868618
9.33833e-06
-0.00924661
9.70395e-06
-0.00980607
9.8788e-06
-0.0103668
9.73876e-06
-0.0109256
9.34807e-06
-0.0114871
8.48029e-06
-0.0120448
7.30625e-06
-0.0126075
5.42567e-06
-0.0131635
3.22501e-06
-0.000280319
-0.00084098
6.33118e-08
-0.00140162
2.5264e-07
-0.00196234
5.64377e-07
-0.0025229
9.93192e-07
-0.00308364
1.52834e-06
-0.00364412
2.16065e-06
-0.00420479
2.87162e-06
-0.00476522
3.64995e-06
-0.00532569
4.46919e-06
-0.00588609
5.31452e-06
-0.00644634
6.15142e-06
-0.00700664
6.9613e-06
-0.00756665
7.702e-06
-0.00812685
8.34753e-06
-0.00868655
8.86623e-06
-0.00924678
9.20344e-06
-0.00980592
9.35508e-06
-0.0103664
9.20787e-06
-0.0109247
8.82468e-06
-0.0114859
7.98659e-06
-0.0120429
6.87858e-06
-0.0126053
5.08899e-06
-0.0131602
3.04113e-06
-0.000280382
-0.00084117
6.04484e-08
-0.00140193
2.41206e-07
-0.00196277
5.38863e-07
-0.00252344
9.48336e-07
-0.00308428
1.45923e-06
-0.00364483
2.06272e-06
-0.00420557
2.74066e-06
-0.00476604
3.48258e-06
-0.00532653
4.26261e-06
-0.00588692
5.06759e-06
-0.00644715
5.86309e-06
-0.00700738
6.63286e-06
-0.0075673
7.33238e-06
-0.00812736
7.94212e-06
-0.00868689
8.42665e-06
-0.00924692
8.74196e-06
-0.00980578
8.86882e-06
-0.010366
8.71692e-06
-0.0109239
8.33061e-06
-0.0114848
7.51992e-06
-0.0120411
6.4546e-06
-0.0126033
4.74731e-06
-0.0131572
2.81285e-06
-0.000280443
-0.000841351
5.7908e-08
-0.00140222
2.31079e-07
-0.00196318
5.16305e-07
-0.00252395
9.0879e-07
-0.00308488
1.3985e-06
-0.00364551
1.97695e-06
-0.00420632
2.62641e-06
-0.00476682
3.33702e-06
-0.00532734
4.08407e-06
-0.00588771
4.8553e-06
-0.00644791
5.618e-06
-0.00700808
6.35587e-06
-0.00756791
7.02609e-06
-0.00812785
7.60983e-06
-0.0086872
8.07685e-06
-0.00924705
8.3811e-06
-0.00980563
8.50296e-06
-0.0103657
8.35178e-06
-0.0109231
7.98427e-06
-0.0114837
7.19676e-06
-0.0120394
6.19461e-06
-0.0126014
4.5474e-06
-0.0131544
2.73437e-06
-0.000280501
-0.000841524
5.51605e-08
-0.00140251
2.20128e-07
-0.00196357
4.91921e-07
-0.00252444
8.6606e-07
-0.00308546
1.3329e-06
-0.00364616
1.88435e-06
-0.00420703
2.50306e-06
-0.00476756
3.17979e-06
-0.00532811
3.89112e-06
-0.00588848
4.6257e-06
-0.00644865
5.35278e-06
-0.00700875
6.05584e-06
-0.0075685
6.69445e-06
-0.00812832
7.24991e-06
-0.0086875
7.69864e-06
-0.00924716
7.99129e-06
-0.00980549
8.10897e-06
-0.0103653
7.95755e-06
-0.0109223
7.61147e-06
-0.0114827
6.84335e-06
-0.0120377
5.89412e-06
-0.0125996
4.30381e-06
-0.0131516
2.6512e-06
-0.000280556
-0.00084169
5.21808e-08
-0.00140278
2.08253e-07
-0.00196394
4.65482e-07
-0.0025249
8.1975e-07
-0.00308601
1.26183e-06
-0.00364678
1.7841e-06
-0.0042077
2.36961e-06
-0.00476827
3.00975e-06
-0.00532885
3.68252e-06
-0.0058892
4.3775e-06
-0.00644935
5.06593e-06
-0.00700939
5.7312e-06
-0.00756906
6.33566e-06
-0.00812876
6.86029e-06
-0.00868778
7.28871e-06
-0.00924728
7.56823e-06
-0.00980536
7.68193e-06
-0.0103649
7.53166e-06
-0.0109215
7.21669e-06
-0.0114818
6.47405e-06
-0.0120361
5.57133e-06
-0.0125979
4.01916e-06
-0.013149
2.45011e-06
-0.000280608
-0.000841846
4.89487e-08
-0.00140304
1.95376e-07
-0.0019643
4.3682e-07
-0.00252534
7.69553e-07
-0.00308653
1.1848e-06
-0.00364736
1.67553e-06
-0.00420835
2.22526e-06
-0.00476895
2.82602e-06
-0.00532954
3.45744e-06
-0.00588989
4.10982e-06
-0.00645002
4.75668e-06
-0.00700999
5.38111e-06
-0.00756959
5.94935e-06
-0.00812919
6.44042e-06
-0.00868805
6.84652e-06
-0.0092474
7.10933e-06
-0.00980522
7.21798e-06
-0.0103646
7.06723e-06
-0.0109208
6.79182e-06
-0.0114809
6.08801e-06
-0.0120346
5.25961e-06
-0.0125963
4.07073e-06
-0.0131465
2.28927e-06
-0.000280658
-0.000841993
4.54476e-08
-0.00140328
1.81434e-07
-0.00196463
4.05785e-07
-0.00252576
7.15192e-07
-0.00308702
1.10138e-06
-0.00364791
1.55798e-06
-0.00420895
2.06915e-06
-0.00476958
2.62762e-06
-0.00533019
3.21484e-06
-0.00589053
3.82157e-06
-0.00645064
4.42393e-06
-0.00701057
5.00438e-06
-0.00757009
5.53464e-06
-0.0081296
5.9896e-06
-0.00868829
6.37218e-06
-0.00924752
6.61427e-06
-0.00980508
6.71802e-06
-0.0103643
6.56245e-06
-0.0109201
6.31972e-06
-0.0114801
5.65824e-06
-0.0120332
4.96909e-06
-0.0125948
3.64287e-06
-0.0131442
2.16071e-06
-0.000280703
-0.00084213
4.16702e-08
-0.00140351
1.66395e-07
-0.00196494
3.72299e-07
-0.00252614
6.56493e-07
-0.00308748
1.01123e-06
-0.00364842
1.43096e-06
-0.00420951
1.90059e-06
-0.00477016
2.41364e-06
-0.0053308
2.95371e-06
-0.00589113
3.5116e-06
-0.00645122
4.06652e-06
-0.0070111
4.59952e-06
-0.00757055
5.09017e-06
-0.00812998
5.50621e-06
-0.00868851
5.865e-06
-0.00924763
6.0824e-06
-0.00980492
6.18733e-06
-0.0103641
6.02733e-06
-0.0109194
5.81304e-06
-0.0114794
5.16536e-06
-0.0120318
4.60353e-06
-0.0125934
3.32848e-06
-0.0131421
1.98421e-06
-0.000280745
-0.000842255
3.76263e-08
-0.00140371
1.50289e-07
-0.00196522
3.36382e-07
-0.0025265
5.93434e-07
-0.0030879
9.14283e-07
-0.00364889
1.29428e-06
-0.00421002
1.71924e-06
-0.0047707
2.18358e-06
-0.00533136
2.67335e-06
-0.00589168
3.17897e-06
-0.00645175
3.68356e-06
-0.00701159
4.16539e-06
-0.00757097
4.61488e-06
-0.00813034
4.98845e-06
-0.0086887
5.32375e-06
-0.00924775
5.5109e-06
-0.00980475
5.62458e-06
-0.0103639
5.46373e-06
-0.0109188
5.29866e-06
-0.0114788
5.06299e-06
-0.0120305
4.07518e-06
-0.0125921
3.01594e-06
-0.0131401
1.79035e-06
-0.000280783
-0.000842368
3.33381e-08
-0.0014039
1.33184e-07
-0.00196548
2.98156e-07
-0.00252681
5.26186e-07
-0.00308828
8.10704e-07
-0.00364932
1.14816e-06
-0.00421049
1.52535e-06
-0.00477119
1.93758e-06
-0.00533186
2.37367e-06
-0.00589219
2.82312e-06
-0.00645223
3.27471e-06
-0.00701205
3.70146e-06
-0.00757135
4.10893e-06
-0.00813068
4.43547e-06
-0.00868888
4.74975e-06
-0.00924787
4.89972e-06
-0.00980458
5.02956e-06
-0.0103637
4.85556e-06
-0.0109182
4.81241e-06
-0.0114781
4.35593e-06
-0.0120294
3.66685e-06
-0.0125908
2.72223e-06
-0.0131383
1.604e-06
-0.000280817
-0.000842469
2.88174e-08
-0.00140406
1.15145e-07
-0.00196571
2.57757e-07
-0.0025271
4.55007e-07
-0.00308861
7.00904e-07
-0.00364969
9.93252e-07
-0.00421091
1.31984e-06
-0.00477163
1.67671e-06
-0.00533231
2.0556e-06
-0.00589264
2.44444e-06
-0.00645266
2.84091e-06
-0.00701246
3.20798e-06
-0.00757167
3.57476e-06
-0.00813099
3.8474e-06
-0.00868902
4.14751e-06
-0.00924801
4.25362e-06
-0.00980443
4.41216e-06
-0.0103637
4.59698e-06
-0.0109176
4.12392e-06
-0.0114775
3.74927e-06
-0.0120285
3.20397e-06
-0.0125897
2.388e-06
-0.0131367
1.40613e-06
-0.000280846
-0.000842555
2.40221e-08
-0.00140421
9.61583e-08
-0.0019659
2.15302e-07
-0.00252734
3.80272e-07
-0.0030889
5.8564e-07
-0.00365002
8.30648e-07
-0.00421127
1.10413e-06
-0.00477201