/*--------------------------------*- C++ -*----------------------------------*\
  =========                 |
  \\      /  F ield         | OpenFOAM: The Open Source CFD Toolbox
   \\    /   O peration     | Website:  https://openfoam.org
    \\  /    A nd           | Version:  10
     \\/     M anipulation  |
\*---------------------------------------------------------------------------*/
FoamFile
{
    format      ascii;
    class       volScalarField;
    location    "0.29";
    object      rho;
}
// * * * * * * * * * * * * * * * * * * * * * * * * * * * * * * * * * * * * * //

dimensions      [1 -3 0 0 0 0 0];

internalField   nonuniform List<scalar> 
4176
(
0.0308487
0.0308517
0.030858
0.0308683
0.0308815
0.0308977
0.0309187
0.0309401
0.0309694
0.0309955
0.0310323
0.0310648
0.0311068
0.0311475
0.0311926
0.0312439
0.0312871
0.0313549
0.0313934
0.031479
0.0315107
0.0316161
0.031636
0.0317506
0.0308567
0.0308596
0.0308649
0.0308747
0.0308859
0.0309015
0.0309192
0.0309399
0.030965
0.0309899
0.031022
0.0310524
0.0310899
0.031127
0.0311682
0.0312142
0.0312541
0.0313144
0.0313501
0.0314266
0.0314539
0.0315541
0.0315746
0.0317038
0.030876
0.0308789
0.0308845
0.0308946
0.0309063
0.0309223
0.030941
0.0309621
0.0309885
0.031014
0.0310477
0.0310787
0.0311182
0.0311562
0.0311996
0.0312468
0.0312891
0.031352
0.0313878
0.0314681
0.0314955
0.0315945
0.0316131
0.0317345
0.0309047
0.0309076
0.030913
0.0309228
0.0309342
0.0309497
0.030968
0.0309883
0.0310143
0.0310387
0.031072
0.0311016
0.0311408
0.031177
0.0312201
0.0312655
0.0313074
0.0313704
0.0314015
0.0314841
0.0315092
0.0316069
0.0316243
0.0317369
0.0309442
0.030947
0.0309524
0.0309623
0.0309736
0.0309892
0.0310073
0.0310279
0.0310535
0.0310784
0.0311112
0.0311413
0.0311801
0.0312165
0.0312597
0.0313044
0.0313483
0.0314082
0.031443
0.0315236
0.0315503
0.0316475
0.0316664
0.0317806
0.0309937
0.0309965
0.0310018
0.0310116
0.0310226
0.0310382
0.0310558
0.0310763
0.0311014
0.0311261
0.0311583
0.0311882
0.0312263
0.0312623
0.0313051
0.0313488
0.0313931
0.03145
0.0314881
0.0315648
0.0315924
0.0316884
0.0317081
0.0318239
0.0310536
0.0310564
0.0310616
0.0310714
0.0310823
0.0310977
0.0311152
0.0311355
0.0311604
0.0311848
0.0312168
0.0312463
0.0312842
0.0313198
0.0313624
0.0314054
0.0314499
0.0315052
0.0315442
0.0316189
0.0316479
0.0317421
0.0317622
0.031876
0.0311237
0.0311265
0.0311317
0.0311413
0.0311521
0.0311674
0.0311846
0.0312047
0.0312292
0.0312534
0.0312849
0.0313141
0.0313515
0.0313865
0.0314289
0.0314709
0.0315155
0.0315689
0.0316091
0.0316812
0.0317113
0.0318039
0.0318245
0.031937
0.0312042
0.031207
0.0312121
0.0312217
0.0312323
0.0312475
0.0312644
0.0312843
0.0313085
0.0313324
0.0313635
0.0313923
0.0314293
0.0314638
0.0315058
0.031547
0.0315915
0.0316433
0.0316843
0.0317539
0.0317851
0.0318757
0.0318967
0.0320075
0.031295
0.0312978
0.0313028
0.0313123
0.0313227
0.0313378
0.0313545
0.0313742
0.031398
0.0314215
0.0314523
0.0314805
0.0315172
0.0315509
0.0315926
0.0316329
0.0316773
0.0317274
0.0317691
0.0318364
0.0318685
0.0319567
0.0319783
0.0320872
0.0313963
0.0313991
0.031404
0.0314134
0.0314236
0.0314385
0.0314549
0.0314744
0.0314978
0.031521
0.0315513
0.0315791
0.0316153
0.0316484
0.0316896
0.031729
0.0317732
0.0318218
0.031864
0.0319288
0.0319616
0.0320476
0.0320695
0.0321765
0.031508
0.0315108
0.0315156
0.0315249
0.031535
0.0315497
0.0315658
0.0315849
0.031608
0.0316309
0.0316607
0.031688
0.0317236
0.031756
0.0317968
0.0318351
0.031879
0.0319262
0.0319687
0.0320312
0.0320649
0.032148
0.0321703
0.0322752
0.0316303
0.0316331
0.0316378
0.031647
0.0316568
0.0316713
0.0316871
0.031706
0.0317287
0.0317511
0.0317804
0.0318072
0.0318423
0.031874
0.0319142
0.0319515
0.031995
0.0320407
0.0320835
0.0321436
0.0321778
0.0322585
0.0322809
0.0323835
0.0317632
0.0317659
0.0317705
0.0317797
0.0317892
0.0318035
0.031819
0.0318375
0.0318598
0.0318818
0.0319106
0.0319368
0.0319713
0.0320022
0.0320419
0.0320782
0.0321212
0.0321654
0.0322084
0.032266
0.0323007
0.0323789
0.0324013
0.0325015
0.0319068
0.0319095
0.031914
0.031923
0.0319323
0.0319464
0.0319615
0.0319797
0.0320015
0.032023
0.0320513
0.0320768
0.0321107
0.0321409
0.0321799
0.0322152
0.0322576
0.0323003
0.0323432
0.0323985
0.0324337
0.0325091
0.0325317
0.0326293
0.0320612
0.0320639
0.0320683
0.0320771
0.0320862
0.0321
0.0321147
0.0321325
0.0321538
0.0321748
0.0322025
0.0322274
0.0322606
0.03229
0.0323283
0.0323625
0.0324044
0.0324455
0.0324883
0.0325411
0.0325767
0.0326493
0.0326723
0.032767
0.0322265
0.0322291
0.0322334
0.0322421
0.0322509
0.0322644
0.0322787
0.0322961
0.0323169
0.0323373
0.0323644
0.0323886
0.0324211
0.0324495
0.0324871
0.0325202
0.0325615
0.0326011
0.0326435
0.0326939
0.0327299
0.0327995
0.0328229
0.0329146
0.0324028
0.0324054
0.0324095
0.032418
0.0324266
0.0324398
0.0324537
0.0324706
0.0324908
0.0325107
0.032537
0.0325605
0.0325923
0.0326197
0.0326565
0.0326885
0.032729
0.0327671
0.0328091
0.0328571
0.0328934
0.0329599
0.0329837
0.0330723
0.0325901
0.0325927
0.0325967
0.0326051
0.0326133
0.0326262
0.0326396
0.0326561
0.0326757
0.0326949
0.0327206
0.0327432
0.0327742
0.0328007
0.0328366
0.0328673
0.032907
0.0329436
0.032985
0.0330306
0.0330671
0.0331306
0.0331548
0.0332402
0.0327887
0.0327912
0.0327951
0.0328033
0.0328111
0.0328237
0.0328367
0.0328527
0.0328716
0.0328902
0.0329151
0.0329368
0.0329669
0.0329924
0.0330274
0.0330568
0.0330957
0.0331306
0.0331714
0.0332146
0.0332512
0.0333116
0.0333362
0.0334183
0.0329986
0.0330011
0.0330047
0.0330127
0.0330203
0.0330325
0.0330449
0.0330604
0.0330787
0.0330965
0.0331206
0.0331415
0.0331707
0.033195
0.0332291
0.0332572
0.033295
0.0333283
0.0333684
0.0334092
0.0334459
0.0335031
0.0335279
0.0336067
0.0332199
0.0332223
0.0332258
0.0332336
0.0332407
0.0332526
0.0332644
0.0332794
0.0332969
0.0333141
0.0333373
0.0333573
0.0333855
0.0334088
0.0334417
0.0334685
0.0335053
0.0335368
0.0335761
0.0336146
0.0336511
0.0337051
0.0337301
0.0338055
0.0334527
0.0334551
0.0334584
0.0334659
0.0334727
0.0334841
0.0334954
0.0335097
0.0335266
0.0335429
0.0335653
0.0335843
0.0336115
0.0336336
0.0336655
0.0336908
0.0337265
0.0337563
0.0337946
0.0338308
0.0338671
0.0339176
0.0339428
0.0340148
0.0336971
0.0336994
0.0337025
0.0337098
0.0337162
0.0337272
0.0337379
0.0337516
0.0337676
0.0337832
0.0338046
0.0338227
0.0338489
0.0338697
0.0339005
0.0339243
0.0339589
0.0339869
0.0340241
0.0340579
0.0340938
0.0341412
0.0341663
0.0342346
0.0339531
0.0339555
0.0339584
0.0339654
0.0339714
0.0339819
0.033992
0.034005
0.0340203
0.034035
0.0340555
0.0340724
0.0340976
0.0341171
0.0341468
0.0341691
0.0342025
0.0342286
0.0342648
0.0342962
0.0343317
0.0343756
0.0344006
0.0344651
0.034221
0.0342232
0.034226
0.0342328
0.0342383
0.0342484
0.0342578
0.0342702
0.0342846
0.0342984
0.0343179
0.0343338
0.0343578
0.0343761
0.0344045
0.0344253
0.0344574
0.0344817
0.0345167
0.0345458
0.0345805
0.0346213
0.0346461
0.0347065
0.0345007
0.0345029
0.0345054
0.0345119
0.034517
0.0345267
0.0345354
0.0345472
0.0345607
0.0345736
0.0345921
0.0346069
0.0346297
0.0346466
0.0346738
0.034693
0.0347238
0.0347462
0.03478
0.0348067
0.0348407
0.0348779
0.0349029
0.0349593
0.0347923
0.0347945
0.0347968
0.0348031
0.0348077
0.0348169
0.034825
0.034836
0.0348487
0.0348607
0.0348782
0.0348917
0.0349134
0.0349289
0.0349548
0.0349723
0.0350018
0.0350223
0.0350548
0.0350792
0.0351122
0.0351459
0.035171
0.035223
0.0350959
0.0350981
0.0351002
0.0351062
0.0351104
0.0351191
0.0351265
0.0351369
0.0351487
0.0351598
0.0351762
0.0351886
0.035209
0.0352231
0.0352476
0.0352635
0.0352916
0.0353101
0.0353413
0.0353632
0.0353953
0.0354253
0.0354503
0.0354983
0.0354117
0.0354138
0.0354157
0.0354215
0.0354252
0.0354334
0.0354402
0.0354498
0.0354608
0.0354709
0.0354862
0.0354974
0.0355166
0.0355292
0.0355524
0.0355666
0.0355932
0.0356097
0.0356395
0.0356591
0.0356899
0.0357166
0.035741
0.0357853
0.0357397
0.0357418
0.0357434
0.0357489
0.0357522
0.0357599
0.035766
0.035775
0.035785
0.0357942
0.0358084
0.0358185
0.0358364
0.0358476
0.0358693
0.0358818
0.035907
0.0359213
0.0359496
0.0359668
0.0359964
0.0360197
0.036044
0.0360836
0.03608
0.036082
0.0360834
0.0360887
0.0360915
0.0360987
0.0361041
0.0361123
0.0361215
0.0361297
0.0361429
0.0361518
0.0361685
0.0361781
0.0361985
0.0362092
0.0362329
0.0362452
0.0362719
0.0362866
0.0363149
0.0363349
0.0363591
0.0363939
0.0364327
0.0364346
0.0364358
0.0364408
0.0364431
0.0364499
0.0364546
0.0364621
0.0364703
0.0364777
0.0364897
0.0364974
0.0365129
0.0365211
0.0365401
0.036549
0.0365712
0.0365814
0.0366065
0.0366186
0.0366455
0.0366624
0.0366861
0.0367165
0.0367979
0.0367997
0.0368007
0.0368054
0.0368073
0.0368136
0.0368175
0.0368244
0.0368317
0.036838
0.0368491
0.0368555
0.0368697
0.0368765
0.0368941
0.0369013
0.036922
0.03693
0.0369537
0.0369631
0.0369886
0.0370021
0.0370256
0.0370511
0.0371756
0.0371774
0.0371782
0.0371826
0.037184
0.0371899
0.0371931
0.0371992
0.0372056
0.037211
0.037221
0.0372262
0.0372392
0.0372445
0.0372606
0.0372661
0.0372854
0.0372913
0.0373134
0.0373203
0.0373442
0.0373545
0.0373774
0.0373981
0.0375659
0.0375677
0.0375682
0.0375725
0.0375734
0.0375788
0.0375813
0.0375868
0.0375923
0.0375967
0.0376056
0.0376096
0.0376213
0.0376251
0.0376398
0.0376436
0.0376614
0.0376652
0.0376858
0.0376902
0.0377127
0.0377197
0.0377416
0.0377577
0.037969
0.0379707
0.0379711
0.0379751
0.0379755
0.0379805
0.0379824
0.0379872
0.0379918
0.0379953
0.038003
0.0380058
0.0380163
0.0380186
0.0380319
0.0380339
0.0380502
0.0380519
0.038071
0.0380728
0.0380939
0.0380979
0.0381186
0.0381298
0.0383849
0.0383867
0.0383868
0.0383905
0.0383906
0.0383951
0.0383963
0.0384004
0.0384041
0.0384067
0.0384134
0.038415
0.0384242
0.0384251
0.0384369
0.0384371
0.0384519
0.0384514
0.0384691
0.0384683
0.0384882
0.0384888
0.0385086
0.0385149
0.0388139
0.0388156
0.0388155
0.038819
0.0388186
0.0388227
0.0388232
0.0388267
0.0388295
0.0388312
0.0388369
0.0388373
0.0388452
0.0388446
0.038855
0.0388534
0.0388667
0.0388639
0.0388801
0.0388767
0.0388952
0.0388928
0.0389116
0.0389132
0.0392559
0.0392576
0.0392573
0.0392606
0.0392597
0.0392634
0.0392633
0.0392661
0.039268
0.0392688
0.0392734
0.0392727
0.0392794
0.0392773
0.0392863
0.0392829
0.0392947
0.0392897
0.0393044
0.0392982
0.0393153
0.0393097
0.0393275
0.0393248
0.0397112
0.0397128
0.0397123
0.0397154
0.0397141
0.0397173
0.0397165
0.0397187
0.0397198
0.0397197
0.0397232
0.0397213
0.0397268
0.0397233
0.0397309
0.0397257
0.0397361
0.0397287
0.039742
0.039733
0.0397488
0.0397397
0.0397562
0.03975
0.0401798
0.0401814
0.0401807
0.0401836
0.0401818
0.0401846
0.0401831
0.0401847
0.0401849
0.0401839
0.0401863
0.0401833
0.0401876
0.0401826
0.0401889
0.0401818
0.0401908
0.0401812
0.0401931
0.0401813
0.0401957
0.0401832
0.0401986
0.0401879
0.040662
0.0406635
0.0406626
0.0406652
0.040663
0.0406654
0.0406632
0.0406641
0.0406634
0.0406615
0.0406629
0.0406587
0.0406618
0.0406553
0.0406603
0.0406514
0.0406591
0.0406471
0.0406578
0.0406431
0.0406564
0.0406402
0.0406547
0.0406393
0.0411577
0.0411592
0.0411581
0.0411604
0.0411578
0.0411597
0.0411569
0.0411571
0.0411555
0.0411527
0.041153
0.0411476
0.0411495
0.0411416
0.0411452
0.0411345
0.0411408
0.0411266
0.0411361
0.0411185
0.0411307
0.0411108
0.0411247
0.0411046
0.041667
0.0416685
0.0416672
0.0416693
0.0416662
0.0416677
0.0416642
0.0416637
0.0416613
0.0416575
0.0416568
0.0416502
0.0416508
0.0416414
0.0416438
0.0416312
0.0416361
0.0416197
0.0416278
0.0416075
0.0416186
0.0415951
0.0416085
0.0415838
0.0421902
0.0421916
0.0421901
0.042192
0.0421884
0.0421895
0.0421852
0.0421841
0.0421807
0.0421761
0.0421743
0.0421665
0.0421658
0.042155
0.042156
0.0421416
0.0421451
0.0421265
0.0421333
0.0421101
0.0421203
0.0420929
0.0421062
0.0420765
0.0427271
0.0427285
0.0427268
0.0427285
0.0427244
0.042725
0.0427201
0.0427183
0.042714
0.0427084
0.0427055
0.0426965
0.0426946
0.0426824
0.042682
0.0426657
0.0426679
0.042647
0.0426525
0.0426263
0.0426359
0.0426044
0.042618
0.0425828
0.0432779
0.0432793
0.0432773
0.0432788
0.0432742
0.0432744
0.0432688
0.0432663
0.0432611
0.0432546
0.0432506
0.0432404
0.0432373
0.0432235
0.0432219
0.0432036
0.0432046
0.0431813
0.0431856
0.0431561
0.0431653
0.0431297
0.0431434
0.0431033
0.0438425
0.0438439
0.0438417
0.0438429
0.0438379
0.0438377
0.0438313
0.0438281
0.0438221
0.0438146
0.0438096
0.0437982
0.0437939
0.0437786
0.0437757
0.0437554
0.0437553
0.0437293
0.0437329
0.0436999
0.0437089
0.0436687
0.0436827
0.0436376
0.044421
0.0444223
0.0444199
0.0444209
0.0444154
0.0444147
0.0444077
0.0444039
0.0443969
0.0443885
0.0443825
0.0443698
0.0443644
0.0443475
0.0443435
0.044321
0.0443199
0.0442911
0.0442943
0.0442576
0.0442667
0.0442215
0.0442361
0.044186
0.0450132
0.0450145
0.0450119
0.0450127
0.0450067
0.0450056
0.0449979
0.0449934
0.0449856
0.0449762
0.0449692
0.0449553
0.0449488
0.0449302
0.0449252
0.0449006
0.0448985
0.0448668
0.0448697
0.0448293
0.0448388
0.0447886
0.0448032
0.0447485
0.045619
0.0456203
0.0456176
0.0456181
0.0456117
0.0456102
0.0456018
0.0455967
0.045588
0.0455777
0.0455697
0.0455546
0.045547
0.0455268
0.045521
0.0454939
0.0454913
0.0454564
0.0454594
0.0454149
0.0454241
0.0453705
0.0453844
0.0453254
0.0462385
0.0462397
0.0462368
0.0462371
0.0462302
0.0462284
0.0462193
0.0462136
0.0462041
0.0461929
0.0461841
0.0461676
0.0461592
0.0461371
0.0461307
0.0461011
0.0460982
0.04606
0.0460634
0.0460143
0.0460239
0.0459663
0.0459797
0.0459164
0.0468713
0.0468725
0.0468694
0.0468696
0.0468623
0.0468601
0.0468503
0.046844
0.0468338
0.0468217
0.0468121
0.0467941
0.0467852
0.046761
0.0467544
0.0467219
0.0467194
0.0466775
0.0466806
0.0466286
0.0466371
0.0465766
0.0465892
0.0465219
0.0475174
0.0475186
0.0475153
0.0475153
0.0475075
0.0475051
0.0474947
0.0474878
0.0474769
0.0474638
0.0474537
0.0474341
0.0474251
0.0473983
0.0473922
0.0473562
0.0473546
0.0473086
0.0473119
0.0472572
0.0472644
0.0472009
0.0472128
0.0471416
0.0481765
0.0481777
0.0481742
0.0481741
0.0481659
0.0481632
0.0481523
0.0481448
0.0481334
0.0481191
0.0481089
0.0480873
0.0480787
0.0480491
0.0480435
0.0480044
0.0480026
0.0479549
0.0479566
0.0478997
0.0479059
0.0478395
0.0478507
0.0477756
0.0488484
0.0488497
0.048846
0.0488458
0.0488372
0.0488343
0.0488228
0.0488147
0.0488031
0.0487873
0.0487776
0.0487535
0.0487456
0.0487138
0.0487073
0.0486674
0.0486638
0.0486148
0.0486151
0.0485561
0.0485612
0.0484922
0.0485026
0.0484239
0.0495329
0.0495344
0.0495301
0.0495303
0.0495211
0.0495182
0.049506
0.0494973
0.0494859
0.0494686
0.0494588
0.0494337
0.0494247
0.0493921
0.0493846
0.0493435
0.0493387
0.0492881
0.0492875
0.0492265
0.0492303
0.049159
0.0491685
0.0490864
0.0502298
0.0502313
0.0502269
0.0502272
0.0502173
0.0502146
0.0502018
0.050193
0.0501807
0.0501631
0.0501526
0.0501268
0.050117
0.0500836
0.0500749
0.0500329
0.0500269
0.0499751
0.0499732
0.0499104
0.0499134
0.0498394
0.0498484
0.049763
0.0509389
0.0509405
0.050936
0.050936
0.0509262
0.0509231
0.0509096
0.0509014
0.0508879
0.0508702
0.0508589
0.0508326
0.050822
0.0507879
0.0507781
0.0507355
0.0507282
0.0506754
0.0506723
0.0506079
0.0506098
0.0505339
0.0505419
0.0504534
0.05166
0.0516616
0.0516572
0.0516571
0.0516471
0.0516439
0.05163
0.051622
0.0516069
0.0515902
0.0515774
0.051551
0.0515397
0.0515048
0.0514943
0.0514508
0.0514425
0.0513887
0.0513846
0.0513187
0.0513196
0.0512415
0.051249
0.0511576
0.052393
0.0523946
0.0523902
0.05239
0.0523799
0.0523766
0.0523624
0.0523544
0.0523384
0.0523223
0.0523077
0.0522822
0.0522696
0.0522343
0.0522229
0.0521787
0.0521695
0.0521149
0.0521096
0.0520425
0.0520424
0.0519627
0.0519692
0.0518752
0.0531377
0.0531393
0.0531349
0.0531347
0.0531245
0.0531212
0.0531067
0.0530986
0.053082
0.0530662
0.0530504
0.0530254
0.0530112
0.0529763
0.0529639
0.0529191
0.052909
0.0528535
0.0528472
0.0527791
0.052778
0.0526965
0.0527025
0.0526061
0.0538941
0.0538958
0.0538913
0.0538911
0.0538807
0.0538774
0.0538627
0.0538546
0.0538374
0.0538219
0.0538051
0.0537805
0.0537648
0.0537304
0.0537169
0.0536715
0.0536606
0.0536042
0.053597
0.0535279
0.0535259
0.0534431
0.0534483
0.0533497
0.0546621
0.0546639
0.0546593
0.0546592
0.0546487
0.0546454
0.0546304
0.0546222
0.0546046
0.0545893
0.0545716
0.0545471
0.0545307
0.0544958
0.0544814
0.0544357
0.0544241
0.054367
0.0543586
0.0542889
0.0542858
0.0542017
0.0542062
0.0541057
0.0554419
0.0554437
0.0554391
0.055439
0.0554283
0.055425
0.0554096
0.0554014
0.0553834
0.0553681
0.0553496
0.0553252
0.0553078
0.0552728
0.0552573
0.0552114
0.0551989
0.0551408
0.0551319
0.0550613
0.0550574
0.0549722
0.0549759
0.0548737
0.0562333
0.0562352
0.0562305
0.0562305
0.0562195
0.0562161
0.0562004
0.0561921
0.0561735
0.0561582
0.0561387
0.0561144
0.0560959
0.0560607
0.0560445
0.055998
0.055985
0.0559263
0.0559161
0.0558449
0.0558401
0.0557539
0.0557569
0.0556532
0.0570364
0.0570384
0.0570335
0.0570334
0.0570222
0.0570187
0.0570025
0.056994
0.0569748
0.0569593
0.0569387
0.0569145
0.0568949
0.0568596
0.0568424
0.0567954
0.0567815
0.0567221
0.0567114
0.0566392
0.0566335
0.0565466
0.0565489
0.0564439
0.0578509
0.0578529
0.0578478
0.0578477
0.057836
0.0578323
0.0578156
0.0578067
0.0577869
0.0577711
0.0577493
0.0577253
0.0577041
0.0576689
0.0576507
0.0576028
0.0575885
0.0575287
0.0575168
0.057444
0.0574376
0.0573499
0.0573515
0.0572456
0.0586762
0.0586783
0.058673
0.0586727
0.0586606
0.0586564
0.0586392
0.0586298
0.0586092
0.0585929
0.0585701
0.0585461
0.0585232
0.0584886
0.0584688
0.0584206
0.0584052
0.058345
0.0583324
0.0582591
0.0582517
0.0581636
0.0581646
0.0580578
0.0595114
0.0595135
0.059508
0.0595074
0.059495
0.0594903
0.0594726
0.0594625
0.0594413
0.0594244
0.0594005
0.0593766
0.0593519
0.0593178
0.059296
0.0592484
0.0592315
0.059171
0.0591578
0.0590842
0.0590763
0.0589876
0.0589878
0.0588806
0.0603547
0.0603568
0.0603513
0.0603504
0.0603377
0.0603327
0.0603145
0.060304
0.0602821
0.0602647
0.0602401
0.060216
0.0601897
0.0601564
0.060132
0.0600862
0.0600673
0.0600067
0.0599929
0.0599197
0.0599105
0.0598218
0.0598216
0.0597139
0.0612042
0.0612063
0.0612008
0.0611998
0.0611872
0.061182
0.0611637
0.0611529
0.0611308
0.0611132
0.0610881
0.061064
0.0610365
0.061004
0.0609777
0.0609332
0.0609124
0.0608524
0.0608376
0.0607648
0.060755
0.0606664
0.0606657
0.060558
0.0620576
0.0620597
0.0620545
0.0620537
0.0620413
0.0620363
0.0620183
0.0620079
0.061986
0.0619686
0.0619436
0.0619198
0.061892
0.0618603
0.0618327
0.0617896
0.0617663
0.0617091
0.0616919
0.0616203
0.0616096
0.0615217
0.0615207
0.0614131
0.062913
0.0629153
0.0629104
0.0629101
0.0628983
0.0628941
0.0628769
0.0628674
0.0628464
0.0628299
0.0628057
0.0627829
0.0627554
0.0627251
0.0626967
0.0626556
0.0626306
0.0625753
0.0625574
0.0624857
0.0624754
0.0623877
0.0623867
0.0622794
0.0637695
0.063772
0.0637677
0.0637682
0.0637573
0.0637544
0.0637384
0.0637304
0.063711
0.0636962
0.0636735
0.0636524
0.0636263
0.0635976
0.06357
0.063531
0.0635057
0.0634525
0.0634335
0.0633625
0.0633523
0.0632649
0.063264
0.0631571
0.0646281
0.0646309
0.0646271
0.0646286
0.0646188
0.0646174
0.0646031
0.064597
0.0645795
0.0645669
0.0645464
0.0645278
0.0645037
0.0644777
0.0644516
0.0644154
0.0643905
0.0643404
0.0643204
0.0642524
0.0642414
0.0641538
0.0641531
0.0640462
0.0654919
0.065495
0.0654918
0.0654943
0.0654855
0.0654856
0.0654728
0.0654687
0.0654532
0.065443
0.0654248
0.065409
0.0653873
0.0653641
0.0653408
0.0653074
0.0652847
0.0652377
0.0652191
0.0651532
0.0651432
0.0650558
0.0650552
0.0649473
0.0663666
0.0663703
0.0663671
0.0663706
0.0663621
0.0663637
0.0663516
0.0663493
0.066335
0.0663269
0.0663106
0.0662972
0.0662776
0.0662573
0.0662371
0.0662057
0.0661875
0.0661412
0.0661282
0.0660626
0.0660571
0.0659705
0.0659713
0.0658627
0.06726
0.0672644
0.0672604
0.0672653
0.0672555
0.067259
0.0672452
0.0672453
0.0672296
0.067224
0.0672072
0.0671958
0.0671772
0.0671583
0.0671423
0.0671083
0.0670995
0.0670478
0.0670454
0.0669773
0.0669787
0.0668945
0.0668989
0.066796
0.0681814
0.0681853
0.0681821
0.0681851
0.0681764
0.0681771
0.0681646
0.0681615
0.068147
0.0681386
0.0681223
0.0681098
0.0680904
0.0680734
0.0680546
0.0680234
0.0680146
0.0679646
0.0679639
0.0678978
0.0679027
0.0678202
0.0678295
0.0677343
0.0691391
0.0691427
0.0691389
0.0691409
0.0691307
0.0691298
0.0691151
0.0691097
0.0690925
0.0690815
0.0690624
0.0690471
0.069025
0.0690061
0.0689826
0.0689546
0.0689384
0.0688921
0.0688892
0.0688224
0.0688295
0.0687454
0.068758
0.0686631
0.0701396
0.070143
0.0701382
0.0701389
0.0701267
0.0701234
0.0701056
0.0700969
0.0700757
0.0700604
0.0700367
0.0700165
0.0699894
0.0699655
0.0699361
0.0699052
0.0698816
0.0698359
0.0698256
0.0697565
0.0697636
0.0696744
0.0696895
0.0695904
0.0711861
0.0711899
0.0711835
0.0711833
0.0711685
0.0711629
0.0711415
0.0711293
0.0711031
0.0710831
0.0710531
0.0710272
0.0709927
0.0709622
0.0709245
0.0708864
0.0708548
0.0708007
0.0707853
0.070707
0.0707115
0.0706138
0.0706294
0.070522
0.0722789
0.0722831
0.072275
0.0722744
0.072257
0.0722497
0.0722243
0.0722096
0.0721774
0.0721548
0.0721164
0.0720867
0.0720423
0.0720051
0.071958
0.0719101
0.07187
0.0718011
0.0717787
0.0716865
0.0716836
0.0715723
0.0715856
0.0714644
0.0734145
0.073418
0.0734108
0.0734077
0.0733902
0.0733798
0.0733536
0.0733343
0.0733011
0.0732713
0.0732317
0.073193
0.0731453
0.0730993
0.0730434
0.0729895
0.0729318
0.0728581
0.0728177
0.0727133
0.0726955
0.0725658
0.0725707
0.0724275
0.0745863
0.0745897
0.0745823
0.0745787
0.0745604
0.0745491
0.0745214
0.0745005
0.0744652
0.0744332
0.0743905
0.0743484
0.0742966
0.0742455
0.0741841
0.0741233
0.0740544
0.0739801
0.073912
0.0738093
0.0737653
0.0736179
0.0736063
0.07343
0.0757865
0.0757897
0.0757824
0.0757787
0.0757602
0.0757486
0.0757205
0.0756991
0.0756632
0.0756302
0.0755865
0.0755431
0.0754897
0.0754366
0.0753726
0.0753088
0.0752356
0.0751572
0.0750787
0.0749783
0.0749043
0.0747602
0.0747213
0.0745075
0.0770061
0.0770094
0.0770023
0.076999
0.0769807
0.0769695
0.0769417
0.0769208
0.0768852
0.0768527
0.0768094
0.0767664
0.0767135
0.0766608
0.0765973
0.0765337
0.076461
0.0763828
0.0763036
0.0762047
0.0761249
0.0759888
0.0759324
0.0757068
0.0782366
0.0782402
0.0782334
0.0782306
0.0782128
0.0782026
0.0781756
0.0781558
0.0781213
0.0780903
0.0780484
0.0780072
0.077956
0.0779054
0.0778441
0.0777833
0.0777128
0.077638
0.0775637
0.0774658
0.0773982
0.0772606
0.0772205
0.0770223
0.0794701
0.079474
0.0794675
0.0794655
0.0794485
0.0794394
0.0794135
0.0793953
0.0793624
0.0793334
0.0792936
0.0792549
0.0792062
0.0791587
0.0791005
0.0790432
0.0789769
0.0789063
0.0788368
0.0787447
0.0786829
0.0785527
0.0785156
0.078332
0.0806994
0.0807036
0.0806975
0.0806964
0.0806802
0.0806725
0.0806479
0.0806316
0.0806005
0.0805739
0.0805364
0.0805007
0.0804549
0.0804109
0.0803563
0.0803034
0.0802409
0.0801762
0.0801108
0.0800254
0.0799682
0.0798479
0.079813
0.0796432
0.0819184
0.0819232
0.0819172
0.0819173
0.0819017
0.0818957
0.0818723
0.0818582
0.0818288
0.0818051
0.0817697
0.0817376
0.0816945
0.0816548
0.0816036
0.0815552
0.0814974
0.0814378
0.081377
0.0812985
0.0812464
0.0811353
0.0811029
0.0809468
0.0831224
0.0831276
0.0831214
0.0831232
0.0831076
0.083104
0.0830811
0.0830701
0.0830416
0.0830218
0.0829875
0.0829603
0.0829186
0.0828846
0.0828355
0.0827931
0.0827387
0.0826853
0.0826294
0.0825572
0.0825091
0.0824083
0.082378
0.0822356
0.0843068
0.0843121
0.0843063
0.0843093
0.0842941
0.0842926
0.0842703
0.0842624
0.0842346
0.084219
0.0841855
0.0841636
0.0841227
0.0840953
0.084047
0.0840123
0.0839597
0.0839128
0.0838617
0.0837959
0.0837519
0.0836608
0.083633
0.0835039
0.0854682
0.0854736
0.0854686
0.0854716
0.0854585
0.0854569
0.0854378
0.0854299
0.0854063
0.0853908
0.0853624
0.0853412
0.0853057
0.0852801
0.0852371
0.0852058
0.0851579
0.0851171
0.085069
0.0850104
0.0849706
0.0848892
0.0848633
0.0847472
0.0866037
0.0866092
0.0866048
0.0866082
0.0865964
0.0865957
0.0865785
0.0865718
0.0865511
0.0865368
0.0865124
0.0864925
0.086462
0.0864379
0.0864007
0.0863718
0.0863293
0.0862933
0.0862481
0.0861992
0.0861618
0.0860895
0.0860657
0.0859621
0.087711
0.0877166
0.0877127
0.0877167
0.0877059
0.0877063
0.0876906
0.0876855
0.0876669
0.0876546
0.0876331
0.0876154
0.0875888
0.0875672
0.0875345
0.0875088
0.0874711
0.0874392
0.0873987
0.0873579
0.0873217
0.087259
0.0872372
0.0871457
0.0887884
0.088794
0.0887905
0.088795
0.088785
0.0887866
0.0887723
0.0887687
0.0887521
0.0887418
0.088723
0.0887077
0.0886844
0.0886656
0.0886368
0.0886146
0.0885812
0.0885543
0.0885174
0.0884829
0.0884488
0.0883956
0.088376
0.0882961
0.0898342
0.0898397
0.0898366
0.0898416
0.0898326
0.089835
0.0898222
0.0898201
0.0898054
0.089797
0.0897806
0.0897676
0.0897474
0.0897314
0.0897062
0.0896873
0.0896581
0.0896349
0.0896029
0.0895737
0.0895422
0.089498
0.0894803
0.0894113
0.0908474
0.0908529
0.09085
0.0908557
0.0908472
0.0908509
0.0908389
0.0908385
0.0908253
0.0908189
0.0908047
0.090794
0.0907766
0.0907633
0.0907415
0.0907259
0.0907004
0.0906814
0.0906528
0.0906292
0.0906009
0.0905652
0.0905482
0.09049
0.0918271
0.0918325
0.0918302
0.0918358
0.0918287
0.0918325
0.0918225
0.0918227
0.0918116
0.0918067
0.0917948
0.0917861
0.0917714
0.0917606
0.091742
0.0917294
0.0917074
0.0916919
0.0916677
0.091648
0.0916237
0.0915954
0.0915798
0.0915311
0.0927729
0.0927784
0.0927759
0.0927827
0.0927751
0.0927811
0.0927708
0.0927734
0.092763
0.0927601
0.0927499
0.0927434
0.0927311
0.0927227
0.092707
0.0926973
0.0926788
0.0926668
0.0926459
0.092631
0.0926097
0.0925879
0.0925739
0.0925339
0.0936845
0.0936898
0.0936879
0.0936944
0.0936883
0.0936939
0.0936857
0.0936885
0.0936802
0.0936784
0.0936703
0.0936655
0.0936556
0.0936494
0.0936364
0.0936294
0.0936139
0.0936051
0.0935878
0.0935764
0.0935593
0.0935423
0.0935299
0.0934986
0.0945617
0.0945669
0.0945655
0.0945718
0.094567
0.0945725
0.0945658
0.0945693
0.0945624
0.094562
0.0945556
0.0945525
0.0945446
0.0945406
0.0945301
0.0945255
0.094513
0.0945072
0.094493
0.0944855
0.094471
0.0944591
0.0944483
0.0944251
0.0954049
0.0954101
0.0954081
0.0954162
0.0954096
0.0954184
0.0954101
0.0954164
0.0954094
0.0954111
0.0954058
0.0954045
0.0953986
0.0953964
0.0953883
0.095386
0.095376
0.095373
0.0953615
0.0953575
0.0953461
0.0953383
0.0953295
0.0953136
0.0962141
0.0962185
0.096219
0.096223
0.096223
0.0962253
0.0962245
0.096226
0.0962242
0.0962245
0.0962221
0.0962216
0.0962176
0.0962173
0.0962112
0.0962111
0.0962036
0.0962032
0.0961944
0.0961932
0.0961843
0.0961804
0.0961742
0.0961647
0.0969897
0.0969951
0.0969925
0.0970027
0.0969944
0.0970074
0.0969973
0.0970081
0.0970009
0.0970065
0.0970029
0.0970051
0.0970022
0.0970036
0.0969995
0.0970013
0.0969959
0.0969979
0.0969915
0.0969936
0.096987
0.0969871
0.0969825
0.0969786
0.0977328
0.0977363
0.0977389
0.09774
0.0977451
0.0977431
0.0977492
0.097747
0.0977512
0.0977507
0.0977525
0.0977537
0.0977532
0.0977558
0.0977536
0.0977571
0.0977539
0.097758
0.0977539
0.0977583
0.0977541
0.0977577
0.0977551
0.0977561
0.098443
0.0984484
0.0984455
0.0984569
0.0984478
0.0984635
0.0984524
0.0984668
0.0984592
0.0984684
0.0984657
0.0984711
0.0984705
0.098475
0.0984742
0.0984795
0.0984779
0.0984839
0.0984818
0.0984888
0.0984864
0.0984931
0.0984922
0.0984977
0.0991225
0.0991252
0.0991292
0.0991287
0.0991366
0.0991327
0.0991428
0.0991386
0.0991473
0.0991462
0.0991514
0.0991539
0.0991563
0.0991613
0.0991622
0.0991688
0.0991689
0.0991768
0.0991763
0.0991854
0.0991847
0.0991946
0.0991947
0.0992041
0.0997704
0.0997754
0.0997731
0.0997836
0.0997766
0.0997912
0.0997824
0.099797
0.099791
0.0998019
0.0998005
0.0998082
0.0998096
0.0998165
0.0998184
0.0998263
0.0998277
0.0998372
0.0998382
0.0998493
0.0998502
0.0998623
0.0998641
0.0998763
0.10039
0.100392
0.100396
0.100395
0.100404
0.100401
0.100411
0.100408
0.100418
0.100418
0.100425
0.100429
0.100434
0.100441
0.100444
0.100453
0.100456
0.100466
0.100469
0.100482
0.100483
0.100498
0.100501
0.100516
0.100979
0.100983
0.100982
0.100991
0.100986
0.100999
0.100993
0.101006
0.101003
0.101014
0.101015
0.101023
0.101027
0.101035
0.101039
0.101049
0.101053
0.101065
0.101069
0.101083
0.101086
0.101103
0.101106
0.101124
0.101541
0.101543
0.101548
0.101546
0.101555
0.101553
0.101563
0.101562
0.101572
0.101574
0.101581
0.101587
0.101592
0.101601
0.101606
0.101617
0.101622
0.101635
0.101639
0.101655
0.101659
0.101678
0.101682
0.101702
0.102075
0.102079
0.102078
0.102087
0.102083
0.102095
0.102092
0.102103
0.102103
0.102113
0.102116
0.102125
0.10213
0.10214
0.102146
0.102157
0.102163
0.102177
0.102182
0.102199
0.102204
0.102224
0.102228
0.102251
0.102585
0.102586
0.102592
0.102589
0.1026
0.102596
0.102608
0.102607
0.102617
0.10262
0.102628
0.102635
0.102642
0.102652
0.102658
0.102671
0.102677
0.102692
0.102698
0.102716
0.102721
0.102742
0.102746
0.102773
0.103068
0.103072
0.103071
0.10308
0.103075
0.103089
0.103084
0.103098
0.103097
0.103108
0.103112
0.103122
0.103128
0.103139
0.103146
0.103158
0.103165
0.103181
0.103188
0.103206
0.103213
0.103235
0.10324
0.103267
0.103529
0.10353
0.103536
0.103533
0.103545
0.10354
0.103553
0.103551
0.103563
0.103566
0.103575
0.103583
0.10359
0.103601
0.103608
0.103622
0.103629
0.103645
0.103653
0.103672
0.103679
0.103702
0.103708
0.103736
0.103966
0.103969
0.103968
0.103977
0.103973
0.103986
0.103982
0.103996
0.103995
0.104007
0.104011
0.104022
0.104028
0.10404
0.104048
0.104062
0.104069
0.104086
0.104094
0.104114
0.104121
0.104146
0.104151
0.104181
0.104382
0.104383
0.104388
0.104386
0.104396
0.104393
0.104405
0.104404
0.104416
0.104419
0.104429
0.104437
0.104445
0.104457
0.104465
0.104479
0.104487
0.104504
0.104513
0.104534
0.104541
0.104566
0.104572
0.104602
0.104776
0.104779
0.104779
0.104785
0.104784
0.104794
0.104793
0.104804
0.104806
0.104817
0.104822
0.104833
0.10484
0.104852
0.104861
0.104875
0.104884
0.104901
0.104909
0.104931
0.104939
0.104964
0.10497
0.105002
0.105151
0.105151
0.105155
0.105156
0.105163
0.105163
0.105172
0.105175
0.105184
0.105189
0.105198
0.105207
0.105215
0.105227
0.105236
0.105251
0.105259
0.105277
0.105286
0.105308
0.105316
0.105342
0.105348
0.105381
0.105506
0.105508
0.105508
0.105514
0.105514
0.105522
0.105524
0.105533
0.105537
0.105546
0.105552
0.105563
0.10557
0.105583
0.105592
0.105607
0.105615
0.105634
0.105642
0.105664
0.105673
0.105699
0.105706
0.105738
0.105843
0.105844
0.105847
0.105848
0.105854
0.105856
0.105863
0.105867
0.105875
0.105882
0.10589
0.1059
0.105908
0.10592
0.105929