/*--------------------------------*- C++ -*----------------------------------*\
  =========                 |
  \\      /  F ield         | OpenFOAM: The Open Source CFD Toolbox
   \\    /   O peration     | Website:  https://openfoam.org
    \\  /    A nd           | Version:  10
     \\/     M anipulation  |
\*---------------------------------------------------------------------------*/
FoamFile
{
    format      ascii;
    class       volScalarField;
    location    "0.29";
    object      T;
}
// * * * * * * * * * * * * * * * * * * * * * * * * * * * * * * * * * * * * * //

dimensions      [0 0 0 1 0 0 0];

internalField   nonuniform List<scalar> 
4176
(
180.347
180.351
180.372
180.383
180.426
180.445
180.506
180.538
180.613
180.661
180.75
180.809
180.913
180.985
181.1
181.192
181.307
181.43
181.534
181.703
181.778
182.01
182.026
182.325
180.356
180.361
180.382
180.393
180.436
180.457
180.519
180.552
180.628
180.678
180.767
180.829
180.935
181.01
181.127
181.221
181.34
181.464
181.571
181.744
181.819
182.062
182.08
182.41
180.384
180.389
180.409
180.42
180.462
180.483
180.542
180.576
180.649
180.698
180.785
180.846
180.95
181.022
181.138
181.229
181.347
181.467
181.572
181.74
181.811
182.049
182.068
182.408
180.436
180.44
180.461
180.472
180.513
180.535
180.594
180.627
180.7
180.749
180.837
180.897
181.002
181.073
181.19
181.28
181.399
181.522
181.622
181.795
181.863
182.097
182.114
182.438
180.511
180.515
180.535
180.546
180.588
180.608
180.667
180.7
180.772
180.82
180.907
180.966
181.07
181.14
181.257
181.344
181.465
181.586
181.683
181.857
181.925
182.156
182.173
182.486
180.61
180.614
180.634
180.645
180.686
180.707
180.765
180.798
180.868
180.917
181.002
181.062
181.164
181.234
181.35
181.436
181.558
181.673
181.777
181.945
182.015
182.244
182.264
182.577
180.733
180.737
180.757
180.768
180.808
180.829
180.886
180.918
180.988
181.037
181.121
181.18
181.281
181.35
181.465
181.549
181.672
181.781
181.89
182.051
182.123
182.35
182.372
182.683
180.88
180.884
180.904
180.914
180.954
180.974
181.031
181.063
181.132
181.18
181.263
181.321
181.421
181.489
181.603
181.686
181.808
181.914
182.025
182.181
182.255
182.478
182.501
182.808
181.051
181.055
181.074
181.085
181.124
181.144
181.2
181.232
181.3
181.347
181.429
181.486
181.585
181.652
181.764
181.845
181.967
182.069
182.181
182.332
182.408
182.627
182.652
182.954
181.245
181.249
181.269
181.279
181.318
181.337
181.392
181.424
181.491
181.537
181.618
181.674
181.771
181.837
181.949
182.028
182.149
182.248
182.361
182.507
182.584
182.798
182.824
183.121
181.463
181.467
181.486
181.496
181.535
181.554
181.608
181.639
181.705
181.751
181.83
181.886
181.982
182.046
182.156
182.233
182.353
182.449
182.563
182.703
182.784
182.989
183.018
183.309
181.705
181.709
181.728
181.738
181.776
181.794
181.848
181.878
181.943
181.988
182.066
182.121
182.215
182.278
182.386
182.461
182.58
182.673
182.787
182.922
183.003
183.205
183.233
183.519
181.971
181.975
181.994
182.003
182.041
182.058
182.111
182.141
182.205
182.248
182.325
182.379
182.471
182.533
182.64
182.713
182.83
182.919
183.033
183.164
183.246
183.441
183.47
183.75
182.26
182.264
182.283
182.291
182.329
182.346
182.398
182.427
182.49
182.532
182.608
182.66
182.751
182.811
182.916
182.987
183.102
183.189
183.302
183.428
183.51
183.699
183.728
184.002
182.573
182.577
182.595
182.604
182.641
182.657
182.709
182.736
182.798
182.84
182.913
182.964
183.053
183.112
183.215
183.284
183.397
183.481
183.593
183.714
183.796
183.98
184.009
184.277
182.91
182.914
182.932
182.94
182.976
182.992
183.042
183.069
183.13
183.17
183.242
183.292
183.379
183.436
183.537
183.603
183.715
183.795
183.907
184.022
184.105
184.282
184.311
184.573
183.271
183.275
183.292
183.3
183.335
183.35
183.4
183.425
183.485
183.524
183.595
183.642
183.728
183.782
183.881
183.945
184.055
184.133
184.242
184.353
184.435
184.606
184.635
184.89
183.655
183.659
183.676
183.683
183.718
183.732
183.781
183.805
183.863
183.901
183.97
184.016
184.099
184.152
184.249
184.31
184.418
184.492
184.6
184.705
184.788
184.952
184.981
185.23
184.063
184.067
184.084
184.09
184.125
184.138
184.185
184.209
184.265
184.301
184.369
184.413
184.494
184.544
184.639
184.698
184.803
184.874
184.98
185.08
185.162
185.32
185.349
185.591
184.495
184.498
184.515
184.521
184.555
184.567
184.614
184.635
184.691
184.725
184.79
184.833
184.912
184.96
185.052
185.108
185.21
185.279
185.382
185.478
185.559
185.71
185.739
185.973
184.95
184.954
184.97
184.975
185.008
185.02
185.065
185.086
185.139
185.172
185.236
185.276
185.352
185.398
185.487
185.541
185.64
185.705
185.806
185.897
185.977
186.122
186.151
186.377
185.429
185.433
185.449
185.453
185.486
185.496
185.54
185.559
185.611
185.642
185.704
185.742
185.816
185.859
185.946
185.996
186.093
186.154
186.252
186.339
186.418
186.555
186.584
186.803
185.932
185.935
185.951
185.955
185.986
185.995
186.038
186.056
186.107
186.136
186.195
186.231
186.303
186.343
186.427
186.475
186.568
186.626
186.721
186.802
186.88
187.011
187.04
187.25
186.458
186.461
186.476
186.48
186.51
186.518
186.56
186.576
186.625
186.652
186.709
186.743
186.812
186.85
186.931
186.975
187.066
187.12
187.211
187.289
187.365
187.488
187.516
187.718
187.008
187.011
187.026
187.028
187.058
187.065
187.105
187.12
187.167
187.192
187.247
187.278
187.344
187.38
187.457
187.499
187.586
187.636
187.725
187.797
187.87
187.988
188.015
188.209
187.581
187.584
187.598
187.6
187.629
187.634
187.673
187.686
187.731
187.754
187.807
187.836
187.9
187.932
188.006
188.045
188.128
188.175
188.26
188.328
188.4
188.509
188.534
188.721
188.177
188.18
188.193
188.195
188.223
188.227
188.265
188.276
188.319
188.34
188.39
188.416
188.477
188.507
188.578
188.613
188.693
188.737
188.818
188.881
188.949
189.052
189.076
189.256
188.796
188.798
188.812
188.812
188.839
188.843
188.879
188.888
188.93
188.948
188.996
189.02
189.078
189.105
189.172
189.204
189.281
189.32
189.398
189.456
189.522
189.617
189.64
189.812
189.438
189.44
189.453
189.453
189.479
189.481
189.516
189.524
189.563
189.58
189.625
189.646
189.701
189.725
189.789
189.818
189.891
189.926
190
190.053
190.116
190.205
190.226
190.39
190.102
190.104
190.117
190.116
190.141
190.142
190.176
190.181
190.219
190.233
190.276
190.295
190.347
190.368
190.429
190.453
190.523
190.554
190.624
190.673
190.733
190.814
190.835
190.988
190.789
190.791
190.803
190.802
190.826
190.825
190.858
190.862
190.898
190.91
190.95
190.966
191.015
191.033
191.091
191.111
191.177
191.204
191.271
191.315
191.371
191.445
191.465
191.609
191.498
191.5
191.512
191.51
191.533
191.531
191.562
191.564
191.598
191.608
191.646
191.659
191.706
191.72
191.775
191.792
191.854
191.877
191.94
191.978
192.031
192.099
192.116
192.252
192.23
192.231
192.243
192.24
192.262
192.259
192.288
192.289
192.321
192.329
192.365
192.375
192.419
192.43
192.482
192.495
192.553
192.572
192.631
192.664
192.714
192.775
192.791
192.917
192.983
192.984
192.995
192.992
193.013
193.009
193.037
193.036
193.066
193.072
193.105
193.113
193.154
193.162
193.21
193.22
193.274
193.289
193.344
193.372
193.418
193.473
193.487
193.604
193.758
193.759
193.769
193.765
193.786
193.78
193.807
193.804
193.833
193.836
193.867
193.872
193.91
193.915
193.961
193.966
194.018
194.028
194.079
194.102
194.145
194.193
194.205
194.313
194.554
194.555
194.565
194.56
194.58
194.573
194.599
194.594
194.621
194.622
194.651
194.653
194.689
194.69
194.733
194.735
194.783
194.788
194.837
194.855
194.893
194.935
194.944
195.043
195.371
195.372
195.382
195.376
195.396
195.388
195.412
195.406
195.431
195.43
195.456
195.456
195.489
195.487
195.527
195.525
195.57
195.571
195.616
195.629
195.663
195.7
195.705
195.795
196.21
196.211
196.22
196.214
196.232
196.223
196.246
196.238
196.261
196.259
196.283
196.28
196.31
196.306
196.343
196.336
196.378
196.375
196.417
196.425
196.455
196.486
196.488
196.569
197.069
197.07
197.079
197.072
197.09
197.08
197.101
197.092
197.113
197.108
197.13
197.125
197.153
197.145
197.179
197.169
197.208
197.2
197.238
197.242
197.268
197.294
197.293
197.364
197.949
197.95
197.959
197.951
197.968
197.957
197.977
197.966
197.986
197.979
197.999
197.991
198.016
198.006
198.037
198.023
198.059
198.047
198.081
198.08
198.103
198.122
198.119
198.182
198.849
198.85
198.858
198.85
198.866
198.854
198.873
198.861
198.879
198.871
198.888
198.878
198.901
198.887
198.916
198.898
198.931
198.915
198.946
198.939
198.958
198.972
198.966
199.021
199.77
199.771
199.779
199.77
199.785
199.772
199.79
199.776
199.793
199.782
199.798
199.786
199.806
199.789
199.815
199.794
199.824
199.803
199.831
199.819
199.835
199.842
199.833
199.882
200.711
200.711
200.719
200.71
200.724
200.71
200.727
200.712
200.727
200.714
200.728
200.713
200.731
200.711
200.735
200.71
200.737
200.712
200.737
200.719
200.733
200.734
200.722
200.762
201.672
201.672
201.679
201.669
201.683
201.668
201.684
201.667
201.68
201.666
201.678
201.661
201.676
201.654
201.675
201.646
201.671
201.641
201.664
201.64
201.652
201.646
201.631
201.663
202.652
202.652
202.659
202.648
202.662
202.645
202.66
202.642
202.654
202.637
202.647
202.628
202.641
202.616
202.634
202.602
202.624
202.59
202.61
202.581
202.591
202.579
202.562
202.586
203.651
203.652
203.658
203.647
203.66
203.642
203.656
203.636
203.646
203.628
203.636
203.615
203.625
203.597
203.613
203.578
203.597
203.558
203.577
203.542
203.551
203.531
203.512
203.528
204.67
204.67
204.676
204.665
204.676
204.658
204.67
204.649
204.658
204.638
204.644
204.62
204.629
204.598
204.611
204.573
204.589
204.546
204.563
204.522
204.529
204.503
204.483
204.49
205.707
205.707
205.713
205.701
205.712
205.692
205.704
205.681
205.689
205.667
205.671
205.645
205.651
205.617
205.628
205.587
205.601
205.553
205.568
205.522
205.526
205.493
205.474
205.471
206.763
206.762
206.768
206.755
206.766
206.745
206.755
206.731
206.737
206.714
206.716
206.688
206.692
206.655
206.664
206.619
206.631
206.579
206.592
206.54
206.542
206.501
206.485
206.472
207.836
207.836
207.841
207.827
207.837
207.816
207.825
207.8
207.804
207.779
207.779
207.749
207.751
207.711
207.717
207.67
207.679
207.624
207.633
207.577
207.579
207.53
207.513
207.492
208.926
208.926
208.931
208.917
208.926
208.904
208.912
208.885
208.888
208.861
208.86
208.827
208.828
208.785
208.789
208.738
208.746
208.686
208.694
208.631
208.634
208.576
208.559
208.53
210.033
210.033
210.038
210.023
210.031
210.008
210.015
209.988
209.989
209.961
209.958
209.923
209.921
209.877
209.878
209.824
209.83
209.766
209.772
209.701
209.708
209.64
209.624
209.587
211.157
211.156
211.161
211.146
211.153
211.129
211.135
211.106
211.107
211.077
211.072
211.035
211.032
210.985
210.984
210.926
210.932
210.862
210.869
210.791
210.796
210.724
210.706
210.662
212.295
212.295
212.299
212.283
212.29
212.266
212.271
212.241
212.24
212.208
212.202
212.163
212.159
212.108
212.107
212.045
212.05
211.973
211.984
211.898
211.903
211.824
211.805
211.754
213.449
213.448
213.452
213.436
213.443
213.417
213.421
213.39
213.388
213.355
213.348
213.307
213.302
213.248
213.246
213.179
213.185
213.104
213.111
213.022
213.025
212.942
212.922
212.863
214.616
214.615
214.619
214.603
214.609
214.583
214.586
214.554
214.551
214.517
214.509
214.465
214.46
214.401
214.402
214.33
214.334
214.249
214.256
214.163
214.164
214.076
214.055
213.99
215.797
215.796
215.8
215.783
215.789
215.762
215.765
215.732
215.728
215.692
215.684
215.637
215.633
215.569
215.571
215.494
215.499
215.41
215.415
215.32
215.318
215.226
215.204
215.133
216.99
216.99
216.993
216.976
216.981
216.954
216.956
216.922
216.919
216.88
216.873
216.822
216.818
216.753
216.753
216.674
216.677
216.587
216.588
216.491
216.488
216.391
216.368
216.291
218.195
218.195
218.198
218.182
218.185
218.159
218.16
218.125
218.122
218.081
218.073
218.022
218.016
217.95
217.949
217.868
217.869
217.776
217.776
217.677
217.671
217.572
217.548
217.465
219.412
219.411
219.414
219.398
219.401
219.374
219.374
219.34
219.335
219.294
219.285
219.233
219.226
219.159
219.157
219.074
219.074
218.979
218.978
218.876
218.87
218.765
218.742
218.654
220.639
220.638
220.641
220.624
220.628
220.601
220.6
220.566
220.559
220.52
220.509
220.456
220.448
220.381
220.376
220.293
220.291
220.195
220.192
220.089
220.081
219.974
219.949
219.856
221.875
221.875
221.878
221.861
221.865
221.837
221.836
221.803
221.794
221.755
221.743
221.691
221.681
221.613
221.607
221.524
221.521
221.423
221.419
221.313
221.304
221.194
221.169
221.072
223.122
223.121
223.124
223.107
223.111
223.083
223.082
223.049
223.038
223.001
222.986
222.936
222.924
222.856
222.849
222.766
222.76
222.662
222.657
222.549
222.539
222.427
222.401
222.299
224.377
224.376
224.38
224.362
224.366
224.338
224.337
224.304
224.293
224.256
224.239
224.19
224.177
224.109
224.1
224.017
224.01
223.911
223.905
223.796
223.785
223.67
223.644
223.539
225.641
225.64
225.644
225.626
225.63
225.602
225.6
225.567
225.556
225.52
225.501
225.453
225.437
225.372
225.361
225.277
225.269
225.17
225.164
225.051
225.041
224.924
224.898
224.789
226.913
226.913
226.916
226.899
226.902
226.874
226.873
226.839
226.827
226.792
226.772
226.725
226.707
226.642
226.631
226.545
226.537
226.438
226.43
226.317
226.305
226.186
226.16
226.048
228.193
228.193
228.196
228.179
228.182
228.155
228.152
228.119
228.106
228.071
228.05
228.004
227.985
227.92
227.908
227.821
227.812
227.711
227.704
227.59
227.578
227.457
227.431
227.316
229.481
229.481
229.484
229.467
229.47
229.442
229.44
229.406
229.393
229.358
229.336
229.289
229.269
229.204
229.192
229.103
229.095
228.993
228.984
228.87
228.857
228.735
228.709
228.592
230.777
230.777
230.78
230.762
230.765
230.737
230.734
230.7
230.686
230.651
230.627
230.582
230.559
230.495
230.481
230.393
230.384
230.28
230.271
230.157
230.142
230.02
229.994
229.875
232.079
232.079
232.082
232.064
232.067
232.038
232.034
232
231.985
231.95
231.924
231.879
231.855
231.791
231.774
231.688
231.678
231.572
231.563
231.449
231.434
231.311
231.284
231.164
233.387
233.387
233.389
233.371
233.373
233.344
233.34
233.305
233.289
233.253
233.226
233.182
233.155
233.092
233.072
232.988
232.976
232.87
232.861
232.745
232.73
232.607
232.581
232.459
234.697
234.697
234.7
234.681
234.683
234.653
234.648
234.613
234.596
234.56
234.531
234.487
234.458
234.397
234.375
234.291
234.277
234.173
234.163
234.045
234.031
233.908
233.882
233.76
236.008
236.008
236.011
235.992
235.994
235.963
235.959
235.922
235.905
235.868
235.839
235.796
235.764
235.705
235.679
235.599
235.579
235.482
235.47
235.35
235.336
235.214
235.188
235.066
237.317
237.317
237.319
237.3
237.303
237.272
237.268
237.232
237.215
237.178
237.149
237.106
237.073
237.016
236.987
236.91
236.889
236.791
236.78
236.66
236.647
236.525
236.499
236.377
238.619
238.619
238.623
238.604
238.607
238.577
238.574
238.538
238.522
238.487
238.458
238.417
238.384
238.328
238.299
238.224
238.201
238.107
238.091
237.977
237.962
237.841
237.816
237.694
239.914
239.914
239.918
239.9
239.905
239.876
239.874
239.841
239.827
239.793
239.766
239.727
239.695
239.643
239.612
239.542
239.517
239.426
239.407
239.3
239.284
239.162
239.138
239.017
241.2
241.201
241.206
241.189
241.195
241.168
241.169
241.138
241.126
241.096
241.071
241.036
241.006
240.957
240.929
240.862
240.837
240.751
240.732
240.624
240.61
240.49
240.467
240.346
242.481
242.482
242.488
242.473
242.481
242.456
242.459
242.43
242.422
242.395
242.374
242.342
242.316
242.271
242.246
242.184
242.161
242.079
242.062
241.957
241.944
241.823
241.802
241.681
243.762
243.764
243.771
243.756
243.766
243.743
243.748
243.722
243.717
243.693
243.675
243.647
243.625
243.584
243.563
243.505
243.487
243.409
243.394
243.294
243.284
243.165
243.145
243.023
245.053
245.055
245.062
245.049
245.058
245.037
245.043
245.02
245.015
244.994
244.978
244.954
244.934
244.897
244.881
244.823
244.815
244.735
244.731
244.63
244.629
244.511
244.496
244.377
246.364
246.367
246.373
246.36
246.37
246.349
246.354
246.331
246.326
246.306
246.29
246.267
246.247
246.213
246.2
246.143
246.141
246.06
246.064
245.964
245.97
245.856
245.847
245.736
247.708
247.71
247.717
247.702
247.711
247.687
247.692
247.666
247.66
247.637
247.62
247.595
247.574
247.54
247.522
247.471
247.464
247.388
247.391
247.294
247.305
247.192
247.189
247.084
249.094
249.096
249.102
249.085
249.092
249.066
249.068
249.038
249.028
249.001
248.979
248.95
248.923
248.887
248.862
248.81
248.796
248.719
248.724
248.622
248.635
248.519
248.521
248.415
250.529
250.53
250.535
250.517
250.521
250.491
250.489
250.454
250.439
250.406
250.377
250.341
250.307
250.263
250.229
250.173
250.148
250.07
250.063
249.956
249.969
249.844
249.849
249.736
252.014
252.015
252.018
251.999
252
251.967
251.96
251.921
251.899
251.861
251.823
251.781
251.736
251.684
251.638
251.572
251.535
251.444
251.429
251.308
251.315
251.177
251.182
251.054
253.546
253.548
253.549
253.528
253.528
253.492
253.481
253.438
253.411
253.367
253.322
253.272
253.218
253.156
253.099
253.022
252.969
252.865
252.835
252.697
252.691
252.533
252.533
252.382
255.119
255.12
255.122
255.099
255.098
255.059
255.047
255
254.97
254.92
254.872
254.815
254.755
254.685
254.617
254.533
254.461
254.352
254.295
254.149
254.118
253.937
253.923
253.736
256.721
256.722
256.724
256.7
256.699
256.659
256.646
256.597
256.566
256.514
256.463
256.403
256.339
256.264
256.19
256.1
256.017
255.907
255.823
255.679
255.614
255.42
255.382
255.149
258.342
258.342
258.345
258.321
258.32
258.28
258.267
258.218
258.187
258.135
258.084
258.023
257.958
257.883
257.806
257.715
257.627
257.517
257.423
257.283
257.192
257.004
256.939
256.67
259.968
259.969
259.972
259.949
259.948
259.909
259.897
259.85
259.819
259.768
259.718
259.659
259.595
259.523
259.448
259.359
259.273
259.165
259.072
258.936
258.844
258.662
258.593
258.327
261.589
261.591
261.594
261.571
261.572
261.534
261.524
261.478
261.45
261.401
261.353
261.298
261.237
261.168
261.096
261.013
260.929
260.829
260.74
260.61
260.528
260.352
260.295
260.052
263.196
263.197
263.201
263.18
263.181
263.145
263.137
263.093
263.067
263.022
262.977
262.926
262.868
262.805
262.737
262.659
262.581
262.487
262.406
262.285
262.21
262.045
261.993
261.771
264.779
264.781
264.786
264.765
264.768
264.734
264.727
264.686
264.663
264.622
264.579
264.533
264.478
264.421
264.357
264.287
264.214
264.129
264.053
263.941
263.873
263.723
263.674
263.471
266.332
266.335
266.34
266.321
266.325
266.293
266.288
266.25
266.228
266.192
266.152
266.111
266.06
266.009
265.949
265.887
265.819
265.742
265.672
265.569
265.508
265.371
265.326
265.142
267.851
267.854
267.859
267.842
267.846
267.817
267.813
267.779
267.759
267.728
267.689
267.655
267.605
267.563
267.505
267.452
267.387
267.32
267.254
267.164
267.106
266.984
266.941
266.775
269.33
269.334
269.34
269.323
269.329
269.301
269.3
269.268
269.251
269.223
269.188
269.159
269.112
269.076
269.021
268.977
268.915
268.858
268.796
268.717
268.662
268.554
268.514
268.366
270.768
270.771
270.778
270.761
270.77
270.742
270.744
270.714
270.701
270.674
270.644
270.617
270.577
270.544
270.496
270.456
270.4
270.35
270.293
270.225
270.173
270.079
270.041
269.91
272.162
272.164
272.172
272.155
272.166
272.139
272.144
272.115
272.105
272.081
272.055
272.031
271.995
271.966
271.924
271.889
271.838
271.796
271.741
271.684
271.638
271.555
271.519
271.405
273.508
273.511
273.52
273.504
273.516
273.49
273.497
273.469
273.463
273.44
273.419
273.397
273.366
273.341
273.303
273.273
273.228
273.191
273.143
273.095
273.05
272.982
272.947
272.848
274.808
274.811
274.82
274.804
274.818
274.793
274.802
274.776
274.772
274.752
274.734
274.715
274.688
274.667
274.634
274.608
274.568
274.539
274.493
274.455
274.411
274.356
274.322
274.239
276.06
276.063
276.072
276.058
276.072
276.048
276.059
276.035
276.033
276.016
276
275.985
275.961
275.943
275.914
275.893
275.858
275.833
275.794
275.762
275.721
275.677
275.646
275.576
277.264
277.267
277.277
277.262
277.278
277.255
277.268
277.245
277.246
277.23
277.217
277.205
277.184
277.17
277.145
277.128
277.097
277.078
277.041
277.018
276.979
276.946
276.916
276.859
278.421
278.423
278.433
278.421
278.434
278.416
278.426
278.408
278.408
278.396
278.385
278.376
278.358
278.347
278.326
278.312
278.285
278.271
278.239
278.221
278.187
278.162
278.134
278.089
279.529
279.531
279.543
279.526
279.549
279.522
279.543
279.518
279.526
279.512
279.506
279.498
279.483
279.475
279.457
279.447
279.423
279.414
279.385
279.374
279.342
279.326
279.299
279.265
280.592
280.594
280.601
280.597
280.601
280.597
280.598
280.592
280.589
280.585
280.576
280.572
280.56
280.554
280.539
280.533
280.512
280.507
280.482
280.475
280.448
280.438
280.412
280.388
281.607
281.608
281.623
281.602
281.633
281.599
281.631
281.601
281.618
281.603
281.603
281.598
281.589
281.586
281.573
281.57
281.553
281.551
281.53
281.528
281.502
281.499
281.476
281.46
282.578
282.582
282.584
282.59
282.582
282.595
282.582
282.593
282.581
282.588
282.578
282.581
282.571
282.572
282.561
282.561
282.546
282.548
282.529
282.532
282.51
282.512
282.49
282.482
283.504
283.504
283.523
283.496
283.536
283.494
283.538
283.5
283.529
283.51
283.518
283.514
283.51
283.511
283.503
283.505
283.494
283.498
283.482
283.488
283.469
283.475
283.457
283.456
284.388
284.394
284.39
284.407
284.387
284.416
284.388
284.417
284.394
284.413
284.4
284.409
284.402
284.407
284.4
284.405
284.396
284.403
284.39
284.4
284.383
284.394
284.377
284.382
285.231
285.229
285.249
285.221
285.266
285.219
285.271
285.229
285.265
285.243
285.258
285.254
285.255
285.259
285.255
285.262
285.255
285.265
285.253
285.266
285.252
285.267
285.252
285.262
286.032
286.04
286.032
286.054
286.029
286.066
286.031
286.07
286.042
286.068
286.054
286.068
286.063
286.071
286.068
286.077
286.071
286.083
286.074
286.09
286.077
286.095
286.082
286.099
286.796
286.794
286.813
286.789
286.828
286.789
286.836
286.8
286.835
286.816
286.833
286.831
286.835
286.841
286.841
286.851
286.847
286.861
286.854
286.872
286.861
286.883
286.869
286.892
287.521
287.529
287.52
287.542
287.519
287.554
287.524
287.561
287.536
287.563
287.551
287.567
287.564
287.575
287.574
287.587
287.584
287.6
287.594
287.614
287.605
287.629
287.616
287.645
288.212
288.21
288.226
288.208
288.239
288.211
288.247
288.223
288.25
288.239
288.254
288.256
288.261
288.27
288.271
288.285
288.284
288.301
288.296
288.319
288.31
288.337
288.325
288.357
288.865
288.873
288.865
288.887
288.866
288.898
288.874
288.904
288.888
288.909
288.904
288.918
288.919
288.931
288.933
288.947
288.947
288.966
288.963
288.986
288.98
289.009
288.997
289.031
289.49
289.488
289.502
289.487
289.514
289.492
289.522
289.506
289.527
289.523
289.534
289.54
289.546
289.557
289.56
289.576
289.577
289.597
289.594
289.619
289.613
289.644
289.634
289.67
290.078
290.086
290.076
290.1
290.078
290.111
290.088
290.117
290.105
290.124
290.122
290.135
290.139
290.152
290.155
290.171
290.174
290.194
290.193
290.218
290.214
290.247
290.24
290.271
290.64
290.639
290.652
290.637
290.665
290.643
290.674
290.658
290.679
290.677
290.688
290.696
290.702
290.715
290.719
290.736
290.739
290.76
290.76
290.787
290.782
290.816
290.809
290.846
291.17
291.177
291.168
291.191
291.169
291.203
291.179
291.21
291.197
291.218
291.216
291.231
291.235
291.249
291.254
291.271
291.275
291.296
291.297
291.324
291.322
291.356
291.349
291.388
291.675
291.674
291.685
291.674
291.698
291.68
291.708
291.694
291.716
291.713
291.726
291.733
291.741
291.755
291.76
291.778
291.782
291.804
291.806
291.834
291.831
291.867
291.861
291.899
292.152
292.157
292.152
292.168
292.155
292.18
292.164
292.19
292.179
292.201
292.199
292.215
292.219
292.234
292.24
292.258
292.263
292.285
292.287
292.316
292.314
292.35
292.342
292.387
292.606
292.605
292.613
292.608
292.623
292.615
292.634
292.627
292.645
292.645
292.658
292.665
292.674
292.688
292.694
292.712
292.718
292.74
292.744
292.772
292.771
292.807
292.802
292.844
293.033
293.038
293.035
293.046
293.04
293.056
293.05
293.068
293.064
293.081
293.083
293.097
293.103
293.118
293.124
293.143
293.149
293.172
293.174
293.203
293.203
293.24
293.235
293.277
293.441
293.441
293.447
293.444
293.456
293.452
293.466
293.466
293.477
293.483
293.492
293.502
293.51
293.524
293.531
293.55
293.556
293.579
293.583
293.612
293.612
293.648
293.643
293.688
293.825
293.829
293.826
293.837
293.831
293.846
293.843
293.856
293.858
293.87
293.875
293.887
293.895
293.91
293.916
293.935
293.942
293.965
293.968
293.998
293.998
294.035
294.031
294.073
294.19
294.19
294.196
294.193
294.204
294.202
294.214
294.216
294.225
294.233
294.24
294.252
294.259
294.274
294.281
294.3
294.307
294.329
294.334
294.363
294.363
294.4
294.395
294.439
294.535
294.538
294.537
294.544
294.543
294.554
294.553
294.564
294.567
294.579
294.584
294.597
294.604
294.619
294.626
294.645
294.652
294.675
294.679
294.708
294.709
294.745
294.741
294.784
294.862
294.863
294.866
294.868
294.873
294.876
294.883
294.888
294.896
294.904
294.912
294.923
294.931
294.946
294.952
294.971
294.978
295.001
295.006
295.035
295.036
295.071
295.068
295.11
295.172
295.173
295.175
295.178
295.182
295.186
295.191
295.199
295.204
295.214
295.22
295.232
295.24
295.255
295.262
295.28
295.287
295.31
295.314
295.343
295.345
295.38
295.376
295.419
295.465
295.466
295.468
295.472
295.474
295.48
295.484
295.492
295.497
295.506
295.513
295.525
295.533
295.547
295.554
295.572
295.58
295.602
295.607
295.636
295.638
295.671
295.669
295.71
295.742
295.744
295.745
295.748
295.752
295.757
295.762
295.768
295.774
295.783
295.79
295.801
295.809
295.824
295.831
295.849
295.856
295.879
295.884
295.911
295.913
295.948
295.944
295.987
296.005
296.006
296.008
296.01
296.015
296.018
296.024
296.03
296.036
296.046
296.052
296.064
296.071
296.085
296.093
296.111
296.118
296.14
296.145
296.173
296.173
296.21
296.206
296.246
296.254
296.255
296.256
296.26
296.262
296.268
296.271
296.279
296.284
296.294
296.3
296.312
296.319
296.333
296.341
296.358
296.365
296.387
296.393
296.419
296.418
296.459
296.452
296.494
296.489
296.49
296.492
296.495
296.498
296.502
296.508
296.513
296.52
296.528
296.535
296.546
296.554
296.567
296.575
296.593
296.6
296.621
296.626
296.654
296.657
296.687
296.686
296.726
296.712
296.713
296.715
296.717
296.722
296.724
296.73
296.736
296.742
296.751
296.757
296.769
296.775
296.789
296.797
296.814
296.821
296.842
296.848
296.874
296.878
296.908
296.906
296.947
296.923
296.924
296.925
296.929
296.93
296.937
296.939
296.948
296.952
296.962
296.967
296.979
296.985
296.999
297.007
297.024
297.03
297.052
297.056
297.083
297.084
297.119
297.116
297.154
297.123
297.123
297.125
297.128
297.131
297.135
297.14
297.145
297.152
297.16
297.167
297.177
297.184
297.198
297.205
297.222
297.228
297.25
297.255
297.281
297.282
297.316
297.312
297.351
297.312
297.312
297.315
297.316
297.321
297.323
297.329
297.334
297.34
297.348
297.355
297.366
297.372
297.386
297.393
297.41
297.415
297.437
297.441
297.467
297.47
297.501
297.498
297.536
297.49
297.491
297.492
297.496
297.496
297.504
297.505
297.514
297.517
297.527
297.532
297.544
297.55
297.564
297.571
297.587
297.593
297.614
297.616
297.646
297.644
297.678
297.674
297.712
297.66
297.659
297.663
297.662
297.67
297.668
297.679
297.679
297.689
297.694
297.702
297.712
297.718
297.732
297.738
297.755
297.76
297.782
297.785
297.81
297.812
297.844
297.841
297.876
297.819
297.821
297.82
297.827
297.823
297.835
297.831
297.845
297.844
297.856
297.859
297.872
297.877
297.891
297.897
297.914
297.919
297.939
297.944
297.968
297.969
298.001
297.997
298.034
297.971
297.97
297.976
297.971
297.983
297.977
297.991
297.988
298
298.003
298.012
298.021
298.028
298.04
298.046
298.064
298.067
298.091
298.091
298.118
298.118
298.15
298.146
298.18
298.113
298.116
298.113
298.122
298.116
298.13
298.124
298.139
298.137
298.15
298.152
298.164
298.169
298.183
298.188
298.206
298.21
298.23
298.233
298.259
298.26
298.289
298.286
298.321
298.249
298.248
298.254
298.249
298.261
298.255
298.268
298.265
298.277
298.281
298.289
298.298
298.304
298.317
298.323
298.339
298.344
298.364
298.367
298.391
298.392
298.422
298.42
298.452
298.376
298.378
298.377
298.384
298.38
298.392
298.388
298.4
298.399
298.412
298.414
298.426
298.429
298.445
298.449
298.466
298.468
298.491
298.492
298.517
298.518
298.546
298.545
298.577
298.498
298.497
298.501
298.499
298.507
298.505
298.515
298.515
298.524
298.529
298.535
298.546
298.55
298.564
298.568
298.586
298.588
298.61
298.611
298.636
298.635
298.665
298.663
298.694
298.611
298.613
298.612
298.617
298.616
298.624
298.623
298.633
298.634
298.644
298.647
298.659
298.663
298.677
298.681
298.698
298.701
298.721
298.724
298.747
298.749
298.775
298.775
298.805
298.719
298.719
298.721
298.723
298.725
298.729
298.732
298.739
298.742
298.751
298.754
298.766
298.769
298.784
298.787
298.804
298.806
298.828
298.829
298.853
298.853
298.881
298.879
298.91
298.82
298.821
298.822
298.823
298.828
298.829
298.835
298.838
298.844
298.851
298.855
298.867
298.87
298.884
298.887
298.905
298.906
298.927
298.929
298.952
298.954
298.979
298.979
299.007
298.915
298.917
298.915
298.923
298.917
298.931
298.924
298.939
298.935
298.949
298.949
298.962
298.964
298.979
298.982
298.999
299.001
299.021
299.022
299.047
299.046
299.073
299.071
299.101
299.006
299.005
299.01
299.005
299.017
299.009
299.024
299.02
299.031
299.034
299.041
299.05
299.054
299.068
299.071
299.088
299.089
299.11
299.112
299.133
299.136
299.159
299.16
299.187
299.09
299.093
299.087
299.101
299.087
299.11
299.094
299.117
299.106
299.125
299.121
299.136
299.137
299.152
299.154
299.171
299.174
299.193
299.193
299.218
299.216
299.243
299.242
299.27
299.17
299.168
299.176
299.166
299.185
299.17
299.192
299.18
299.197
299.196
299.205
299.213
299.217
299.23
299.233
299.249
299.251
299.272
299.273
299.294
299.296
299.319
299.32
299.346
299.244
299.248
299.24
299.257
299.239
299.265
299.245
299.272
299.258
299.279
299.274
299.289
299.29
299.304
299.307
299.323
299.326
299.344
299.345
299.368
299.367
299.393
299.392
299.419
299.315
299.312
299.322
299.309
299.33
299.313
299.337
299.323
299.342
299.339
299.349
299.357
299.36
299.372
299.376
299.392
299.393
299.413
299.415
299.435
299.437
299.459
299.46
299.485
299.379
299.383
299.376