/*--------------------------------*- C++ -*----------------------------------*\
  =========                 |
  \\      /  F ield         | OpenFOAM: The Open Source CFD Toolbox
   \\    /   O peration     | Website:  https://openfoam.org
    \\  /    A nd           | Version:  10
     \\/     M anipulation  |
\*---------------------------------------------------------------------------*/
FoamFile
{
    format      ascii;
    class       volVectorField;
    location    "0.29";
    object      U;
}
// * * * * * * * * * * * * * * * * * * * * * * * * * * * * * * * * * * * * * //

dimensions      [0 1 -1 0 0 0 0];

internalField   nonuniform List<vector> 
4176
(
(497.488 -0.0142456 -4.84555e-09)
(497.474 0.0638673 1.5301e-09)
(497.449 0.00119299 -4.67345e-10)
(497.4 0.0905876 7.4554e-11)
(497.346 0.050745 3.33778e-11)
(497.271 0.089803 -4.82172e-10)
(497.18 0.125575 -5.03088e-10)
(497.088 0.0608136 1.91267e-11)
(496.954 0.224902 3.92198e-10)
(496.848 0.00516016 4.77819e-10)
(496.672 0.344011 3.81241e-10)
(496.549 -0.0686438 4.15095e-10)
(496.338 0.469435 2.62058e-10)
(496.191 -0.138997 -1.19739e-10)
(495.956 0.567325 -3.32498e-10)
(495.773 -0.135133 -2.6982e-10)
(495.536 0.527971 -2.56214e-10)
(495.286 0.0241948 -5.62944e-11)
(495.072 0.334321 3.04533e-10)
(494.73 0.323571 2.0365e-10)
(494.575 -0.0174561 -1.14274e-10)
(494.097 0.772286 -1.76255e-10)
(494.068 -0.516861 5.77886e-11)
(493.443 1.44302 1.60252e-10)
(497.47 0.00483106 -4.84495e-09)
(497.455 0.11469 1.53083e-09)
(497.43 0.0762516 -4.67539e-10)
(497.379 0.203494 7.39118e-11)
(497.325 0.186003 3.3461e-11)
(497.247 0.264525 -4.82047e-10)
(497.156 0.321476 -5.03905e-10)
(497.059 0.295908 1.91534e-11)
(496.924 0.481857 3.92841e-10)
(496.814 0.29828 4.78088e-10)
(496.636 0.662517 3.80918e-10)
(496.508 0.279169 4.15105e-10)
(496.293 0.850008 2.60514e-10)
(496.142 0.258882 -1.19673e-10)
(495.9 1.01203 -3.3238e-10)
(495.713 0.302555 -2.69392e-10)
(495.47 1.04172 -2.57386e-10)
(495.215 0.511236 -5.63626e-11)
(494.995 0.913874 3.03548e-10)
(494.646 0.855702 2.03251e-10)
(494.491 0.627998 -1.14253e-10)
(493.992 1.33148 -1.78608e-10)
(493.957 0.12463 5.85487e-11)
(493.269 1.99317 1.59839e-10)
(497.413 0.0231797 -4.84865e-09)
(497.399 0.161347 1.52987e-09)
(497.375 0.147429 -4.69552e-10)
(497.324 0.307837 7.50264e-11)
(497.272 0.313606 3.31445e-11)
(497.195 0.426713 -4.83059e-10)
(497.108 0.505597 -5.01439e-10)
(497.011 0.515137 2.08694e-11)
(496.881 0.722576 3.94824e-10)
(496.772 0.572936 4.7845e-10)
(496.599 0.96029 3.80164e-10)
(496.473 0.606562 4.14428e-10)
(496.263 1.2058 2.62189e-10)
(496.116 0.634464 -1.19614e-10)
(495.877 1.42824 -3.32716e-10)
(495.697 0.714313 -2.68285e-10)
(495.454 1.52224 -2.60139e-10)
(495.209 0.96649 -5.79587e-11)
(494.993 1.45668 3.04262e-10)
(494.653 1.34432 2.02821e-10)
(494.506 1.24725 -1.15267e-10)
(494.016 1.88275 -1.76001e-10)
(493.982 0.838235 5.88244e-11)
(493.27 2.60927 1.60775e-10)
(497.309 0.0419138 -4.84689e-09)
(497.294 0.208853 1.53392e-09)
(497.271 0.219926 -4.70472e-10)
(497.22 0.414155 7.81905e-11)
(497.168 0.443574 3.23978e-11)
(497.091 0.592067 -4.87633e-10)
(497.004 0.693154 -5.01608e-10)
(496.907 0.738765 1.82538e-11)
(496.777 0.967789 3.88098e-10)
(496.668 0.853243 4.8201e-10)
(496.494 1.26362 3.81285e-10)
(496.37 0.940909 4.12882e-10)
(496.158 1.56847 2.63787e-10)
(496.013 1.01866 -1.21188e-10)
(495.77 1.85313 -3.39949e-10)
(495.593 1.13581 -2.69588e-10)
(495.346 2.01668 -2.57758e-10)
(495.097 1.42703 -5.82668e-11)
(494.89 2.00881 3.06595e-10)
(494.54 1.84115 2.02202e-10)
(494.398 1.8579 -1.18135e-10)
(493.915 2.42064 -1.76871e-10)
(493.887 1.5252 5.70365e-11)
(493.205 3.20605 1.51253e-10)
(497.157 0.0602444 -4.84869e-09)
(497.143 0.255375 1.54028e-09)
(497.119 0.290844 -4.66605e-10)
(497.069 0.518339 7.82739e-11)
(497.018 0.570707 3.56806e-11)
(496.941 0.754232 -4.82452e-10)
(496.855 0.876624 -5.03818e-10)
(496.76 0.95831 2.03123e-11)
(496.631 1.20766 3.93643e-10)
(496.524 1.12872 4.80137e-10)
(496.351 1.56041 3.81671e-10)
(496.229 1.2697 4.15922e-10)
(496.018 1.92373 2.60489e-10)
(495.876 1.39641 -1.22215e-10)
(495.633 2.27086 -3.38129e-10)
(495.461 1.5505 -2.72211e-10)
(495.21 2.51202 -2.58892e-10)
(494.966 1.8702 -5.74343e-11)
(494.763 2.55386 3.01178e-10)
(494.411 2.33898 2.07972e-10)
(494.271 2.45246 -1.10465e-10)
(493.793 2.94653 -1.73962e-10)
(493.764 2.16776 6.06538e-11)
(493.102 3.76395 1.6203e-10)
(496.957 0.0785672 -4.86082e-09)
(496.942 0.301602 1.53809e-09)
(496.919 0.361609 -4.65018e-10)
(496.869 0.621938 7.34257e-11)
(496.819 0.697536 2.45146e-11)
(496.742 0.915542 -4.87727e-10)
(496.657 1.05966 -5.01643e-10)
(496.562 1.17681 1.63679e-11)
(496.435 1.44696 3.94317e-10)
(496.327 1.40313 4.85746e-10)
(496.157 1.85631 3.82166e-10)
(496.035 1.59766 4.1035e-10)
(495.825 2.27737 2.57785e-10)
(495.684 1.77405 -1.19884e-10)
(495.442 2.68529 -3.41287e-10)
(495.274 1.96947 -2.6975e-10)
(495.018 3.00267 -2.48413e-10)
(494.787 2.31308 -5.45175e-11)
(494.57 3.1034 3.11054e-10)
(494.229 2.83573 2.10106e-10)
(494.084 3.04875 -1.14757e-10)
(493.611 3.47459 -1.84745e-10)
(493.576 2.81461 5.74196e-11)
(492.913 4.3209 1.62263e-10)
(496.708 0.0967123 -4.86024e-09)
(496.694 0.347163 1.5353e-09)
(496.671 0.431582 -4.80973e-10)
(496.621 0.724096 7.34878e-11)
(496.571 0.822907 3.91888e-11)
(496.495 1.07463 -4.87014e-10)
(496.412 1.24059 -5.13328e-10)
(496.316 1.39236 2.09157e-11)
(496.191 1.68351 4.01008e-10)
(496.084 1.67403 4.81143e-10)
(495.916 2.14877 3.79619e-10)
(495.795 1.92182 4.21533e-10)
(495.587 2.62663 2.73601e-10)
(495.448 2.14805 -1.18095e-10)
(495.207 3.09362 -3.37014e-10)
(495.043 2.38677 -2.66582e-10)
(494.785 3.48229 -2.57978e-10)
(494.564 2.75775 -6.0102e-11)
(494.337 3.65084 3.05614e-10)
(494.01 3.32062 2.07635e-10)
(493.859 3.6439 -1.16239e-10)
(493.392 4.00217 -1.84913e-10)
(493.353 3.4712 5.97345e-11)
(492.692 4.88318 1.67309e-10)
(496.41 0.11472 -4.87568e-09)
(496.396 0.392258 1.54543e-09)
(496.374 0.500931 -4.60663e-10)
(496.324 0.825232 7.71772e-11)
(496.275 0.947108 2.63266e-11)
(496.2 1.23213 -4.84389e-10)
(496.117 1.41978 -4.9714e-10)
(496.023 1.60577 1.96922e-11)
(495.899 1.91774 3.83005e-10)
(495.793 1.94232 4.78909e-10)
(495.626 2.43831 3.90711e-10)
(495.506 2.2431 4.16031e-10)
(495.301 2.97228 2.4805e-10)
(495.164 2.51907 -1.26879e-10)
(494.924 3.49744 -3.30141e-10)
(494.763 2.80157 -2.74792e-10)
(494.503 3.95452 -2.54418e-10)
(494.292 3.20003 -4.34778e-11)
(494.058 4.1936 3.09538e-10)
(493.742 3.80111 1.92936e-10)
(493.585 4.23716 -1.16505e-10)
(493.127 4.52489 -1.68862e-10)
(493.084 4.12253 5.72221e-11)
(492.43 5.4382 1.44111e-10)
(496.065 0.132545 -4.88735e-09)
(496.051 0.436796 1.53175e-09)
(496.028 0.569496 -4.82724e-10)
(495.979 0.925139 6.50164e-11)
(495.931 1.06985 2.61886e-11)
(495.856 1.38768 -4.93046e-10)
(495.774 1.59678 -5.12803e-10)
(495.681 1.81653 1.65679e-11)
(495.559 2.14903 3.89813e-10)
(495.454 2.20732 4.7609e-10)
(495.289 2.72416 3.79142e-10)
(495.17 2.56061 4.14683e-10)
(494.967 3.31346 2.56464e-10)
(494.832 2.8861 -1.2576e-10)
(494.593 3.89583 -3.37043e-10)
(494.436 3.21253 -2.71841e-10)
(494.177 4.41828 -2.58771e-10)
(493.973 3.63936 -5.44705e-11)
(493.734 4.72953 3.06181e-10)
(493.43 4.27498 1.99802e-10)
(493.267 4.82782 -1.1857e-10)
(492.818 5.04285 -1.80009e-10)
(492.771 4.76949 5.8993e-11)
(492.126 5.98655 1.60482e-10)
(495.671 0.150187 -4.87137e-09)
(495.657 0.480786 1.56068e-09)
(495.635 0.637271 -4.64105e-10)
(495.586 1.02384 8.82207e-11)
(495.538 1.19113 4.47006e-11)
(495.464 1.54133 -4.76375e-10)
(495.383 1.77161 -4.96213e-10)
(495.291 2.02466 3.39837e-11)
(495.17 2.37737 4.08392e-10)
(495.066 2.46901 4.93092e-10)
(494.903 3.00625 3.97705e-10)
(494.787 2.87422 4.30739e-10)
(494.585 3.65006 2.75012e-10)
(494.452 3.24888 -1.13272e-10)
(494.215 4.28869 -3.23589e-10)
(494.062 3.61936 -2.61264e-10)
(493.802 4.8739 -2.45007e-10)
(493.607 4.07497 -4.34499e-11)
(493.363 5.25795 3.20162e-10)
(493.071 4.74283 2.11369e-10)
(492.902 5.41361 -1.06545e-10)
(492.464 5.55392 -1.67916e-10)
(492.413 5.41041 6.84313e-11)
(491.778 6.52654 1.69664e-10)
(495.228 0.167617 -4.89224e-09)
(495.214 0.524174 1.54959e-09)
(495.192 0.704161 -4.73952e-10)
(495.144 1.12121 8.08073e-11)
(495.097 1.31079 3.76457e-11)
(495.023 1.69292 -4.84813e-10)
(494.944 1.94405 -5.01677e-10)
(494.852 2.22996 3.23164e-11)
(494.733 2.6025 4.06936e-10)
(494.631 2.72707 4.91716e-10)
(494.47 3.28423 3.98286e-10)
(494.355 3.18351 4.33453e-10)
(494.155 3.9816 2.7764e-10)
(494.026 3.60685 -1.11759e-10)
(493.79 4.67552 -3.19159e-10)
(493.641 4.02133 -2.55391e-10)
(493.382 5.32127 -2.3756e-10)
(493.193 4.50629 -3.71567e-11)
(492.947 5.77805 3.30723e-10)
(492.666 5.20407 2.22106e-10)
(492.492 5.99291 -1.1835e-10)
(492.065 6.05712 -2.0188e-10)
(492.01 6.04481 3.92849e-11)
(491.385 7.05776 1.38566e-10)
(494.737 0.184814 -4.90066e-09)
(494.723 0.566917 1.55269e-09)
(494.702 0.770089 -4.77414e-10)
(494.653 1.21717 7.54787e-11)
(494.608 1.42872 3.23929e-11)
(494.534 1.84232 -4.91234e-10)
(494.456 2.11397 -5.10153e-10)
(494.366 2.4323 2.25233e-11)
(494.248 2.82426 3.97393e-10)
(494.147 2.98137 4.82634e-10)
(493.988 3.55789 3.88073e-10)
(493.875 3.48823 4.2444e-10)
(493.678 4.30781 2.66654e-10)
(493.551 3.95958 -1.21709e-10)
(493.317 5.05595 -3.33963e-10)
(493.173 4.41783 -2.69225e-10)
(492.914 5.76043 -2.54718e-10)
(492.733 4.9329 -5.0425e-11)
(492.483 6.28913 3.12388e-10)
(492.214 5.65842 2.03622e-10)
(492.035 6.56424 -1.1355e-10)
(491.62 6.55114 -1.72633e-10)
(491.562 6.67187 6.53055e-11)
(490.948 7.57963 1.65101e-10)
(494.197 0.20175 -4.90971e-09)
(494.183 0.608957 1.55276e-09)
(494.162 0.834955 -4.83833e-10)
(494.114 1.31158 6.97047e-11)
(494.069 1.54475 2.39175e-11)
(493.997 1.98936 -5.04068e-10)
(493.92 2.28116 -5.25072e-10)
(493.831 2.63145 6.10529e-12)
(493.715 3.04241 3.81097e-10)
(493.616 3.23164 4.64327e-10)
(493.458 3.82699 3.62162e-10)
(493.348 3.78808 3.98552e-10)
(493.152 4.62836 2.33732e-10)
(493.029 4.30666 -1.2749e-10)
(492.797 5.42952 -3.10352e-10)
(492.657 4.80819 -2.52057e-10)
(492.4 6.19124 -2.36633e-10)
(492.225 5.35448 -3.79294e-11)
(491.973 6.7906 3.25067e-10)
(491.715 6.10503 2.13927e-10)
(491.532 7.12674 -1.05548e-10)
(491.13 7.0352 -1.67526e-10)
(491.069 7.29028 7.07117e-11)
(490.467 8.09158 1.68315e-10)
(493.608 0.218401 -4.91076e-09)
(493.594 0.650241 1.57772e-09)
(493.574 0.898668 -4.85252e-10)
(493.527 1.40433 5.03399e-11)
(493.482 1.65873 2.07843e-11)
(493.411 2.13384 -4.9578e-10)
(493.336 2.44539 -5.04345e-10)
(493.247 2.82718 4.37561e-11)
(493.133 3.25671 4.01115e-10)
(493.036 3.47765 4.65307e-10)
(492.881 4.09127 3.75608e-10)
(492.772 4.08278 4.22253e-10)
(492.579 4.94298 2.75968e-10)
(492.459 4.64772 -1.08592e-10)
(492.23 5.79589 -3.43804e-10)
(492.093 5.19189 -2.93118e-10)
(491.838 6.6133 -2.73045e-10)
(491.67 5.77042 -5.64333e-11)
(491.416 7.28197 3.19479e-10)
(491.17 6.54339 2.19599e-10)
(490.982 7.67989 -1.18065e-10)
(490.594 7.50835 -1.96443e-10)
(490.53 7.8986 5.3969e-11)
(489.941 8.59309 1.65669e-10)
(492.97 0.234744 -4.93661e-09)
(492.956 0.69072 1.53986e-09)
(492.936 0.961141 -4.77041e-10)
(492.89 1.4953 1.07095e-10)
(492.846 1.77047 4.63505e-11)
(492.776 2.27557 -4.93632e-10)
(492.702 2.60643 -5.24886e-10)
(492.615 3.01923 -1.78919e-12)
(492.503 3.46685 3.9911e-10)
(492.407 3.71907 5.08039e-10)
(492.255 4.3504 3.96871e-10)
(492.149 4.37202 4.16751e-10)
(491.958 5.25136 2.41524e-10)
(491.841 4.98244 -1.30505e-10)
(491.614 6.15472 -3.20088e-10)
(491.483 5.56845 -2.64136e-10)
(491.229 7.02616 -2.6284e-10)
(491.068 6.18 -6.76619e-11)
(490.813 7.76263 2.78989e-10)
(490.579 6.97319 1.9047e-10)
(490.387 8.22326 -1.05274e-10)
(490.011 7.96973 -1.72251e-10)
(489.945 8.49559 5.42433e-11)
(489.369 9.08363 1.40455e-10)
(492.283 0.250758 -4.93182e-09)
(492.269 0.730349 1.59186e-09)
(492.25 1.02229 -4.84762e-10)
(492.204 1.58437 4.74959e-11)
(492.161 1.87983 1.8818e-11)
(492.092 2.41434 -4.94961e-10)
(492.02 2.76402 -4.97466e-10)
(491.934 3.2073 5.19646e-11)
(491.824 3.6725 4.04036e-10)
(491.731 3.95554 4.68015e-10)
(491.58 4.60402 3.83156e-10)
(491.477 4.65541 4.30896e-10)
(491.289 5.55316 2.85926e-10)
(491.175 5.31043 -1.34342e-10)
(490.951 6.5057 -3.76921e-10)
(490.824 5.93745 -2.89723e-10)
(490.573 7.42946 -2.63216e-10)
(490.418 6.5824 -4.26055e-11)
(490.163 8.2318 3.35171e-10)
(489.941 7.39418 1.9696e-10)
(489.745 8.75621 -1.44425e-10)
(489.384 8.41904 -1.85541e-10)
(489.314 9.08067 6.77444e-11)
(488.752 9.56248 1.78125e-10)
(491.546 0.266421 -4.95741e-09)
(491.533 0.769081 1.55699e-09)
(491.514 1.08205 -5.03805e-10)
(491.468 1.67143 4.38054e-11)
(491.427 1.98666 2.93516e-11)
(491.359 2.54997 -4.69333e-10)
(491.288 2.91791 -4.94459e-10)
(491.204 3.39109 3.39524e-11)
(491.097 3.87332 4.01755e-10)
(491.005 4.18668 4.80185e-10)
(490.857 4.85172 3.72449e-10)
(490.757 4.93252 3.99688e-10)
(490.572 5.84795 2.665e-10)
(490.462 5.63128 -1.0408e-10)
(490.241 6.84846 -3.26738e-10)
(490.118 6.29851 -2.66531e-10)
(489.87 7.82294 -2.59646e-10)
(489.722 6.97678 -5.88581e-11)
(489.467 8.68868 2.93259e-10)
(489.256 7.80603 1.73789e-10)
(489.057 9.27719 -1.56231e-10)
(488.71 8.85694 -1.82394e-10)
(488.636 9.65429 8.58073e-11)
(488.09 10.0284 1.75004e-10)
(490.76 0.281709 -4.96108e-09)
(490.746 0.806865 1.58433e-09)
(490.728 1.14032 -4.71014e-10)
(490.683 1.75636 9.8545e-11)
(490.643 2.09078 5.25363e-11)
(490.576 2.68225 -4.748e-10)
(490.507 3.06785 -4.87477e-10)
(490.425 3.57032 5.86053e-11)
(490.32 4.06895 4.43323e-10)
(490.23 4.41209 4.9308e-10)
(490.086 5.09304 3.57014e-10)
(489.988 5.20285 3.96716e-10)
(489.806 6.13525 2.3371e-10)
(489.7 5.94449 -1.56251e-10)
(489.482 7.18259 -3.69344e-10)
(489.365 6.65118 -2.9198e-10)
(489.119 8.20636 -2.76762e-10)
(488.977 7.36239 -6.21362e-11)
(488.724 9.1326 3.06696e-10)
(488.524 8.20843 2.02187e-10)
(488.322 9.78579 -1.12899e-10)
(487.99 9.28298 -1.68169e-10)
(487.912 10.2156 7.48179e-11)
(487.381 10.4808 1.7919e-10)
(489.924 0.296593 -4.97967e-09)
(489.91 0.843637 1.57458e-09)
(489.892 1.19699 -4.92663e-10)
(489.848 1.83902 7.24107e-11)
(489.809 2.19202 1.96567e-11)
(489.744 2.81097 -5.19149e-10)
(489.677 3.2136 -5.34236e-10)
(489.597 3.7447 9.06139e-12)
(489.493 4.25907 3.85904e-10)
(489.407 4.63139 4.69801e-10)
(489.265 5.32757 3.70655e-10)
(489.171 5.46593 4.01591e-10)
(488.992 6.41454 2.29569e-10)
(488.89 6.24949 -1.6491e-10)
(488.676 7.50755 -3.87955e-10)
(488.563 6.99493 -3.15134e-10)
(488.32 8.57926 -2.64219e-10)
(488.186 7.73872 -2.10626e-11)
(487.934 9.5631 3.46974e-10)
(487.745 8.60098 2.285e-10)
(487.54 10.2815 -9.23164e-11)
(487.224 9.69684 -1.57044e-10)
(487.141 10.7641 8.31909e-11)
(486.627 10.9193 1.83611e-10)
(489.037 0.311038 -5.00796e-09)
(489.024 0.879317 1.58924e-09)
(489.007 1.25196 -4.64691e-10)
(488.963 1.91924 7.74509e-11)
(488.926 2.29018 4.53064e-11)
(488.862 2.9359 -4.71092e-10)
(488.796 3.35489 -5.13495e-10)
(488.718 3.91393 5.43168e-12)
(488.618 4.44334 4.05031e-10)
(488.534 4.84421 5.09895e-10)
(488.395 5.55487 3.85048e-10)
(488.304 5.72128 4.31905e-10)
(488.13 6.68531 2.79693e-10)
(488.031 6.5457 -1.45395e-10)
(487.821 7.82276 -3.43466e-10)
(487.714 7.32912 -2.55767e-10)
(487.474 8.94112 -2.69329e-10)
(487.347 8.10521 -8.33003e-11)
(487.096 9.9798 2.97802e-10)
(486.919 8.98325 2.0151e-10)
(486.712 10.7638 -1.45919e-10)
(486.41 10.0982 -1.85239e-10)
(486.324 11.299 7.09559e-11)
(485.827 11.3434 1.47177e-10)
(488.1 0.325006 -5.00061e-09)
(488.087 0.913819 1.60454e-09)
(488.07 1.30506 -4.66341e-10)
(488.028 1.99684 1.12079e-10)
(487.992 2.38503 6.33975e-11)
(487.929 3.05679 -5.10426e-10)
(487.866 3.49143 -5.60326e-10)
(487.79 4.07771 -3.03859e-12)
(487.692 4.62143 3.88047e-10)
(487.611 5.0502 4.79839e-10)
(487.476 5.77457 3.86018e-10)
(487.389 5.96846 4.28443e-10)
(487.218 6.94707 2.70595e-10)
(487.124 6.83256 -1.20552e-10)
(486.918 8.12763 -3.25638e-10)
(486.816 7.65308 -2.52036e-10)
(486.58 9.29134 -2.31444e-10)
(486.46 8.46117 -5.85636e-11)
(486.212 10.3823 2.70149e-10)
(486.046 9.35488 1.69154e-10)
(485.836 11.2321 -1.46509e-10)
(485.551 10.4867 -1.98085e-10)
(485.46 11.8199 4.46792e-11)
(484.98 11.7528 1.56198e-10)
(487.113 0.338456 -5.03299e-09)
(487.1 0.94705 1.56106e-09)
(487.084 1.35616 -4.91212e-10)
(487.043 2.07163 1.12598e-10)
(487.008 2.47634 3.98708e-11)
(486.947 3.17336 -5.12153e-10)
(486.886 3.62293 -5.37762e-10)
(486.812 4.23573 4.1115e-11)
(486.717 4.79301 4.52461e-10)
(486.639 5.24902 5.19097e-10)
(486.507 5.9863 4.01696e-10)
(486.424 6.20708 4.15707e-10)
(486.257 7.19938 2.26568e-10)
(486.168 7.10956 -1.43932e-10)
(485.966 8.42162 -3.31746e-10)
(485.87 7.96616 -2.74386e-10)
(485.638 9.62928 -2.76786e-10)
(485.525 8.80579 -7.98975e-11)
(485.28 10.7703 3.15867e-10)
(485.125 9.71549 2.24736e-10)
(484.914 11.6854 -1.13076e-10)
(484.644 10.862 -1.89844e-10)
(484.549 12.3263 3.10397e-11)
(484.087 12.1471 1.61143e-10)
(486.075 0.35135 -5.05032e-09)
(486.062 0.978923 1.56632e-09)
(486.046 1.40512 -4.93023e-10)
(486.006 2.14341 1.1842e-10)
(485.973 2.56385 4.97639e-11)
(485.914 3.28533 -5.08562e-10)
(485.855 3.74906 -5.38991e-10)
(485.784 4.38766 -8.20158e-12)
(485.692 4.95773 4.04187e-10)
(485.617 5.4403 5.25653e-10)
(485.489 6.18967 4.12951e-10)
(485.409 6.43676 4.26378e-10)
(485.247 7.44184 2.37084e-10)
(485.162 7.37625 -1.35613e-10)
(484.964 8.70422 -3.22525e-10)
(484.874 8.26774 -2.70298e-10)
(484.648 9.9543 -2.72118e-10)
(484.542 9.1382 -7.07566e-11)
(484.3 11.1434 3.27157e-10)
(484.156 10.0647 2.33991e-10)
(483.944 12.1227 -1.03436e-10)
(483.69 11.2235 -1.81305e-10)
(483.592 12.8176 4.59677e-11)
(483.148 12.5258 1.34134e-10)
(484.985 0.363657 -5.07327e-09)
(484.973 1.00937 1.61193e-09)
(484.958 1.45182 -4.6951e-10)
(484.919 2.21201 7.51368e-11)
(484.887 2.64737 -6.13269e-12)
(484.83 3.39244 -5.26474e-10)
(484.773 3.86953 -5.14565e-10)
(484.705 4.53315 8.27194e-12)
(484.616 5.11521 4.11022e-10)
(484.545 5.62368 5.17227e-10)
(484.421 6.38431 3.8796e-10)
(484.345 6.65711 4.42444e-10)
(484.187 7.67405 2.95718e-10)
(484.107 7.63223 -1.41467e-10)
(483.914 8.97503 -3.93069e-10)
(483.83 8.55735 -2.94645e-10)
(483.608 10.2659 -2.56516e-10)
(483.51 9.45772 -6.58897e-11)
(483.273 11.5011 3.22804e-10)
(483.139 10.4018 2.20565e-10)
(482.926 12.5432 -1.30254e-10)
(482.689 11.5703 -1.67728e-10)
(482.587 13.2928 9.71631e-11)
(482.163 12.8884 1.67848e-10)
(483.845 0.375354 -5.05817e-09)
(483.833 1.03833 1.64174e-09)
(483.819 1.49617 -4.55791e-10)
(483.781 2.27732 8.67276e-11)
(483.751 2.7267 -1.09317e-12)
(483.695 3.49448 -5.28508e-10)
(483.641 3.98406 -5.21125e-10)
(483.576 4.67188 5.23251e-11)
(483.49 5.2651 4.50558e-10)
(483.422 5.79875 4.981e-10)
(483.302 6.56981 3.6191e-10)
(483.231 6.86774 4.12638e-10)
(483.077 7.89561 2.57836e-10)
(483.003 7.87711 -1.32467e-10)
(482.814 9.23362 -3.33682e-10)
(482.737 8.83454 -2.45866e-10)
(482.52 10.5636 -2.67913e-10)
(482.43 9.76382 -8.49746e-11)
(482.196 11.843 2.96176e-10)
(482.073 10.7262 1.92349e-10)
(481.861 12.9461 -1.14513e-10)
(481.64 11.9016 -1.58414e-10)
(481.535 13.7507 1.02971e-10)
(481.131 13.2344 1.68352e-10)
(482.653 0.386426 -5.06939e-09)
(482.641 1.06577 1.61688e-09)
(482.628 1.5381 -5.16926e-10)
(482.591 2.33922 9.89103e-11)
(482.563 2.80172 2.56422e-11)
(482.509 3.59125 -5.36237e-10)
(482.458 4.09241 -5.05997e-10)
(482.396 4.80357 3.10962e-11)
(482.314 5.40705 3.91541e-10)
(482.249 5.96516 5.1634e-10)
(482.133 6.74576 4.02237e-10)
(482.066 7.06821 4.13841e-10)
(481.917 8.1061 2.80771e-10)
(481.848 8.11047 -1.43884e-10)
(481.665 9.47962 -3.86414e-10)
(481.594 9.09891 -2.76961e-10)
(481.382 10.847 -2.79635e-10)
(481.3 10.056 -7.48177e-11)
(481.071 12.1685 3.26084e-10)
(480.958 11.0373 1.87718e-10)
(480.747 13.331 -1.54859e-10)
(480.543 12.2166 -1.78568e-10)
(480.435 14.1898 4.33986e-11)
(480.051 13.563 1.33588e-10)
(481.411 0.396861 -5.14502e-09)
(481.399 1.09167 1.59757e-09)
(481.387 1.57757 -5.19014e-10)
(481.351 2.39765 6.96452e-11)
(481.324 2.87232 2.57077e-11)
(481.273 3.68262 -5.15113e-10)
(481.224 4.19441 -5.18579e-10)
(481.164 4.92799 4.941e-11)
(481.086 5.54077 4.39114e-10)
(481.025 6.12254 5.29535e-10)
(480.913 6.91174 4.38208e-10)
(480.851 7.25812 4.20641e-10)
(480.707 8.30507 2.52103e-10)
(480.644 8.33189 -1.50506e-10)
(480.466 9.7126 -3.64601e-10)
(480.401 9.35007 -2.82776e-10)
(480.194 11.1158 -2.62596e-10)
(480.12 10.3338 -3.848e-11)
(479.896 12.4772 3.39183e-10)
(479.794 11.3343 2.18409e-10)
(479.585 13.697 -1.55651e-10)
(479.397 12.5151 -2.04379e-10)
(479.287 14.6097 4.40247e-11)
(478.923 13.8741 1.49719e-10)
(480.117 0.40665 -5.12151e-09)
(480.105 1.116 1.65623e-09)
(480.094 1.61454 -4.64036e-10)
(480.059 2.45256 8.24546e-11)
(480.034 2.93844 -8.65199e-12)
(479.985 3.7685 -5.47218e-10)
(479.939 4.28991 -5.37256e-10)
(479.882 5.04497 4.43772e-11)
(479.807 5.66605 4.41041e-10)
(479.75 6.27063 5.43111e-10)
(479.643 7.06744 4.04227e-10)
(479.586 7.43705 3.99082e-10)
(479.446 8.49209 2.40453e-10)
(479.389 8.54089 -1.57194e-10)
(479.217 9.93211 -3.60203e-10)
(479.159 9.58757 -2.67166e-10)
(478.957 11.3696 -2.33102e-10)
(478.892 10.5969 -9.89187e-13)
(478.672 12.7691 3.28747e-10)
(478.581 11.6162 1.66529e-10)
(478.374 14.0429 -1.44279e-10)
(478.203 12.7975 -1.83814e-10)
(478.09 15.0113 7.9581e-11)
(477.747 14.1679 1.98158e-10)
(478.771 0.415777 -5.12664e-09)
(478.76 1.13872 1.62988e-09)
(478.749 1.64897 -5.4181e-10)
(478.716 2.50389 7.64256e-11)
(478.693 2.99999 6.18318e-11)
(478.646 3.8488 -5.1227e-10)
(478.603 4.37884 -5.50663e-10)
(478.549 5.1544 4.54024e-11)
(478.477 5.78272 4.07137e-10)
(478.425 6.40923 4.6778e-10)
(478.322 7.21257 4.05564e-10)
(478.269 7.60469 4.70299e-10)
(478.135 8.66675 2.65481e-10)
(478.084 8.73704 -1.6979e-10)
(477.917 10.1377 -3.5561e-10)
(477.866 9.81093 -2.4541e-10)
(477.67 11.608 -2.58299e-10)
(477.613 10.8448 -6.61181e-11)
(477.399 13.0438 3.42919e-10)
(477.318 11.8825 1.93604e-10)
(477.114 14.3678 -1.6367e-10)
(476.96 13.0637 -1.89602e-10)
(476.844 15.3931 9.20324e-11)
(476.522 14.4424 1.71602e-10)
(477.375 0.424228 -5.20556e-09)
(477.364 1.15981 1.60912e-09)
(477.354 1.68081 -5.31841e-10)
(477.321 2.55156 6.3926e-11)
(477.3 3.05691 1.3803e-11)
(477.255 3.92343 -5.39593e-10)
(477.215 4.46108 -5.40179e-10)
(477.164 5.25617 3.39791e-11)
(477.096 5.89068 4.21581e-10)
(477.047 6.5382 5.06165e-10)
(476.949 7.34695 4.13118e-10)
(476.902 7.76081 4.53851e-10)
(476.773 8.82873 2.7867e-10)
(476.727 8.91995 -1.35945e-10)
(476.566 10.3289 -3.50721e-10)
(476.523 10.0197 -2.68815e-10)
(476.333 11.8305 -2.52255e-10)
(476.284 11.0771 -3.21187e-11)
(476.075 13.3008 3.51026e-10)
(476.005 12.1327 2.27064e-10)
(475.805 14.6711 -9.4647e-11)
(475.668 13.3124 -2.12068e-10)
(475.55 15.755 3.04171e-11)
(475.249 14.6988 1.44281e-10)
(475.926 0.431985 -5.14972e-09)
(475.915 1.17923 1.67902e-09)
(475.906 1.70998 -4.91744e-10)
(475.875 2.5955 1.04077e-10)
(475.856 3.1091 4.45075e-11)
(475.813 3.99231 -5.15966e-10)
(475.775 4.53656 -5.23073e-10)
(475.728 5.3502 4.77301e-11)
(475.664 5.98983 4.30097e-10)
(475.619 6.65748 5.08171e-10)
(475.525 7.47049 4.08173e-10)
(475.483 7.90527 4.36916e-10)
(475.359 8.97782 2.53631e-10)
(475.32 9.08935 -1.61139e-10)
(475.165 10.5053 -3.90964e-10)
(475.128 10.2133 -3.16387e-10)
(474.945 12.0365 -3.05018e-10)
(474.905 11.2931 -2.02178e-11)
(474.702 13.5399 3.53085e-10)
(474.642 12.3663 2.16454e-10)
(474.446 14.9525 -1.07885e-10)
(474.325 13.5435 -1.73406e-10)
(474.205 16.0959 6.89523e-11)
(473.926 14.9361 1.73281e-10)
(474.426 0.439034 -5.1869e-09)
(474.416 1.19694 1.65758e-09)
(474.407 1.73646 -5.313e-10)
(474.378 2.63565 1.04238e-10)
(474.36 3.1565 3.20828e-11)
(474.319 4.05536 -5.44736e-10)
(474.285 4.60518 -5.11971e-10)
(474.24 5.43641 4.24158e-11)
(474.18 6.08011 4.12968e-10)
(474.139 6.76699 5.35821e-10)
(474.05 7.58312 4.16087e-10)
(474.012 8.03804 4.32068e-10)
(473.894 9.11392 2.93166e-10)
(473.861 9.24511 -1.43907e-10)
(473.712 10.6666 -3.86226e-10)
(473.683 10.3915 -2.69227e-10)
(473.505 12.2256 -2.72697e-10)
(473.474 11.4923 -6.66829e-11)
(473.278 13.7603 3.54886e-10)
(473.229 12.5827 2.05342e-10)
(473.037 15.2121 -1.48347e-10)
(472.932 13.7575 -1.62263e-10)
(472.81 16.4143 6.98398e-11)
(472.554 15.153 1.50999e-10)
(472.874 0.445367 -5.25864e-09)
(472.864 1.21294 1.66419e-09)
(472.857 1.7602 -4.95626e-10)
(472.828 2.67196 6.38572e-11)
(472.813 3.19903 3.83989e-11)
(472.774 4.11248 -4.99836e-10)
(472.742 4.66687 -5.52288e-10)
(472.701 5.51472 5.00515e-11)
(472.644 6.16143 4.60805e-10)
(472.607 6.86668 4.99031e-10)
(472.523 7.68478 4.2405e-10)
(472.49 8.15909 4.8449e-10)
(472.377 9.23702 2.60653e-10)
(472.35 9.38721 -1.38876e-10)
(472.207 10.8128 -3.34223e-10)
(472.186 10.554 -3.00456e-10)
(472.015 12.3974 -2.66754e-10)
(471.993 11.6743 -1.84805e-11)
(471.802 13.9616 3.22716e-10)
(471.764 12.7809 2.11652e-10)
(471.578 15.4501 -9.4984e-11)
(471.488 13.9547 -1.91873e-10)
(471.365 16.7096 7.70655e-11)
(471.131 15.3492 1.98723e-10)
(471.271 0.450984 -5.24229e-09)
(471.261 1.2272 1.70843e-09)
(471.254 1.78122 -4.65667e-10)
(471.227 2.70442 9.93531e-11)
(471.213 3.23669 -3.55905e-13)
(471.177 4.16366 -5.43241e-10)
(471.148 4.72156 -5.21169e-10)
(471.11 5.58504 7.7987e-11)
(471.057 6.23371 4.89713e-10)
(471.024 6.95646 5.3433e-10)
(470.944 7.77541 3.85249e-10)
(470.917 8.26837 4.40876e-10)
(470.809 9.34706 2.88227e-10)
(470.788 9.51568 -1.14575e-10)
(470.651 10.9438 -3.15319e-10)
(470.637 10.701 -2.82668e-10)
(470.472 12.5519 -3.15929e-10)
(470.459 11.8386 -6.08097e-11)
(470.275 14.1433 3.38279e-10)
(470.249 12.9602 2.24308e-10)
(470.068 15.6662 -7.48945e-11)
(469.992 14.1352 -1.80844e-10)
(469.868 16.9811 2.29091e-11)
(469.658 15.5243 1.51615e-10)
(469.616 0.455892 -5.32349e-09)
(469.606 1.23977 1.64082e-09)
(469.6 1.79952 -5.52592e-10)
(469.574 2.73306 5.05333e-11)
(469.562 3.26949 -5.52869e-13)
(469.528 4.20891 -5.66544e-10)
(469.502 4.76926 -5.69465e-10)
(469.467 5.64736 1.07079e-11)
(469.418 6.29688 4.04652e-10)
(469.389 7.03625 4.8939e-10)
(469.314 7.85489 3.86691e-10)
(469.292 8.36579 4.22619e-10)
(469.189 9.44399 2.40967e-10)
(469.175 9.6305 -1.80511e-10)
(469.043 11.0598 -4.06804e-10)
(469.036 10.8324 -3.21552e-10)
(468.878 12.689 -3.09861e-10)
(468.874 11.9853 -7.90984e-11)
(468.696 14.3052 2.98114e-10)
(468.681 13.1202 1.7006e-10)
(468.506 15.8597 -1.66599e-10)
(468.445 14.2983 -2.17739e-10)
(468.321 17.2284 3.02907e-11)
(468.134 15.6779 1.40252e-10)
(467.909 0.460102 -5.2803e-09)
(467.899 1.25065 1.68682e-09)
(467.894 1.81517 -5.42119e-10)
(467.869 2.75792 1.15419e-10)
(467.859 3.2975 3.94469e-11)
(467.827 4.24827 -5.47984e-10)
(467.804 4.81 -5.03697e-10)
(467.771 5.7017 6.02777e-11)
(467.727 6.35095 4.34146e-10)
(467.702 7.10602 5.66562e-10)
(467.631 7.92317 4.43456e-10)
(467.614 8.45127 4.50988e-10)
(467.517 9.52769 3.17997e-10)
(467.509 9.73158 -1.29304e-10)
(467.383 11.1605 -3.73453e-10)
(467.384 10.9484 -3.0952e-10)
(467.232 12.809 -3.17865e-10)
(467.237 12.1147 -4.09706e-11)
(467.065 14.4474 3.21527e-10)
(467.061 13.2606 1.70616e-10)
(466.892 16.0302 -1.17555e-10)
(466.846 14.4431 -1.93955e-10)
(466.723 17.4505 3.07572e-11)
(466.559 15.8099 1.84162e-10)
(466.149 0.463628 -5.29604e-09)
(466.14 1.25989 1.70226e-09)
(466.136 1.82819 -5.38149e-10)
(466.112 2.77908 1.23343e-10)
(466.104 3.32078 4.61746e-11)
(466.074 4.28182 -5.43529e-10)
(466.053 4.84386 -4.98503e-10)
(466.024 5.74812 6.84707e-11)
(465.983 6.39595 4.43177e-10)
(465.962 7.16578 5.06831e-10)
(465.896 7.98019 3.82408e-10)
(465.884 8.52472 4.66231e-10)
(465.793 9.59803 2.62539e-10)
(465.791 9.81879 -1.83656e-10)
(465.671 11.2459 -3.61146e-10)
(465.679 11.0488 -2.97433e-10)
(465.533 12.9116 -3.04839e-10)
(465.547 12.2268 -2.77132e-11)
(465.382 14.5703 3.38165e-10)
(465.389 13.3818 1.83702e-10)
(465.225 16.1783 -1.04171e-10)
(465.193 14.5679 -1.8251e-10)
(465.073 17.6455 5.23682e-11)
(464.932 15.9205 2.03846e-10)
(464.338 0.466479 -5.33789e-09)
(464.329 1.2675 1.75682e-09)
(464.326 1.83865 -5.13389e-10)
(464.303 2.79657 6.51263e-11)
(464.297 3.33942 4.59567e-11)
(464.269 4.30965 -4.88313e-10)
(464.251 4.87094 -5.27764e-10)
(464.225 5.78671 1.99401e-11)
(464.187 6.43198 4.52418e-10)
(464.171 7.21559 5.7203e-10)
(464.109 8.026 4.33342e-10)
(464.102 8.58613 4.33544e-10)
(464.016 9.65492 2.84488e-10)
(464.02 9.89199 -1.10804e-10)
(463.907 11.3157 -3.76981e-10)
(463.923 11.1334 -3.24768e-10)
(463.783 12.9968 -2.76991e-10)
(463.806 12.3216 -1.42587e-11)
(463.647 14.6738 3.40508e-10)
(463.664 13.4842 1.71584e-10)
(463.506 16.3047 -1.34338e-10)
(463.488 14.672 -1.6436e-10)
(463.372 17.8121 6.02359e-11)
(463.253 16.0093 1.35737e-10)
(462.475 0.468662 -5.389e-09)
(462.465 1.27349 1.69416e-09)
(462.463 1.84655 -5.49545e-10)
(462.442 2.81045 5.05042e-11)
(462.437 3.35345 -1.6204e-11)
(462.411 4.33181 -5.99939e-10)
(462.396 4.89131 -5.36688e-10)
(462.373 5.81758 1.14221e-10)
(462.339 6.45912 5.0418e-10)
(462.326 7.25556 5.81612e-10)
(462.269 8.06068 4.63555e-10)
(462.267 8.63558 4.8375e-10)
(462.186 9.69837 2.92453e-10)
(462.197 9.95112 -1.45902e-10)
(462.089 11.3698 -3.85918e-10)
(462.113 11.202 -3.12381e-10)
(461.98 13.0642 -3.07202e-10)
(462.012 12.3988 -7.93587e-11)
(461.86 14.7578 2.90993e-10)
(461.888 13.5676 1.52749e-10)
(461.736 16.4095 -1.28222e-10)
(461.731 14.7561 -1.33011e-10)
(461.617 17.9504 1.20031e-10)
(461.522 16.0757 2.12539e-10)
(460.558 0.470179 -5.4407e-09)
(460.549 1.27789 1.70997e-09)
(460.548 1.85192 -5.17829e-10)
(460.528 2.82071 4.34972e-11)
(460.525 3.36291 4.05625e-12)
(460.501 4.34835 -5.51002e-10)
(460.488 4.90502 -5.31612e-10)
(460.468 5.84077 7.94841e-11)
(460.438 6.47747 4.21647e-10)
(460.429 7.28579 5.27071e-10)
(460.376 8.08434 4.43937e-10)
(460.379 8.67318 4.22493e-10)
(460.304 9.72846 2.56882e-10)
(460.321 9.99625 -1.53958e-10)
(460.219 11.4082 -3.65874e-10)
(460.251 11.2546 -2.66125e-10)
(460.124 13.1136 -3.00722e-10)
(460.165 12.4582 -4.60463e-11)
(460.019 14.8218 3.59808e-10)
(460.059 13.6318 1.66027e-10)
(459.912 16.4927 -1.59519e-10)
(459.922 14.8206 -1.91275e-10)
(459.811 18.0611 8.32265e-11)
(459.737 16.1203 2.00499e-10)
(458.589 0.471025 -5.39443e-09)
(458.581 1.28067 1.74195e-09)
(458.58 1.85475 -5.40972e-10)
(458.561 2.82736 5.88705e-11)
(458.559 3.36779 -1.00705e-11)
(458.537 4.35927 -5.31311e-10)