/*--------------------------------*- C++ -*----------------------------------*\
  =========                 |
  \\      /  F ield         | OpenFOAM: The Open Source CFD Toolbox
   \\    /   O peration     | Website:  https://openfoam.org
    \\  /    A nd           | Version:  10
     \\/     M anipulation  |
\*---------------------------------------------------------------------------*/
FoamFile
{
    format      ascii;
    class       volScalarField;
    location    "0.14";
    object      Ma;
}
// * * * * * * * * * * * * * * * * * * * * * * * * * * * * * * * * * * * * * //

dimensions      [0 0 0 0 0 0 0];

internalField   nonuniform List<scalar> 
4176
(
1.84487
1.84482
1.84463
1.84438
1.84396
1.84358
1.84294
1.84243
1.84155
1.84092
1.83981
1.83905
1.83774
1.83683
1.83538
1.83424
1.83277
1.83123
1.82992
1.8278
1.82685
1.82392
1.82374
1.81994
1.84475
1.8447
1.8445
1.84425
1.84383
1.84343
1.84279
1.84225
1.84136
1.8407
1.83958
1.83879
1.83746
1.83652
1.83503
1.83387
1.83237
1.83079
1.82944
1.82729
1.82634
1.82328
1.82306
1.81888
1.84441
1.84435
1.84417
1.84391
1.84351
1.84311
1.8425
1.84196
1.84111
1.84045
1.83937
1.83859
1.83729
1.83637
1.83491
1.83378
1.83229
1.83077
1.82945
1.82735
1.82645
1.82345
1.82322
1.81892
1.84376
1.84371
1.84352
1.84327
1.84287
1.84247
1.84185
1.84132
1.84047
1.83981
1.83873
1.83796
1.83664
1.83574
1.83426
1.83314
1.83163
1.83008
1.82883
1.82666
1.8258
1.82284
1.82265
1.81854
1.84283
1.84277
1.84259
1.84234
1.84194
1.84155
1.84094
1.84041
1.83957
1.83892
1.83785
1.83709
1.83579
1.8349
1.83343
1.83234
1.83082
1.8293
1.82807
1.82589
1.82504
1.82212
1.82192
1.81794
1.84158
1.84152
1.84135
1.8411
1.84071
1.84031
1.83972
1.83919
1.83836
1.83771
1.83666
1.8359
1.83461
1.83373
1.83226
1.8312
1.82965
1.8282
1.8269
1.82479
1.82391
1.82102
1.82079
1.81681
1.84005
1.83998
1.83981
1.83956
1.83918
1.83879
1.8382
1.83767
1.83686
1.83622
1.83518
1.83442
1.83316
1.83228
1.83083
1.82979
1.82823
1.82685
1.82549
1.82346
1.82256
1.81971
1.81945
1.8155
1.83821
1.83814
1.83797
1.83772
1.83734
1.83696
1.83638
1.83586
1.83505
1.83442
1.83339
1.83265
1.8314
1.83054
1.8291
1.82808
1.82652
1.82519
1.82381
1.82184
1.82091
1.81811
1.81783
1.81394
1.83607
1.83599
1.83583
1.83559
1.83521
1.83483
1.83426
1.83375
1.83296
1.83233
1.83132
1.83059
1.82935
1.82851
1.82708
1.82608
1.82454
1.82325
1.82185
1.81996
1.81899
1.81626
1.81596
1.81212
1.83364
1.83355
1.83339
1.83315
1.83278
1.83241
1.83185
1.83134
1.83056
1.82995
1.82895
1.82823
1.82701
1.82618
1.82478
1.8238
1.82227
1.82103
1.81961
1.81778
1.8168
1.81413
1.81381
1.81004
1.83092
1.83082
1.83066
1.83043
1.83006
1.82969
1.82914
1.82864
1.82788
1.82727
1.82629
1.82559
1.82439
1.82357
1.82219
1.82124
1.81972
1.81852
1.8171
1.81534
1.81433
1.81173
1.8114
1.8077
1.82789
1.82778
1.82763
1.82741
1.82704
1.82668
1.82614
1.82565
1.8249
1.8243
1.82334
1.82265
1.82147
1.82068
1.81931
1.81838
1.81688
1.81572
1.8143
1.8126
1.81158
1.80906
1.80872
1.80509
1.82458
1.82446
1.82431
1.82409
1.82374
1.82338
1.82285
1.82237
1.82163
1.82105
1.8201
1.81943
1.81827
1.8175
1.81615
1.81525
1.81377
1.81265
1.81123
1.8096
1.80857
1.80613
1.80578
1.80222
1.82097
1.82083
1.82069
1.82048
1.82013
1.81978
1.81926
1.81879
1.81807
1.8175
1.81658
1.81592
1.81478
1.81403
1.81271
1.81183
1.81038
1.80929
1.80788
1.80632
1.80528
1.80291
1.80256
1.79909
1.81707
1.81692
1.81679
1.81658
1.81624
1.8159
1.81539
1.81493
1.81422
1.81367
1.81276
1.81212
1.81101
1.81028
1.80898
1.80814
1.80671
1.80566
1.80426
1.80276
1.80172
1.79943
1.79908
1.79569
1.81288
1.81272
1.81259
1.81239
1.81205
1.81172
1.81123
1.81078
1.81009
1.80955
1.80867
1.80804
1.80695
1.80625
1.80498
1.80416
1.80276
1.80175
1.80036
1.79893
1.79789
1.79568
1.79533
1.79202
1.8084
1.80823
1.8081
1.80792
1.80758
1.80726
1.80678
1.80635
1.80567
1.80515
1.80429
1.80368
1.80262
1.80194
1.80069
1.79991
1.79854
1.79757
1.7962
1.79484
1.79379
1.79167
1.79131
1.7881
1.80363
1.80344
1.80332
1.80315
1.80282
1.80251
1.80204
1.80162
1.80096
1.80046
1.79962
1.79904
1.798
1.79735
1.79613
1.79538
1.79404
1.79311
1.79177
1.79046
1.78943
1.78738
1.78703
1.7839
1.79857
1.79838
1.79826
1.79809
1.79777
1.79747
1.79702
1.79662
1.79598
1.7955
1.79468
1.79412
1.79311
1.79249
1.7913
1.79058
1.78927
1.78838
1.78707
1.78583
1.7848
1.78284
1.78248
1.77945
1.79323
1.79302
1.79291
1.79275
1.79244
1.79215
1.79171
1.79133
1.79071
1.79025
1.78945
1.78892
1.78794
1.78735
1.78619
1.78551
1.78423
1.78338
1.7821
1.78092
1.7799
1.77802
1.77767
1.77473
1.78759
1.78738
1.78728
1.78713
1.78683
1.78655
1.78613
1.78576
1.78516
1.78472
1.78395
1.78344
1.7825
1.78193
1.78081
1.78016
1.77893
1.77812
1.77687
1.77575
1.77475
1.77295
1.7726
1.76976
1.78168
1.78146
1.78136
1.78122
1.78093
1.78067
1.78026
1.77991
1.77933
1.77891
1.77817
1.77769
1.77677
1.77624
1.77516
1.77454
1.77335
1.77258
1.77137
1.77031
1.76933
1.76762
1.76726
1.76453
1.77548
1.77527
1.77517
1.77504
1.77476
1.77451
1.77412
1.77378
1.77323
1.77283
1.77212
1.77167
1.77078
1.77028
1.76923
1.76866
1.76751
1.76678
1.76561
1.76461
1.76365
1.76203
1.76168
1.75904
1.76899
1.76879
1.7687
1.76858
1.76831
1.76807
1.76769
1.76738
1.76685
1.76648
1.76579
1.76537
1.76452
1.76405
1.76304
1.76251
1.76139
1.76072
1.75958
1.75864
1.7577
1.75617
1.75583
1.7533
1.76224
1.76204
1.76196
1.76184
1.76158
1.76136
1.761
1.76071
1.7602
1.75986
1.7592
1.7588
1.75799
1.75756
1.75659
1.75609
1.75502
1.75439
1.7533
1.75242
1.7515
1.75006
1.74973
1.74731
1.75521
1.75502
1.75494
1.75483
1.75458
1.75438
1.75404
1.75376
1.75328
1.75296
1.75233
1.75197
1.75119
1.75079
1.74986
1.7494
1.74838
1.7478
1.74675
1.74593
1.74505
1.74368
1.74337
1.74105
1.74791
1.74774
1.74766
1.74755
1.74732
1.74713
1.74681
1.74655
1.74609
1.7458
1.74521
1.74487
1.74413
1.74377
1.74288
1.74246
1.74148
1.74095
1.73994
1.73919
1.73833
1.73706
1.73677
1.73455
1.74034
1.74018
1.74011
1.74001
1.73979
1.73961
1.73931
1.73908
1.73864
1.73838
1.73781
1.73751
1.7368
1.73648
1.73563
1.73526
1.73432
1.73383
1.73288
1.73218
1.73137
1.73018
1.72989
1.72779
1.73251
1.73237
1.7323
1.73221
1.73201
1.73184
1.73156
1.73134
1.73093
1.7307
1.73016
1.72989
1.72922
1.72894
1.72813
1.7278
1.72691
1.72647
1.72556
1.72492
1.72415
1.72305
1.72278
1.72078
1.72442
1.7243
1.72423
1.72414
1.72396
1.72381
1.72354
1.72335
1.72296
1.72275
1.72225
1.72201
1.72138
1.72113
1.72037
1.72008
1.71924
1.71885
1.71798
1.7174
1.71667
1.71566
1.71541
1.71352
1.71608
1.71598
1.71592
1.71583
1.71566
1.71552
1.71527
1.7151
1.71474
1.71456
1.71409
1.71388
1.71328
1.71308
1.71236
1.71211
1.71131
1.71098
1.71016
1.70964
1.70895
1.70803
1.7078
1.70602
1.70749
1.70741
1.70734
1.70727
1.70711
1.70699
1.70676
1.70661
1.70627
1.70611
1.70567
1.7055
1.70493
1.70477
1.70409
1.70389
1.70313
1.70285
1.70208
1.70162
1.70098
1.70013
1.69992
1.69826
1.69865
1.6986
1.69853
1.69846
1.69832
1.69821
1.69799
1.69786
1.69755
1.69742
1.69701
1.69687
1.69634
1.69621
1.69557
1.69542
1.69471
1.69448
1.69376
1.69336
1.69276
1.692
1.69181
1.69026
1.68957
1.68953
1.68947
1.6894
1.68928
1.68918
1.68899
1.68888
1.68859
1.68848
1.6881
1.68799
1.6875
1.6874
1.68681
1.6867
1.68603
1.68586
1.68519
1.68484
1.6843
1.6836
1.68344
1.682
1.68026
1.68024
1.68018
1.68011
1.68
1.67992
1.67974
1.67965
1.67939
1.67931
1.67895
1.67888
1.67842
1.67836
1.67781
1.67774
1.67712
1.67699
1.67637
1.67609
1.67559
1.67498
1.67484
1.67351
1.67071
1.6707
1.67065
1.67059
1.67049
1.67042
1.67026
1.67019
1.66995
1.66989
1.66957
1.66953
1.6691
1.66908
1.66856
1.66854
1.66796
1.66788
1.6673
1.66709
1.66664
1.6661
1.66599
1.66478
1.66094
1.66094
1.66089
1.66083
1.66075
1.66069
1.66055
1.6605
1.66028
1.66025
1.65995
1.65994
1.65955
1.65956
1.65909
1.6591
1.65857
1.65854
1.65801
1.65785
1.65744
1.65698
1.6569
1.65581
1.65094
1.65095
1.6509
1.65085
1.65078
1.65074
1.65061
1.65057
1.65038
1.65037
1.6501
1.65012
1.64976
1.64981
1.64938
1.64944
1.64894
1.64896
1.64847
1.64837
1.64801
1.64761
1.64758
1.64659
1.64073
1.64074
1.6407
1.64065
1.6406
1.64056
1.64045
1.64043
1.64026
1.64027
1.64003
1.64008
1.63975
1.63983
1.63944
1.63954
1.63908
1.63916
1.63871
1.63867
1.63835
1.63802
1.63802
1.63715
1.63029
1.63031
1.63027
1.63023
1.63018
1.63016
1.63006
1.63006
1.62991
1.62995
1.62973
1.62981
1.62951
1.62963
1.62927
1.62942
1.629
1.62913
1.62872
1.62873
1.62845
1.6282
1.62823
1.62746
1.61965
1.61966
1.61963
1.61959
1.61956
1.61954
1.61946
1.61948
1.61935
1.61941
1.61921
1.61932
1.61906
1.61921
1.61888
1.61907
1.61869
1.61887
1.6185
1.61858
1.61834
1.61816
1.61823
1.61755
1.60878
1.6088
1.60877
1.60874
1.60872
1.60871
1.60865
1.60868
1.60857
1.60865
1.60848
1.60862
1.60838
1.60856
1.60827
1.60851
1.60816
1.60839
1.60806
1.6082
1.608
1.60789
1.60799
1.6074
1.59772
1.59773
1.59771
1.59769
1.59767
1.59768
1.59763
1.59768
1.59759
1.59768
1.59754
1.59771
1.5975
1.59771
1.59745
1.59773
1.59741
1.59769
1.5974
1.5976
1.59743
1.59741
1.59754
1.59704
1.58644
1.58645
1.58643
1.58642
1.58641
1.58643
1.58639
1.58646
1.58639
1.58651
1.58639
1.58658
1.5864
1.58665
1.58642
1.58674
1.58645
1.58678
1.58652
1.58679
1.58665
1.5867
1.58685
1.58646
1.57497
1.57498
1.57496
1.57496
1.57496
1.57499
1.57496
1.57505
1.57499
1.57513
1.57504
1.57526
1.57511
1.57539
1.57518
1.57554
1.57529
1.57567
1.57544
1.57577
1.57565
1.57578
1.57596
1.57566
1.5633
1.5633
1.56329
1.56329
1.5633
1.56334
1.56333
1.56343
1.5634
1.56356
1.56349
1.56373
1.56361
1.56392
1.56374
1.56414
1.56392
1.56435
1.56414
1.56454
1.56444
1.56465
1.56484
1.56465
1.55143
1.55143
1.55143
1.55143
1.55145
1.5515
1.55151
1.55162
1.55161
1.55179
1.55174
1.55201
1.55191
1.55226
1.55211
1.55255
1.55235
1.55284
1.55266
1.55311
1.55304
1.55333
1.55352
1.55344
1.53938
1.53937
1.53937
1.53938
1.53941
1.53947
1.53949
1.53962
1.53963
1.53982
1.5398
1.54009
1.54002
1.5404
1.54028
1.54076
1.54059
1.54112
1.54097
1.54149
1.54143
1.5418
1.542
1.54202
1.52714
1.52713
1.52713
1.52715
1.52719
1.52726
1.5273
1.52744
1.52746
1.52768
1.52768
1.52799
1.52795
1.52836
1.52826
1.52878
1.52864
1.52922
1.52909
1.52968
1.52963
1.53009
1.53028
1.53041
1.51472
1.5147
1.51472
1.51474
1.51478
1.51487
1.51492
1.51507
1.51511
1.51535
1.51537
1.51571
1.51569
1.51613
1.51606
1.51662
1.5165
1.51713
1.51701
1.51767
1.51763
1.51819
1.51836
1.51859
1.50213
1.50211
1.50213
1.50216
1.50221
1.5023
1.50236
1.50253
1.50259
1.50285
1.50289
1.50325
1.50325
1.50372
1.50368
1.50427
1.50418
1.50486
1.50476
1.50549
1.50544
1.5061
1.50627
1.5066
1.48936
1.48935
1.48937
1.48941
1.48946
1.48957
1.48964
1.48982
1.4899
1.49017
1.49023
1.49061
1.49064
1.49114
1.49112
1.49176
1.49168
1.49242
1.49232
1.49313
1.49307
1.49381
1.49399
1.4944
1.47645
1.47643
1.47646
1.4765
1.47656
1.47667
1.47676
1.47695
1.47704
1.47733
1.47741
1.47782
1.47786
1.4784
1.47839
1.47907
1.479
1.4798
1.4797
1.48059
1.48053
1.48135
1.48153
1.48203
1.46337
1.46336
1.46339
1.46343
1.4635
1.46362
1.46372
1.46392
1.46403
1.46434
1.46443
1.46486
1.46492
1.46549
1.46549
1.46622
1.46615
1.46702
1.46691
1.46787
1.46782
1.4687
1.4689
1.46948
1.45015
1.45014
1.45017
1.45022
1.4503
1.45043
1.45053
1.45075
1.45087
1.45119
1.4513
1.45176
1.45182
1.45243
1.45243
1.45322
1.45314
1.45408
1.45396
1.45498
1.45495
1.45589
1.45609
1.45675
1.4368
1.43678
1.43682
1.43687
1.43696
1.43709
1.43721
1.43743
1.43756
1.4379
1.43801
1.4385
1.43857
1.43923
1.43921
1.44006
1.43997
1.44096
1.44086
1.44193
1.44191
1.4429
1.44312
1.44385
1.42331
1.4233
1.42333
1.42339
1.42348
1.42362
1.42374
1.42398
1.42412
1.42448
1.42459
1.42512
1.42517
1.42587
1.42586
1.42675
1.42667
1.42769
1.42762
1.42871
1.42872
1.42976
1.42999
1.43079
1.4097
1.40968
1.40973
1.40978
1.40988
1.41002
1.41016
1.4104
1.41054
1.41093
1.41103
1.41159
1.41164
1.41237
1.41237
1.41328
1.41323
1.41427
1.41422
1.41535
1.41537
1.41645
1.41669
1.41756
1.39597
1.39596
1.396
1.39605
1.39616
1.3963
1.39645
1.3967
1.39684
1.39725
1.39735
1.39793
1.39799
1.39874
1.39876
1.39968
1.39965
1.40071
1.40068
1.40184
1.40188
1.403
1.40325
1.40418
1.38213
1.38212
1.38217
1.38222
1.38233
1.38247
1.38263
1.38288
1.38303
1.38344
1.38356
1.38414
1.38422
1.38497
1.38501
1.38594
1.38593
1.38701
1.387
1.38818
1.38824
1.3894
1.38966
1.39065
1.36819
1.36817
1.36822
1.36828
1.36839
1.36853
1.3687
1.36894
1.36912
1.36952
1.36966
1.37024
1.37033
1.37109
1.37115
1.37209
1.3721
1.37319
1.3732
1.3744
1.37447
1.37567
1.37594
1.37698
1.35415
1.35413
1.35418
1.35424
1.35435
1.35449
1.35467
1.3549
1.3551
1.35548
1.35565
1.35622
1.35634
1.3571
1.35717
1.35811
1.35814
1.35924
1.35927
1.36049
1.36057
1.3618
1.36207
1.36316
1.34001
1.33999
1.34004
1.3401
1.34022
1.34035
1.34053
1.34077
1.34098
1.34135
1.34154
1.3421
1.34224
1.34299
1.34308
1.34403
1.34407
1.34518
1.34523
1.34646
1.34656
1.34782
1.34809
1.34923
1.32578
1.32576
1.32581
1.32587
1.32598
1.32612
1.3263
1.32654
1.32676
1.32712
1.32733
1.32787
1.32804
1.32879
1.32889
1.32984
1.3299
1.33102
1.33107
1.33232
1.33243
1.33371
1.33399
1.33517
1.31146
1.31144
1.31149
1.31154
1.31166
1.3118
1.31199
1.31222
1.31245
1.3128
1.31303
1.31356
1.31374
1.31448
1.3146
1.31555
1.31562
1.31675
1.31682
1.31808
1.3182
1.31951
1.31979
1.321
1.29705
1.29703
1.29707
1.29713
1.29725
1.29739
1.29757
1.2978
1.29804
1.29839
1.29863
1.29915
1.29936
1.30009
1.30023
1.30118
1.30126
1.3024
1.30247
1.30375
1.30387
1.3052
1.30548
1.30672
1.28254
1.28252
1.28257
1.28263
1.28275
1.28289
1.28308
1.28331
1.28355
1.28389
1.28415
1.28467
1.28489
1.28562
1.28577
1.28672
1.28681
1.28796
1.28804
1.28933
1.28946
1.2908
1.29108
1.29236
1.26795
1.26793
1.26798
1.26803
1.26816
1.2683
1.26849
1.26872
1.26898
1.26931
1.26959
1.2701
1.27033
1.27106
1.27123
1.27218
1.27229
1.27344
1.27353
1.27482
1.27496
1.27632
1.2766
1.2779
1.25327
1.25324
1.2533
1.25335
1.25348
1.25362
1.25383
1.25406
1.25432
1.25466
1.25496
1.25546
1.25572
1.25644
1.25661
1.25758
1.25769
1.25884
1.25895
1.26025
1.2604
1.26176
1.26205
1.26337
1.2385
1.23848
1.23853
1.23859
1.23873
1.23887
1.23908
1.23932
1.23959
1.23994
1.24025
1.24075
1.24103
1.24174
1.24194
1.2429
1.24303
1.24419
1.2443
1.2456
1.24576
1.24713
1.24742
1.24876
1.22367
1.22364
1.2237
1.22377
1.22391
1.22406
1.22428
1.22452
1.2248
1.22515
1.22549
1.22597
1.22629
1.22698
1.22721
1.22817
1.2283
1.22947
1.22959
1.23089
1.23106
1.23244
1.23272
1.23407
1.20879
1.20876
1.20882
1.20889
1.20903
1.20919
1.20941
1.20967
1.20996
1.21032
1.21066
1.21115
1.21149
1.21217
1.21243
1.21336
1.21353
1.21469
1.21481
1.21612
1.21629
1.21767
1.21795
1.21931
1.19388
1.19385
1.19391
1.19399
1.19413
1.19429
1.19452
1.19478
1.19508
1.19544
1.1958
1.19627
1.19664
1.1973
1.1976
1.1985
1.1987
1.19984
1.19998
1.20128
1.20146
1.20283
1.20311
1.20448
1.17898
1.17896
1.17901
1.17909
1.17923
1.17939
1.17962
1.17987
1.18017
1.18053
1.18089
1.18136
1.18174
1.18238
1.18272
1.18358
1.18382
1.18492
1.18508
1.18637
1.18655
1.18792
1.1882
1.18956
1.16413
1.1641
1.16415
1.16422
1.16436
1.16451
1.16473
1.16497
1.16526
1.16561
1.16596
1.16642
1.1668
1.16741
1.16777
1.1686
1.16887
1.16994
1.17011
1.17139
1.17156
1.17293
1.1732
1.17456
1.14934
1.14931
1.14935
1.14941
1.14953
1.14967
1.14987
1.1501
1.15037
1.15069
1.15102
1.15145
1.15183
1.15241
1.15277
1.15355
1.15384
1.15487
1.15507
1.15632
1.15649
1.15785
1.1581
1.15946
1.13461
1.13458
1.13461
1.13466
1.13476
1.13488
1.13505
1.13525
1.13549
1.13578
1.13608
1.13647
1.13682
1.13736
1.13771
1.13845
1.13874
1.13972
1.13993
1.14115
1.14132
1.14267
1.14292
1.14428
1.11991
1.11988
1.1199
1.11993
1.12001
1.1201
1.12025
1.12041
1.12062
1.12087
1.12114
1.12148
1.1218
1.12229
1.1226
1.12329
1.12356
1.12449
1.12469
1.12587
1.12603
1.12738
1.12761
1.12898
1.10517
1.10513
1.10515
1.10516
1.10523
1.1053
1.10542
1.10555
1.10573
1.10594
1.10618
1.10647
1.10675
1.10719
1.10745
1.1081
1.10831
1.10921
1.10935
1.11051
1.11062
1.11197
1.11218
1.11356
1.09028
1.09023
1.09025
1.09024
1.09032
1.09036
1.09048
1.09058
1.09076
1.09093
1.09114
1.09141
1.09165
1.09206
1.09225
1.0929
1.093
1.09392
1.09394
1.0951
1.09513
1.09645
1.09661
1.09797
1.0751
1.07505
1.07507
1.07506
1.07514
1.07518
1.07531
1.07541
1.07558
1.07575
1.07596
1.07621
1.07644
1.07683
1.07699
1.07764
1.07766
1.0786
1.07852
1.07969
1.07962
1.08091
1.081
1.08226
1.05949
1.05945
1.05947
1.05948
1.05956
1.05963
1.05977
1.0599
1.06009
1.06029
1.06051
1.06079
1.06104
1.06142
1.06163
1.06224
1.06229
1.0632
1.06311
1.06426
1.06413
1.06542
1.06543
1.06662
1.04333
1.04329
1.04332
1.04335
1.04345
1.04356
1.04373
1.04391
1.04414
1.0444
1.04467
1.04501
1.04531
1.04574
1.04602
1.04662
1.04678
1.04765
1.04762
1.04879
1.04863
1.04997
1.04992
1.05113
1.02653
1.02649
1.02653
1.02659
1.02672
1.02687
1.02708
1.02732
1.02762
1.02794
1.0283
1.02871
1.02911
1.02962
1.03002
1.03068
1.03096
1.03188
1.03194
1.03319
1.03304
1.03448
1.03439
1.0357
1.00905
1.009
1.00907
1.00914
1.00931
1.00949
1.00977
1.01005
1.01043
1.01082
1.01129
1.01178
1.01231
1.01291
1.01346
1.01423
1.01465
1.01573
1.01588
1.01731
1.01722
1.01883
1.01874
1.02023
0.990907
0.99086
0.99094
0.991028
0.991224
0.991443
0.99176
0.992102
0.992541
0.992999
0.993554
0.994134
0.994781
0.995498
0.996194
0.997088
0.997707
0.998938
0.999282
1.0009
1.00098
1.00283
1.00281
1.00457
0.972168
0.972127
0.972204
0.972316
0.97252
0.972773
0.973112
0.973502
0.973973
0.974503
0.975103
0.975775
0.976495
0.977318
0.978139
0.979131
0.979983
0.981268
0.981946
0.983669
0.984045
0.986178
0.986326
0.98852
0.952939
0.952901
0.952977
0.953098
0.953309
0.953576
0.953929
0.95434
0.954837
0.955395
0.956035
0.956746
0.957523
0.9584
0.959303
0.960368
0.961366
0.962682
0.963679
0.965383
0.96618
0.968463
0.968915
0.971672
0.933339
0.933302
0.933375
0.933495
0.93371
0.933973
0.934335
0.934744
0.935251
0.935813
0.936462
0.937189
0.937976
0.938881
0.939803
0.940904
0.941949
0.943292
0.944415
0.946093
0.947194
0.949431
0.950212
0.953415
0.913499
0.913459
0.913527
0.913644
0.913849
0.914111
0.914457
0.914866
0.915354
0.915912
0.916546
0.91726
0.91804
0.91892
0.919842
0.920912
0.921961
0.923274
0.9244
0.926046
0.927157
0.929349
0.930177
0.933375
0.893536
0.893492
0.893555
0.893662
0.893859
0.894103
0.89444
0.894822
0.895301
0.895823
0.896444
0.897116
0.897877
0.898711
0.899607
0.900621
0.901639
0.902887
0.903956
0.905548
0.906547
0.908692
0.90939
0.912326
0.873559
0.87351
0.873568
0.873662
0.873848
0.874072
0.874392
0.874747
0.875201
0.875691
0.876278
0.876911
0.87763
0.878415
0.879261
0.880216
0.88118
0.882343
0.883357
0.884846
0.885767
0.887787
0.888426
0.891143
0.853656
0.853601
0.853653
0.853734
0.853906
0.85411
0.854407
0.854734
0.855159
0.85561
0.856166
0.856743
0.85743
0.858143
0.858953
0.859823
0.860739
0.861806
0.862759
0.864141
0.864992
0.866862
0.867461
0.869971
0.833905
0.833841
0.833893
0.833952
0.834118
0.834291
0.834578
0.83486
0.835272
0.835663
0.836202
0.836707
0.837369
0.838001
0.838774
0.839556
0.840421
0.841385
0.842283
0.843553
0.844339
0.846054
0.84662
0.848921
0.81436
0.814292
0.814343
0.814379
0.814542
0.814679
0.814958
0.815193
0.815592
0.815922
0.816445
0.816874
0.817518
0.818057
0.818808
0.819485
0.820312
0.821175
0.822007
0.823168
0.823902
0.825454
0.825992
0.828086
0.795079
0.795007
0.795049
0.795077
0.795219
0.795344
0.795588
0.795804
0.796163
0.796459
0.796943
0.797314
0.797926
0.798381
0.799106
0.799675
0.800475
0.801221
0.802013
0.803049
0.803737
0.805128
0.80564
0.807528
0.776095
0.776022
0.776053
0.776075
0.776196
0.776305
0.776524
0.776713
0.777036
0.777302
0.777734
0.778076
0.778618
0.77904
0.779687
0.780205
0.780933
0.78159
0.782342
0.783239
0.783893
0.785124
0.785614
0.787302
0.757445
0.75737
0.757391
0.75741
0.757504
0.757611
0.757785
0.757973
0.758236
0.758496
0.758859
0.759183
0.759653
0.76004
0.760617
0.761078
0.761744
0.762312
0.763025
0.763776
0.764407
0.765484
0.765954
0.767444
0.739149
0.739074
0.739087
0.739095
0.739178
0.73926
0.739423
0.739571
0.739818
0.74003
0.740365
0.74064
0.741065
0.741403
0.74192
0.742325
0.742927
0.743417
0.744078
0.744699
0.745319
0.746235
0.746686
0.747984
0.721233
0.721157
0.721161
0.721164
0.721228
0.721301
0.72143
0.721568
0.72177
0.721966
0.722248
0.722495
0.722864
0.72316
0.723619
0.723965
0.724509
0.72492
0.725529
0.726042
0.726643
0.727397
0.727834
0.728944
0.703706
0.70363
0.703629
0.703621
0.703675
0.703727
0.703844
0.703948
0.704132
0.704286
0.704542
0.704743
0.705075
0.705318
0.705731
0.706016
0.706507
0.706844
0.7074
0.707811
0.708388
0.708989
0.709414
0.710343
0.686586
0.68651
0.686503
0.686488
0.686528
0.686568
0.68666
0.686749
0.686898
0.687031
0.687245
0.687415
0.6877
0.687902
0.688263
0.688495
0.688933
0.6892
0.689703
0.690029
0.690562
0.691023
0.691442
0.692198
0.669878
0.669801
0.669789
0.669767
0.669796
0.669819
0.669896
0.669959
0.67009
0.670187
0.670376
0.670504
0.670755
0.670909
0.671229
0.671405
0.671795
0.671996
0.672451
0.672689
0.673184
0.673515
0.673923
0.67452
0.65359
0.653515
0.653498
0.653469
0.653487
0.653497
0.653556
0.653601
0.653704
0.653779
0.653933
0.654031
0.654242
0.654357
0.654631
0.654758
0.655101
0.655239
0.655644
0.655807
0.656253
0.656475
0.656874
0.657316
0.637726
0.63765
0.637627
0.637596
0.637598
0.637602
0.63764
0.637668
0.637749
0.637797
0.637925
0.637987
0.638167
0.63824
0.638478
0.638553
0.638853
0.638931
0.639292
0.639376
0.639783
0.639907
0.640292
0.640584
0.622287
0.622213
0.622188
0.622147
0.622148
0.62213
0.622162
0.622165
0.622229
0.622251
0.622352
0.622385
0.622531
0.622567
0.622765
0.622797
0.623055
0.623076
0.623394
0.623413
0.623775
0.62381
0.624177
0.624329
0.607275
0.607202
0.607167
0.607135
0.607107
0.607102
0.607097
0.607101
0.607135
0.607139
0.607213
0.607217
0.607334
0.607333
0.607498
0.607485
0.607705
0.607673
0.607951
0.607902
0.608229
0.608183
0.60852
0.608546
0.592689
0.592616
0.592587
0.592532
0.592522
0.592476
0.592488
0.592452
0.592484
0.592457
0.592513
0.592488
0.592576
0.592541
0.592672
0.592619
0.592802
0.59272
0.59296
0.592851
0.59314
0.593014
0.593326
0.593237
0.578526
0.578457
0.578413
0.578378
0.578327
0.57831
0.578272
0.578253
0.578245
0.578212
0.578238
0.578191
0.578252
0.578186
0.578287
0.578194
0.578343
0.578214
0.578418
0.578249
0.578505
0.578304
0.578586
0.578397
0.564784
0.564714
0.564682
0.564614
0.564597
0.564525
0.564521
0.56445
0.564454
0.564385
0.564401
0.564325
0.564362
0.564267
0.564338
0.56421
0.564326
0.564154
0.564325
0.564101
0.564324
0.564051
0.564311
0.564025
0.551457
0.551392
0.551344
0.551301
0.551238
0.551203
0.551145
0.551099
0.551061
0.550992
0.550979
0.550886
0.550899
0.550776
0.550822
0.550659
0.550747
0.550533
0.550672
0.550398
0.550593
0.550255
0.550493
0.550117
0.538543
0.538475
0.538443
0.538363
0.538343
0.538246
0.538231
0.538129
0.538109
0.538005
0.537985
0.537867
0.53786
0.537712
0.537732
0.537539
0.537599
0.537348
0.537461
0.537139
0.537307
0.536908
0.53713
0.536671
0.526031
0.525971
0.525917
0.525875
0.525792
0.525755
0.525667
0.525608
0.525538
0.525443
0.525394
0.525263
0.525235
0.525064
0.525062
0.524841
0.524877
0.52459
0.524676
0.524312
0.524458
0.524003
0.524208
0.523674
0.513921
0.513854
0.513828
0.513728
0.513719
0.513587
0.513577
0.513439
0.513406
0.513268
0.513221
0.513065
0.513021
0.512828
0.512805
0.512558
0.512571
0.512253
0.512317
0.511912
0.512038
0.511532
0.511724
0.511119
0.502197
0.502145
0.502081
0.502048
0.501938
0.501911
0.501789
0.501727
0.501625
0.50151
0.501431
0.501268
0.501205
0.500994
0.500952
0.500681
0.500674
0.500326
0.500368
0.499927
0.500034
0.499483
0.499661
0.498994
0.490863
0.490798
0.490776
0.490664
0.490659
0.490505
0.490492
0.490329
0.490282
0.490117
0.490046
0.48986
0.489785
0.489554
0.489496
0.489203
0.489176
0.488802
0.488826
0.488351
0.488441
0.487846
0.488015
0.48729
0.479898
0.479851
0.479783
0.479751
0.479631
0.479598
0.479462
0.479385
0.479266
0.47913
0.479027
0.478836
0.478745
0.4785
0.478425
0.478113
0.478068
0.47767
0.477674
0.47717
0.477244
0.476611
0.47677
0.47599
0.469307
0.469247
0.469222
0.469112
0.469094
0.468941
0.468908
0.468739
0.46867
0.46849
0.468395
0.468185
0.468083
0.467822
0.467732
0.467402
0.467341
0.466922
0.46691
0.466377
0.466436
0.465768
0.465918
0.46509
0.459069
0.459024
0.458961
0.458917
0.458807
0.458749
0.45862
0.458517
0.458393
0.458233
0.458114
0.457899
0.457784
0.457511
0.457407
0.457061
0.456984
0.456545
0.456517
0.45596
0.456004
0.455304
0.455442
0.454576
0.449187
0.449134
0.449101
0.449003
0.448962
0.448824
0.448761
0.448598
0.448504
0.448315
0.448198
0.447969
0.447844
0.447557
0.447441
0.447081
0.446989
0.446534
0.44649
0.445912
0.445942
0.445212
0.445344
0.444433
0.439642
0.439599
0.439543
0.439484
0.43939
0.439303
0.439188
0.439058
0.438933
0.438751
0.43862
0.438384
0.43825
0.437953
0.437825
0.437451
0.437347
0.436874
0.436816
0.436218
0.436235
0.43548
0.435598
0.434657
0.430435
0.430389
0.430347
0.430263
0.4302
0.430077
0.429988
0.429831
0.429716
0.42952
0.429386
0.42914
0.428997
0.428689
0.428551
0.428164
0.428048
0.427562
0.42749
0.426876
0.426878
0.4261
0.426212
0.425233
0.421548
0.421506
0.421458
0.421386
0.421305
0.421198
0.421091
0.420941
0.420814
0.420616
0.420474
0.420222
0.420072
0.419755
0.419608
0.41921
0.419083
0.418583
0.4185
0.417869
0.417859
0.417062
0.41716
0.416157
0.412981
0.412941
0.412894
0.412819
0.412742
0.412627
0.412523
0.412366
0.412237
0.412033
0.411886
0.411627
0.411469
0.411144
0.410989
0.410582
0.410445
0.409934
0.409841
0.409197
0.409175
0.408361
0.408451
0.40742
0.404719
0.404678
0.404634
0.404557
0.404481
0.404363
0.404258
0.404097
0.403966
0.403756
0.403605
0.40334
0.403178
0.402845
0.402684
0.402266
0.402123
0.4016
0.401499
0.400842
0.400813
0.399984
0.400065
0.399018
0.396756
0.396721
0.396674
0.396601
0.396519
0.396404
0.396294
0.396133
0.395997
0.395785
0.39563
0.395359
0.395191
0.394851
0.394684
0.394259
0.394111
0.393577
0.393472
0.3928
0.392768
0.391924
0.392003
0.390941
0.389083
0.389047
0.389003
0.388926
0.388849
0.388728
0.38862
0.388454
0.388318
0.388101
0.387943
0.387668
0.387497
0.387151
0.38698
0.386546
0.386393
0.38585
0.38574
0.385058
0.385022
0.384166
0.38424
0.383169
0.381694
0.381661
0.381615
0.381542
0.38146
0.381343
0.38123
0.381064
0.380924
0.380705
0.380544
0.380264
0.380089
0.379738
0.379562
0.379123
0.378966
0.378416
0.378302
0.377611
0.377571
0.376705
0.376775
0.375693
0.374575
0.374543
0.374499
0.374423
0.374345
0.374223
0.374112
0.373943
0.373802
0.37358
0.373417
0.373134
0.372956
0.372601
0.372421
0.371977
0.371814
0.371259
0.371138
0.370442
0.370396
0.369524
0.369588
0.368498
0.367726
0.367696
0.367651
0.367577
0.367496
0.367376
0.367263
0.367093
0.366951
0.366726
0.36656
0.366274
0.366092
0.365734
0.36555
0.365103
0.364936
0.364376
0.364251
0.363549
0.363498
0.36262
0.362678
0.361582
0.36113
0.3611
0.361057
0.360983
0.360903
0.360781
0.360668
0.360496
0.360353
0.360127
0.359959
0.359671
0.359488
0.359126
0.358939
0.358487
0.358316
0.357753
0.357622
0.356917
0.356858
0.355977
0.356031
0.354927
0.354789
0.354761
0.354717
0.354644
0.354563
0.354442
0.354328
0.354155
0.354011
0.353783
0.353613
0.353322
0.353136
0.352772
0.352582
0.352128
0.351953
0.351387
0.351252
0.350544
0.35048
0.349595
0.349643
0.348535
0.348685
0.348658
0.348616
0.348542
0.348462
0.34834
0.348226
0.348052
0.347908
0.347677
0.347508
0.347215
0.347028
0.346661
0.346469
0.346012
0.345833
0.345265
0.345125
0.344415
0.344346
0.343458
0.343502
0.34239
0.342822
0.342796
0.342754
0.34268
0.342601
0.342478
0.342364
0.342189
0.342045
0.341813
0.341642
0.341346
0.341159
0.340789
0.340596
0.340137
0.339957
0.339385
0.339243
0.338531
0.338459
0.337566
0.337607
0.336493
0.337182
0.337157
0.337115
0.337042
0.336963
0.33684
0.336726
0.33655
0.336406
0.336172
0.336003
0.335705
0.335518
0.335145
0.334952
0.334489
0.334308
0.333734
0.33359
0.332875
0.332801
0.331905
0.331942
0.330829
0.331768
0.331744
0.331703
0.33163
0.331552
0.331428
0.331315
0.331138
0.330994
0.330758
0.330589
0.330288
0.330102
0.329726
0.329535
0.329068
0.328889
0.328311
0.328168
0.327449
0.327373
0.326479
0.326512
0.325398
0.326564
0.326541
0.326501
0.326427
0.32635
0.326225
0.326114
0.325935
0.325793
0.325555
0.325389
0.325084
0.324901
0.32452
0.324332
0.32386
0.323684
0.323101
0.322961
0.322238
0.322167
0.321264
0.321299
0.320186
0.321573
0.321551
0.321511
0.321438
0.321361
0.321236
0.321126
0.320946
0.320805
0.320564
0.3204
0.320092
0.319912
0.319527
0.319343
0.318867
0.318696
0.318106
0.317972
0.317242
0.317176
0.316271
0.316304
0.315196
0.31678
0.316758
0.316719
0.316646
0.31657
0.316444
0.316335
0.316153
0.316015
0.315772
0.315612
0.3153
0.315124
0.314733
0.314555
0.314071
0.313908
0.31331
0.313184
0.312446
0.312389
0.311478
0.311514
0.310409
0.312187
0.312166
0.312127
0.312054
0.31198
0.311853
0.311746
0.311562
0.311427
0.31118
0.311023
0.310707
0.310537
0.310141
0.309969
0.309478
0.309323
0.308718
0.3086
0.307855
0.307804
0.306893
0.306928
0.30583
0.307781
0.30776
0.307722
0.307648
0.307575
0.307447
0.307342
0.307156
0.307024
0.306776
0.306622
0.306302
0.306136
0.305735
0.30557
0.305072
0.304925
0.304312
0.304204
0.303451
0.303406
0.302494
0.30253
0.301436
0.303563
0.303542
0.303505
0.303431
0.303359
0.303231
0.303128
0.30294
0.30281
0.302559
0.302409
0.302086
0.301925
0.30152
0.30136
0.300858
0.300717
0.300098
0.299997
0.299241
0.299199
0.298287
0.298321
0.297234
0.299521
0.2995
0.299464
0.29939
0.299319
0.299189
0.299088
0.298899
0.298772
0.298519
0.298372
0.298046
0.297889
0.29748
0.297326
0.296819
0.296684
0.296059
0.295968
0.295204
0.295167
0.294256
0.294289
0.293205
0.295656
0.295635
0.2956
0.295525
0.295456
0.295326
0.295227
0.295035
0.294913
0.294655
0.294515
0.294182
0.294035
0.293617
0.293474
0.292956
0.292836
0.2922
0.292116
0.291352
0.291316
0.290407
0.290439
0.289362
0.291957
0.291937
0.291903
0.291827
0.29176
0.291626
0.291532
0.291337
0.29122
0.290956
0.290824
0.290483
0.290346
0.289917
0.289789
0.289258
0.28915
0.288508
0.28843
0.287663
0.28763
0.286724
0.286754
0.285685
0.288426
0.288406
0.288372
0.288296
0.288231
0.288096
0.288005
0.287805
0.287695
0.287424
0.287303
0.286952
0.286828
0.286388
0.286272
0.285733
0.285634
0.284986
0.284914
0.284147
0.284114
0.283213
0.283241
0.28218
0.285052
0.285032
0.284999
0.284921
0.28486
0.28472
0.284636
0.28443
0.284328
0.284049
0.283937
0.283577
0.283465
0.283015
0.282909
0.282364
0.28227
0.281622
0.281551
0.280787
0.280755
0.279857
0.279882
0.278829
0.281836