/*--------------------------------*- C++ -*----------------------------------*\
  =========                 |
  \\      /  F ield         | OpenFOAM: The Open Source CFD Toolbox
   \\    /   O peration     | Website:  https://openfoam.org
    \\  /    A nd           | Version:  10
     \\/     M anipulation  |
\*---------------------------------------------------------------------------*/
FoamFile
{
    format      ascii;
    class       volScalarField;
    location    "0.14";
    object      p;
}
// * * * * * * * * * * * * * * * * * * * * * * * * * * * * * * * * * * * * * //

dimensions      [1 -1 -2 0 0 0 0];

internalField   nonuniform List<scalar> 
4176
(
1601.13
1601.33
1601.84
1602.46
1603.53
1604.55
1606.18
1607.57
1609.77
1611.55
1614.25
1616.47
1619.59
1622.36
1625.73
1629.23
1632.52
1637.16
1640.11
1646.11
1648.45
1656.08
1657.26
1666
1601.57
1601.76
1602.23
1602.84
1603.8
1604.8
1606.26
1607.64
1609.61
1611.35
1613.82
1615.96
1618.86
1621.46
1624.65
1627.89
1631.04
1635.31
1638.13
1643.69
1645.8
1653.24
1654.49
1664.26
1602.82
1603.01
1603.48
1604.11
1605.09
1606.1
1607.6
1609
1611.02
1612.79
1615.32
1617.48
1620.46
1623.09
1626.39
1629.66
1632.92
1637.3
1640.11
1645.82
1647.9
1655.24
1656.39
1665.85
1604.75
1604.93
1605.4
1606.01
1606.97
1607.96
1609.44
1610.79
1612.79
1614.5
1617.01
1619.1
1622.07
1624.6
1627.9
1631.07
1634.33
1638.72
1641.25
1647.13
1649.07
1656.31
1657.37
1666.23
1607.45
1607.64
1608.1
1608.71
1609.66
1610.66
1612.12
1613.48
1615.46
1617.19
1619.67
1621.77
1624.72
1627.25
1630.55
1633.67
1637.04
1641.26
1643.96
1649.75
1651.76
1658.96
1660.1
1668.95
1610.89
1611.07
1611.53
1612.13
1613.07
1614.06
1615.5
1616.86
1618.8
1620.52
1622.96
1625.05
1627.95
1630.46
1633.73
1636.79
1640.21
1644.22
1647.15
1652.68
1654.77
1661.88
1663.1
1672.04
1615.08
1615.27
1615.72
1616.32
1617.25
1618.24
1619.66
1621.01
1622.93
1624.63
1627.05
1629.12
1632.01
1634.48
1637.74
1640.75
1644.18
1648.07
1651.09
1656.47
1658.64
1665.65
1666.91
1675.73
1620.03
1620.22
1620.66
1621.26
1622.18
1623.15
1624.56
1625.89
1627.79
1629.48
1631.87
1633.92
1636.77
1639.21
1642.45
1645.4
1648.84
1652.6
1655.7
1660.9
1663.15
1670.05
1671.35
1680.07
1625.74
1625.93
1626.36
1626.96
1627.86
1628.83
1630.22
1631.54
1633.42
1635.09
1637.45
1639.47
1642.3
1644.7
1647.92
1650.81
1654.25
1657.89
1661.06
1666.09
1668.42
1675.17
1676.51
1685.11
1632.21
1632.39
1632.83
1633.42
1634.31
1635.27
1636.64
1637.95
1639.8
1641.45
1643.78
1645.77
1648.57
1650.93
1654.12
1656.95
1660.38
1663.91
1667.13
1671.99
1674.4
1680.98
1682.37
1690.84
1639.45
1639.63
1640.06
1640.64
1641.53
1642.47
1643.83
1645.12
1646.95
1648.57
1650.88
1652.84
1655.6
1657.92
1661.08
1663.85
1667.26
1670.69
1673.95
1678.64
1681.11
1687.52
1688.94
1697.27
1647.47
1647.65
1648.07
1648.65
1649.52
1650.45
1651.78
1653.06
1654.86
1656.46
1658.74
1660.66
1663.39
1665.66
1668.79
1671.49
1674.89
1678.22
1681.5
1686.03
1688.55
1694.79
1696.23
1704.41
1656.27
1656.45
1656.86
1657.43
1658.29
1659.21
1660.52
1661.78
1663.55
1665.13
1667.37
1669.26
1671.95
1674.18
1677.27
1679.9
1683.27
1686.5
1689.8
1694.17
1696.73
1702.8
1704.25
1712.28
1665.86
1666.04
1666.45
1667.01
1667.85
1668.76
1670.05
1671.28
1673.03
1674.57
1676.78
1678.63
1681.28
1683.46
1686.51
1689.08
1692.41
1695.54
1698.86
1703.06
1705.66
1711.55
1713
1720.87
1676.26
1676.43
1676.84
1677.39
1678.21
1679.1
1680.37
1681.58
1683.3
1684.81
1686.98
1688.79
1691.4
1693.53
1696.54
1699.03
1702.33
1705.36
1708.67
1712.71
1715.34
1721.05
1722.51
1730.2
1687.46
1687.64
1688.04
1688.58
1689.39
1690.26
1691.5
1692.68
1694.37
1695.85
1697.98
1699.75
1702.31
1704.38
1707.34
1709.77
1713.02
1715.95
1719.25
1723.13
1725.79
1731.29
1732.78
1740.28
1699.5
1699.67
1700.06
1700.59
1701.38
1702.24
1703.45
1704.61
1706.25
1707.7
1709.78
1711.5
1714.02
1716.03
1718.95
1721.3
1724.51
1727.34
1730.61
1734.32
1737.01
1742.31
1743.83
1751.12
1712.37
1712.54
1712.92
1713.44
1714.21
1715.04
1716.23
1717.36
1718.97
1720.37
1722.41
1724.08
1726.55
1728.49
1731.35
1733.63
1736.79
1739.51
1742.75
1746.3
1749.01
1754.1
1755.65
1762.73
1726.08
1726.26
1726.63
1727.13
1727.89
1728.7
1729.86
1730.95
1732.52
1733.88
1735.87
1737.48
1739.9
1741.78
1744.57
1746.77
1749.87
1752.49
1755.7
1759.08
1761.8
1766.69
1768.25
1775.12
1740.67
1740.84
1741.19
1741.69
1742.42
1743.21
1744.33
1745.39
1746.92
1748.23
1750.17
1751.73
1754.08
1755.89
1758.63
1760.73
1763.77
1766.29
1769.45
1772.66
1775.4
1780.07
1781.66
1788.3
1756.12
1756.29
1756.64
1757.12
1757.83
1758.59
1759.68
1760.7
1762.19
1763.45
1765.34
1766.83
1769.12
1770.86
1773.52
1775.54
1778.51
1780.91
1784.02
1787.07
1789.81
1794.26
1795.87
1802.28
1772.47
1772.64
1772.97
1773.43
1774.12
1774.85
1775.91
1776.89
1778.33
1779.54
1781.37
1782.8
1785.02
1786.68
1789.28
1791.2
1794.1
1796.38
1799.42
1802.32
1805.04
1809.28
1810.9
1817.07
1789.72
1789.89
1790.21
1790.65
1791.32
1792.02
1793.04
1793.97
1795.36
1796.52
1798.29
1799.65
1801.81
1803.38
1805.9
1807.72
1810.54
1812.71
1815.68
1818.42
1821.13
1825.13
1826.76
1832.69
1807.89
1808.05
1808.36
1808.79
1809.43
1810.1
1811.07
1811.97
1813.3
1814.4
1816.11
1817.4
1819.48
1820.97
1823.41
1825.13
1827.87
1829.91
1832.81
1835.39
1838.07
1841.83
1843.47
1849.14
1827
1827.15
1827.45
1827.86
1828.47
1829.1
1830.04
1830.88
1832.16
1833.2
1834.84
1836.06
1838.07
1839.47
1841.83
1843.44
1846.1
1848.01
1850.83
1853.24
1855.88
1859.42
1861.03
1866.44
1847.04
1847.19
1847.48
1847.87
1848.45
1849.05
1849.94
1850.74
1851.96
1852.94
1854.51
1855.65
1857.58
1858.89
1861.16
1862.66
1865.23
1867.01
1869.75
1871.99
1874.59
1877.89
1879.49
1884.63
1868.05
1868.19
1868.47
1868.84
1869.39
1869.95
1870.8
1871.55
1872.71
1873.62
1875.12
1876.18
1878.03
1879.24
1881.42
1882.82
1885.29
1886.94
1889.58
1891.66
1894.2
1897.25
1898.85
1903.73
1890.03
1890.17
1890.43
1890.78
1891.3
1891.83
1892.64
1893.33
1894.43
1895.28
1896.7
1897.68
1899.44
1900.55
1902.64
1903.92
1906.29
1907.8
1910.36
1912.27
1914.74
1917.54
1919.13
1923.72
1913
1913.14
1913.38
1913.71
1914.2
1914.7
1915.46
1916.1
1917.14
1917.91
1919.26
1920.15
1921.83
1922.84
1924.83
1925.98
1928.26
1929.63
1932.09
1933.83
1936.22
1938.77
1940.36
1944.64
1936.97
1937.11
1937.34
1937.65
1938.11
1938.57
1939.28
1939.87
1940.85
1941.55
1942.83
1943.63
1945.21
1946.11
1948.01
1949.04
1951.21
1952.43
1954.79
1956.35
1958.66
1960.96
1962.53
1966.51
1961.97
1962.1
1962.32
1962.61
1963.04
1963.46
1964.12
1964.65
1965.57
1966.2
1967.4
1968.12
1969.61
1970.4
1972.2
1973.1
1975.16
1976.23
1978.48
1979.87
1982.09
1984.14
1985.68
1989.36
1988.01
1988.14
1988.34
1988.6
1989
1989.38
1990
1990.48
1991.33
1991.89
1993.01
1993.64
1995.04
1995.73
1997.42
1998.19
2000.14
2001.06
2003.19
2004.4
2006.52
2008.34
2009.85
2013.19
2015.1
2015.23
2015.41
2015.65
2016.02
2016.36
2016.93
2017.35
2018.14
2018.63
2019.67
2020.21
2021.52
2022.09
2023.69
2024.32
2026.17
2026.92
2028.94
2029.96
2031.97
2033.56
2035.04
2038.05
2043.27
2043.39
2043.56
2043.78
2044.11
2044.42
2044.93
2045.3
2046.03
2046.44
2047.4
2047.84
2049.07
2049.53
2051.02
2051.52
2053.26
2053.85
2055.76
2056.58
2058.49
2059.83
2061.28
2063.94
2072.52
2072.64
2072.79
2072.99
2073.29
2073.56
2074.03
2074.34
2075
2075.34
2076.22
2076.57
2077.7
2078.05
2079.44
2079.8
2081.43
2081.87
2083.66
2084.29
2086.08
2087.17
2088.58
2090.9
2102.88
2103
2103.14
2103.32
2103.59
2103.81
2104.23
2104.49
2105.08
2105.35
2106.15
2106.4
2107.44
2107.68
2108.96
2109.19
2110.71
2110.98
2112.66
2113.1
2114.77
2115.63
2116.96
2118.93
2134.37
2134.48
2134.61
2134.77
2135.01
2135.2
2135.57
2135.77
2136.3
2136.49
2137.21
2137.37
2138.31
2138.43
2139.61
2139.7
2141.11
2141.22
2142.78
2143.03
2144.59
2145.21
2146.44
2148.06
2167.01
2167.12
2167.23
2167.37
2167.57
2167.73
2168.05
2168.2
2168.66
2168.78
2169.42
2169.48
2170.33
2170.33
2171.41
2171.35
2172.65
2172.59
2174.04
2174.09
2175.55
2175.93
2177.07
2178.32
2200.81
2200.92
2201.02
2201.14
2201.31
2201.43
2201.7
2201.79
2202.2
2202.24
2202.8
2202.77
2203.53
2203.4
2204.38
2204.17
2205.36
2205.12
2206.46
2206.3
2207.65
2207.8
2208.86
2209.75
2235.81
2235.92
2236
2236.1
2236.24
2236.32
2236.55
2236.58
2236.92
2236.89
2237.37
2237.25
2237.91
2237.67
2238.54
2238.19
2239.26
2238.84
2240.07
2239.69
2240.93
2240.83
2241.81
2242.37
2272.02
2272.12
2272.19
2272.27
2272.38
2272.43
2272.6
2272.58
2272.86
2272.75
2273.15
2272.93
2273.51
2273.15
2273.91
2273.41
2274.38
2273.77
2274.88
2274.29
2275.42
2275.05
2275.93
2276.2
2309.47
2309.57
2309.63
2309.69
2309.76
2309.77
2309.89
2309.82
2310.03
2309.85
2310.17
2309.85
2310.33
2309.85
2310.52
2309.87
2310.72
2309.93
2310.94
2310.12
2311.14
2310.5
2311.28
2311.23
2348.19
2348.28
2348.32
2348.36
2348.4
2348.37
2348.45
2348.32
2348.45
2348.2
2348.44
2348.02
2348.41
2347.81
2348.37
2347.57
2348.33
2347.34
2348.25
2347.19
2348.12
2347.19
2347.89
2347.47
2388.18
2388.28
2388.3
2388.32
2388.33
2388.26
2388.28
2388.09
2388.16
2387.83
2387.99
2387.47
2387.76
2387.04
2387.5
2386.54
2387.19
2386.02
2386.84
2385.53
2386.39
2385.16
2385.79
2385
2429.49
2429.57
2429.58
2429.58
2429.55
2429.44
2429.41
2429.17
2429.17
2428.76
2428.83
2428.22
2428.41
2427.56
2427.91
2426.8
2427.35
2425.99
2426.7
2425.16
2425.94
2424.41
2424.99
2423.84
2472.12
2472.2
2472.19
2472.17
2472.11
2471.96
2471.87
2471.57
2471.5
2471.01
2471
2470.28
2470.37
2469.4
2469.65
2468.38
2468.82
2467.26
2467.88
2466.09
2466.8
2464.96
2465.51
2463.96
2516.09
2516.18
2516.15
2516.11
2516.01
2515.82
2515.68
2515.32
2515.17
2514.6
2514.5
2513.68
2513.68
2512.57
2512.72
2511.29
2511.62
2509.86
2510.39
2508.34
2508.99
2506.82
2507.38
2505.39
2561.44
2561.52
2561.48
2561.41
2561.28
2561.04
2560.85
2560.42
2560.21
2559.56
2559.37
2558.44
2558.34
2557.1
2557.14
2555.54
2555.78
2553.8
2554.25
2551.93
2552.53
2549.99
2550.6
2548.18
2608.16
2608.24
2608.18
2608.09
2607.92
2607.65
2607.4
2606.91
2606.63
2605.89
2605.61
2604.58
2604.38
2603.01
2602.94
2601.18
2601.31
2599.12
2599.49
2596.88
2597.45
2594.54
2595.17
2592.33
2656.28
2656.36
2656.29
2656.17
2655.97
2655.65
2655.35
2654.8
2654.44
2653.62
2653.26
2652.11
2651.82
2650.3
2650.14
2648.19
2648.24
2645.82
2646.13
2643.21
2643.79
2640.46
2641.12
2637.86
2705.81
2705.88
2705.8
2705.66
2705.42
2705.06
2704.7
2704.09
2703.66
2702.75
2702.31
2701.05
2700.66
2699.01
2698.75
2696.62
2696.59
2693.92
2694.19
2690.93
2691.57
2687.8
2688.46
2684.81
2756.76
2756.83
2756.72
2756.57
2756.29
2755.89
2755.47
2754.8
2754.3
2753.31
2752.78
2751.42
2750.94
2749.13
2748.8
2746.46
2746.38
2743.43
2743.7
2740.08
2740.73
2736.61
2737.23
2733.19
2809.12
2809.19
2809.08
2808.9
2808.58
2808.15
2807.68
2806.95
2806.38
2805.3
2804.69
2803.21
2802.66
2800.68
2800.29
2797.73
2797.62
2794.36
2794.7
2790.68
2791.32
2786.87
2787.45
2783.03
2862.92
2862.99
2862.86
2862.65
2862.3
2861.84
2861.31
2860.52
2859.89
2858.72
2858.05
2856.44
2855.83
2853.67
2853.25
2850.44
2850.35
2846.76
2847.09
2842.78
2843.35
2838.61
2839.13
2834.34
2918.15
2918.21
2918.07
2917.85
2917.46
2916.96
2916.38
2915.54
2914.84
2913.58
2912.86
2911.1
2910.47
2908.09
2907.7
2904.59
2904.55
2900.63
2900.94
2896.38
2896.86
2891.83
2892.29
2887.14
2974.8
2974.86
2974.7
2974.47
2974.05
2973.52
2972.89
2971.99
2971.24
2969.88
2969.14
2967.2
2966.6
2963.96
2963.63
2960.22
2960.17
2956.05
2956.25
2951.47
2951.86
2946.56
2946.96
2941.44
3032.87
3032.95
3032.77
3032.53
3032.07
3031.51
3030.84
3029.87
3029.11
3027.61
3026.9
3024.74
3024.19
3021.33
3020.96
3017.4
3017.25
3012.96
3013.05
3008.07
3008.36
3002.8
3003.14
2997.27
3092.37
3092.46
3092.24
3092.02
3091.51
3090.95
3090.22
3089.19
3088.43
3086.79
3086.08
3083.8
3083.18
3080.22
3079.75
3076.07
3075.81
3071.37
3071.36
3066.18
3066.38
3060.56
3060.84
3054.64
3153.29
3153.38
3153.15
3152.93
3152.37
3151.82
3151.02
3149.97
3149.15
3147.46
3146.68
3144.33
3143.63
3140.58
3140.02
3136.22
3135.86
3131.28
3131.16
3125.8
3125.91
3119.85
3120.07
3113.54
3215.63
3215.72
3215.48
3215.25
3214.67
3214.09
3213.24
3212.22
3211.29
3209.58
3208.74
3206.31
3205.54
3202.41
3201.76
3197.87
3197.41
3192.7
3192.48
3186.94
3186.97
3180.67
3180.83
3173.99
3279.38
3279.47
3279.24
3278.98
3278.4
3277.8
3276.9
3275.9
3274.83
3273.19
3272.21
3269.76
3268.92
3265.71
3264.98
3260.99
3260.44
3255.61
3255.3
3249.6
3249.54
3243.02
3243.12
3235.98
3344.55
3344.64
3344.41
3344.14
3343.55
3342.93
3342
3340.99
3339.83
3338.23
3337.1
3334.7
3333.75
3330.48
3329.67
3325.6
3324.96
3320.02
3319.62
3313.76
3313.62
3306.9
3306.94
3299.51
3411.13
3411.23
3410.99
3410.72
3410.12
3409.49
3408.54
3407.51
3406.29
3404.71
3403.46
3401.1
3400
3396.72
3395.82
3391.68
3390.96
3385.9
3385.42
3379.42
3379.2
3372.28
3372.27
3364.57
3479.14
3479.25
3479.01
3478.73
3478.12
3477.48
3476.5
3475.47
3474.19
3472.62
3471.27
3468.93
3467.71
3464.43
3463.43
3459.22
3458.42
3453.26
3452.7
3446.56
3446.27
3439.17
3439.11
3431.15
3548.6
3548.7
3548.46
3548.18
3547.56
3546.91
3545.91
3544.86
3543.53
3541.97
3540.53
3538.2
3536.87
3533.58
3532.49
3528.2
3527.33
3522.07
3521.43
3515.17
3514.8
3507.53
3507.42
3499.22
3619.5
3619.62
3619.37
3619.09
3618.45
3617.79
3616.76
3615.7
3614.32
3612.76
3611.23
3608.89
3607.48
3604.15
3602.97
3598.62
3597.68
3592.31
3591.61
3585.22
3584.78
3577.35
3577.18
3568.77
3691.88
3692
3691.74
3691.46
3690.8
3690.13
3689.06
3687.98
3686.55
3684.99
3683.36
3681.02
3679.5
3676.14
3674.88
3670.45
3669.44
3663.97
3663.19
3656.69
3656.17
3648.6
3648.38
3639.76
3765.74
3765.86
3765.59
3765.31
3764.61
3763.93
3762.82
3761.71
3760.22
3758.63
3756.9
3754.55
3752.92
3749.53
3748.19
3743.67
3742.6
3737.02
3736.18
3729.56
3728.97
3721.27
3720.99
3712.19
3841.07
3841.2
3840.91
3840.62
3839.89
3839.17
3838.02
3836.86
3835.31
3833.68
3831.84
3829.49
3827.72
3824.31
3822.85
3818.26
3817.13
3811.45
3810.53
3803.81
3803.15
3795.33
3795
3786.04
3917.84
3917.98
3917.67
3917.35
3916.59
3915.83
3914.62
3913.41
3911.79
3910.1
3908.15
3905.8
3903.86
3900.46
3898.86
3894.22
3893.01
3887.23
3886.24
3879.43
3878.7
3870.77
3870.39
3861.28
3995.98
3996.13
3995.8
3995.45
3994.66
3993.84
3992.58
3991.31
3989.61
3987.86
3985.8
3983.44
3981.32
3977.96
3976.16
3971.55
3970.2
3964.35
3963.3
3956.41
3955.61
3947.6
3947.16
3937.93
4075.36
4075.5
4075.17
4074.79
4073.97
4073.11
4071.81
4070.48
4068.71
4066.9
4064.75
4062.37
4060.08
4056.78
4054.76
4050.22
4048.68
4042.84
4041.73
4034.77
4033.9
4025.81
4025.33
4016
4155.8
4155.95
4155.62
4155.22
4154.39
4153.5
4152.18
4150.81
4149.01
4147.17
4144.95
4142.55
4140.14
4136.89
4134.66
4130.24
4128.49
4122.71
4121.48
4114.49
4113.57
4105.43
4104.93
4095.52
4237.1
4237.25
4236.94
4236.55
4235.74
4234.86
4233.55
4232.19
4230.4
4228.56
4226.33
4223.94
4221.46
4218.28
4215.89
4211.59
4209.63
4203.98
4202.59
4195.64
4194.67
4186.5
4185.98
4176.51
4319.07
4319.23
4318.96
4318.6
4317.85
4317.02
4315.78
4314.48
4312.75
4310.98
4308.8
4306.49
4304.01
4300.92
4298.45
4294.3
4292.17
4286.67
4285.13
4278.24
4277.24
4269.04
4268.53
4259.02
4401.62
4401.8
4401.57
4401.28
4400.61
4399.89
4398.76
4397.58
4395.98
4394.35
4392.29
4390.12
4387.73
4384.8
4382.35
4378.37
4376.16
4370.85
4369.19
4362.34
4361.34
4353.11
4352.62
4343.07
4484.8
4485
4484.84
4484.63
4484.06
4483.47
4482.48
4481.48
4480.06
4478.61
4476.74
4474.78
4472.57
4469.85
4467.52
4463.78
4461.59
4456.51
4454.79
4448.08
4447.05
4438.77
4438.3
4428.68
4568.87
4569.11
4568.99
4568.88
4568.41
4567.96
4567.12
4566.3
4565.06
4563.83
4562.18
4560.47
4558.47
4556.01
4553.91
4550.42
4548.4
4543.58
4541.97
4535.42
4534.47
4526.13
4525.7
4515.92
4654.35
4654.64
4654.53
4654.51
4654.1
4653.77
4653.02
4652.37
4651.26
4650.24
4648.75
4647.28
4645.48
4643.28
4641.47
4638.16
4636.54
4631.81
4630.63
4624.13
4623.55
4615.23
4614.91
4605
4741.97
4742.33
4742.16
4742.26
4741.75
4741.6
4740.73
4740.29
4739.08
4738.29
4736.79
4735.52
4733.82
4731.77
4730.34
4726.84
4726.06
4720.87
4720.63
4713.89
4713.95
4705.78
4705.79
4696.25
4832.64
4832.97
4832.86
4832.83
4832.39
4832.03
4831.25
4830.58
4829.45
4828.46
4826.99
4825.66
4823.9
4822.02
4820.43
4817.11
4816.44
4811.32
4811.36
4804.71
4805.17
4797.13
4797.6
4788.71
4927.24
4927.54
4927.4
4927.25
4926.7
4926.16
4925.21
4924.31
4922.97
4921.73
4920.03
4918.44
4916.44
4914.44
4912.4
4909.38
4908.1
4903.27
4903.18
4896.48
4897.18
4888.97
4889.82
4881
5026.49
5026.77
5026.54
5026.27
5025.53
5024.76
5023.52
5022.3
5020.59
5018.94
5016.8
5014.76
5012.29
5009.85
5007.25
5003.99
5002.02
4997.2
4996.55
4989.58
4990.34
4981.64
4982.75
4973.55
5130.86
5131.16
5130.79
5130.41
5129.43
5128.42
5126.82
5125.24
5123.04
5120.93
5118.18
5115.57
5112.4
5109.3
5105.9
5102
5099.22
5093.74
5092.49
5084.69
5085.26
5075.7
5076.93
5066.91
5240.49
5240.83
5240.29
5239.85
5238.61
5237.41
5235.41
5233.55
5230.75
5228.33
5224.75
5221.73
5217.57
5213.81
5209.45
5204.61
5200.96
5194.08
5192.14
5183
5182.93
5172.05
5173.1
5161.72
5355.17
5355.46
5354.96
5354.3
5353.01
5351.5
5349.36
5347.05
5344.06
5340.96
5337.13
5333.26
5328.64
5323.99
5318.7
5313.18
5307.87
5300.33
5296.76
5286.28
5284.86
5272.12
5272.48
5258.94
5474.39
5474.65
5474.15
5473.4
5472.03
5470.37
5468.08
5465.54
5462.32
5458.9
5454.74
5450.43
5445.33
5440.13
5434.13
5427.92
5421.32
5413.58
5407.37
5396.78
5392.89
5378.28
5377.13
5360.32
5597.39
5597.64
5597.15
5596.36
5594.97
5593.24
5590.89
5588.26
5584.9
5581.37
5576.99
5572.54
5567.13
5561.69
5555.27
5548.7
5541.46
5533.33
5525.73
5515.24
5508.39
5493.63
5489.94
5469.25
5723.36
5723.62
5723.14
5722.38
5720.96
5719.3
5716.89
5714.32
5710.92
5707.41
5703.02
5698.51
5693.14
5687.56
5681.2
5674.44
5667.15
5658.91
5650.99
5640.59
5632.7
5618.53
5612.92
5590.41
5851.41
5851.69
5851.25
5850.52
5849.18
5847.52
5845.26
5842.68
5839.45
5835.96
5831.74
5827.31
5822.08
5816.65
5810.41
5803.87
5796.71
5788.69
5781.08
5770.76
5763.69
5749.38
5744.88
5724.24
5980.71
5981.03
5980.62
5979.96
5978.68
5977.15
5974.95
5972.55
5969.42
5966.14
5962.05
5957.88
5952.82
5947.69
5941.67
5935.5
5928.6
5921.02
5913.8
5903.95
5897.46
5883.73
5879.65
5860.44
6110.51
6110.86
6110.49
6109.91
6108.72
6107.31
6105.24
6103.01
6100.04
6096.99
6093.11
6089.21
6084.41
6079.62
6073.92
6068.14
6061.63
6054.56
6047.74
6038.52
6032.48
6019.62
6015.8
5997.91
6240.11
6240.52
6240.18
6239.7
6238.58
6237.32
6235.37
6233.36
6230.55
6227.78
6224.1
6220.56
6216
6211.63
6206.24
6200.92
6194.8
6188.29
6181.89
6173.3
6167.77
6155.82
6152.23
6135.66
6368.97
6369.43
6369.06
6368.75
6367.64
6366.61
6364.72
6363
6360.29
6357.91
6354.33
6351.27
6346.85
6343.04
6337.85
6333.13
6327.34
6321.44
6315.48
6307.56
6302.42
6291.46
6288.08
6272.85
6496.55
6497.03
6496.69
6496.51
6495.44
6494.63
6492.8
6491.39
6488.74
6486.79
6483.28
6480.77
6476.41
6473.28
6468.16
6464.21
6458.59
6453.37
6447.86
6440.6
6435.84
6425.9
6422.72
6408.83
6622.42
6622.91
6622.66
6622.48
6621.61
6620.81
6619.28
6617.91
6615.65
6613.77
6610.7
6608.35
6604.45
6601.59
6596.92
6593.4
6588.19
6583.63
6578.39
6571.93
6567.52
6558.6
6555.61
6543.04
6746.21
6746.71
6746.53
6746.39
6745.67
6744.94
6743.64
6742.37
6740.42
6738.66
6736.01
6733.79
6730.4
6727.72
6723.62
6720.38
6715.69
6711.65
6706.73
6701.19
6697.05
6689.1
6686.29
6675.02
6867.61
6868.12
6868
6867.91
6867.32
6866.68
6865.56
6864.43
6862.74
6861.16
6858.84
6856.83
6853.86
6851.43
6847.8
6844.91
6840.69
6837.15
6832.6
6827.98
6823.97
6817
6814.4
6804.39
6986.36
6986.88
6986.81
6986.77
6986.28
6985.75
6984.79
6983.82
6982.35
6980.97
6978.94
6977.18
6974.56
6972.43
6969.21
6966.69
6962.92
6959.87
6955.74
6951.83
6947.98
6942.07
6939.65
6930.87
7102.24
7102.75
7102.73
7102.74
7102.35
7101.93
7101.12
7100.3
7099.03
7097.86
7096.09
7094.58
7092.29
7090.46
7087.63
7085.47
7082.13
7079.54
7075.84
7072.56
7068.93
7064.01
7061.76
7054.17
7215.05
7215.57
7215.59
7215.65
7215.35
7215.02
7214.35
7213.69
7212.61
7211.63
7210.11
7208.85
7206.86
7205.33
7202.85
7201.05
7198.11
7195.96
7192.67
7189.97
7186.64
7182.67
7180.51
7174.08
7324.67
7325.18
7325.24
7325.34
7325.12
7324.9
7324.35
7323.83
7322.93
7322.14
7320.85
7319.83
7318.12
7316.88
7314.74
7313.27
7310.71
7308.97
7306.08
7303.9
7300.94
7297.81
7295.78
7290.41
7430.97
7431.47
7431.56
7431.7
7431.57
7431.42
7431.01
7430.62
7429.89
7429.28
7428.21
7427.4
7425.96
7424.99
7423.16
7422.03
7419.82
7418.48
7415.96
7414.28
7411.67
7409.28
7407.4
7403
7533.86
7534.36
7534.47
7534.67
7534.58
7534.55
7534.22
7533.98
7533.38
7532.96
7532.08
7531.49
7530.3
7529.58
7528.05
7527.22
7525.34
7524.38
7522.22
7521
7518.76
7516.97
7515.23
7511.81
7633.3
7633.78
7633.94
7634.13
7634.17
7634.13
7633.98
7633.79
7633.39
7633.09
7632.42
7632.03
7631.07
7630.59
7629.33
7628.79
7627.22
7626.61
7624.78
7623.99
7622.08
7620.86
7619.28
7616.76
7729.24
7729.72
7729.85
7730.17
7730.12
7730.33
7730.1
7730.17
7729.8
7729.71
7729.18
7728.98
7728.23
7727.98
7726.97
7726.71
7725.42
7725.13
7723.61
7723.22
7721.61
7720.89
7719.55
7717.83
7821.66
7822.11
7822.35
7822.51
7822.79
7822.74
7822.91
7822.82
7822.76
7822.69
7822.38
7822.33
7821.79
7821.75
7820.97
7820.96
7819.94
7819.95
7818.72
7818.69
7817.36
7817.1
7815.99
7815.01
7910.58
7911.05
7911.16
7911.66
7911.51
7912.08
7911.79
7912.23
7911.97
7912.22
7911.96
7912.11
7911.73
7911.89
7911.33
7911.55
7910.78
7911.07
7910.11
7910.43
7909.37
7909.55
7908.67
7908.31
7996.01
7996.42
7996.74
7996.85
7997.35
7997.26
7997.75
7997.68
7997.94
7998.05
7998.06
7998.29
7998.11
7998.44
7998.08
7998.51
7997.97
7998.51
7997.79
7998.43
7997.62
7998.22
7997.55
7997.76
8078.01
8078.46
8078.53
8079.16
8078.99
8079.77
8079.49
8080.22
8080.06
8080.59
8080.54
8080.99
8080.93
8081.42
8081.25
8081.87
8081.53
8082.31
8081.82
8082.75
8082.15
8083.13
8082.62
8083.38
8156.58
8156.95
8157.32
8157.43
8158.03
8158
8158.64
8158.69
8159.15
8159.44
8159.68
8160.17
8160.27
8160.91
8160.89
8161.69
8161.54
8162.53
8162.23
8163.43
8163.01
8164.34
8163.98
8165.21
8231.86
8232.27
8232.37
8233.01
8232.92
8233.75
8233.62
8234.43
8234.46
8235.14
8235.32
8235.98
8236.18
8236.95
8237.08
8238.04
8238.05
8239.23
8239.1
8240.54
8240.29
8241.93
8241.68
8243.35
8303.84
8304.18
8304.54
8304.7
8305.31
8305.4
8306.07
8306.3
8306.84
8307.33
8307.73
8308.43
8308.76
8309.64
8309.9
8311
8311.15
8312.51
8312.53
8314.18
8314.07
8315.99
8315.84
8317.89
8372.67
8373.04
8373.19
8373.76
8373.83
8374.57
8374.69
8375.44
8375.71
8376.46
8376.84
8377.66
8378.07
8379.06
8379.43
8380.66
8380.94
8382.44
8382.6
8384.44
8384.45
8386.61
8386.55
8388.94
8438.39
8438.7
8439.03
8439.27
8439.8
8440.09
8440.67
8441.13
8441.67
8442.35
8442.86
8443.73
8444.23
8445.31
8445.78
8447.11
8447.51
8449.15
8449.42
8451.42
8451.54
8453.92
8453.93
8456.63
8501.12
8501.44
8501.65
8502.11
8502.37
8502.97
8503.32
8504.01
8504.47
8505.27
8505.81
8506.76
8507.33
8508.49
8509.04
8510.47
8510.96
8512.72
8513.09
8515.24
8515.46
8518.03
8518.12
8521.05
8560.93
8561.23
8561.5
8561.85
8562.26
8562.73
8563.23
8563.86
8564.41
8565.22
8565.83
8566.83
8567.46
8568.69
8569.33
8570.84
8571.42
8573.27
8573.74
8576.02
8576.31
8579.04
8579.15
8582.4
8617.95
8618.23
8618.48
8618.87
8619.25
8619.77
8620.25
8620.93
8621.5
8622.36
8623
8624.05
8624.74
8626.03
8626.73
8628.32
8628.97
8630.92
8631.46
8633.85
8634.22
8637.1
8637.26
8640.69
8672.26
8672.53
8672.76
8673.17
8673.53
8674.09
8674.57
8675.28
8675.87
8676.76
8677.44
8678.54
8679.28
8680.62
8681.38
8683.02
8683.74
8685.76
8686.38
8688.86
8689.3
8692.3
8692.51
8696.1
8723.96
8724.21
8724.47
8724.83
8725.25
8725.76
8726.29
8727
8727.63
8728.53
8729.25
8730.38
8731.16
8732.55
8733.36
8735.05
8735.84
8737.92
8738.6
8741.15
8741.65
8744.77
8745.01
8748.75
8773.16
8773.4
8773.63
8774.04
8774.4
8774.98
8775.48
8776.22
8776.85
8777.79
8778.53
8779.69
8780.51
8781.93
8782.78
8784.52
8785.36
8787.49
8788.23
8790.85
8791.4
8794.61
8794.89
8798.76
8819.96
8820.18
8820.43
8820.79
8821.2
8821.74
8822.28
8823.02
8823.67
8824.62
8825.39
8826.57
8827.42
8828.87
8829.76
8831.54
8832.41
8834.59
8835.38
8838.05
8838.65
8841.93
8842.25
8846.23
8864.46
8864.67
8864.89
8865.28
8865.66
8866.23
8866.75
8867.51
8868.17
8869.14
8869.92
8871.12
8871.99
8873.47
8874.38
8876.19
8877.1
8879.31
8880.14
8882.85
8883.5
8886.83
8887.19
8891.26
8906.75
8906.94
8907.18
8907.54
8907.94
8908.49
8909.03
8909.79
8910.46
8911.44
8912.22
8913.45
8914.33
8915.83
8916.76
8918.6
8919.53
8921.77
8922.62
8925.37
8926.04
8929.41
8929.8
8933.93
8946.93
8947.12
8947.34
8947.71
8948.09
8948.65
8949.19
8949.95
8950.62
8951.61
8952.41
8953.64
8954.53
8956.05
8956.99
8958.86
8959.79
8962.07
8962.92
8965.71
8966.38
8969.79
8970.17
8974.34
8985.1
8985.27
8985.49
8985.85
8986.23
8986.79
8987.33
8988.09
8988.77
8989.76
8990.56
8991.81
8992.7
8994.23
8995.18
8997.06
8998
9000.3
9001.15
9003.96
9004.63
9008.07
9008.44
9012.63
9021.34
9021.51
9021.72
9022.07
9022.45
9023.01
9023.54
9024.31
9024.98
9025.98
9026.78
9028.03
9028.92
9030.47
9031.42
9033.31
9034.25
9036.56
9037.41
9040.24
9040.9
9044.36
9044.73
9048.92
9055.75
9055.9
9056.11
9056.46
9056.84
9057.39
9057.92
9058.69
9059.36
9060.36
9061.15
9062.41
9063.3
9064.85
9065.8
9067.69
9068.63
9070.95
9071.8
9074.64
9075.3
9078.76
9079.12
9083.31
9088.42
9088.56
9088.76
9089.1
9089.47
9090.02
9090.55
9091.31
9091.98
9092.98
9093.77
9095.03
9095.92
9097.47
9098.41
9100.31
9101.25
9103.57
9104.42
9107.25
9107.91
9111.37
9111.74
9115.92
9119.41
9119.54
9119.74
9120.08
9120.44
9120.99
9121.51
9122.27
9122.93
9123.93
9124.72
9125.97
9126.86
9128.41
9129.35
9131.24
9132.18
9134.49
9135.34
9138.17
9138.83
9142.28
9142.64
9146.82
9148.82
9148.95
9149.14
9149.47
9149.83
9150.37
9150.88
9151.64
9152.3
9153.29
9154.07
9155.33
9156.21
9157.75
9158.69
9160.57
9161.51
9163.81
9164.66
9167.48
9168.14
9171.57
9171.93
9176.1
9176.72
9176.84
9177.03
9177.35
9177.7
9178.24
9178.75
9179.5
9180.15
9181.14
9181.91
9183.16
9184.03
9185.57
9186.5
9188.38
9189.31
9191.6
9192.45
9195.25
9195.91
9199.33
9199.68
9203.83
9203.18
9203.29
9203.48
9203.8
9204.14
9204.67
9205.17
9205.92
9206.56
9207.55
9208.31
9209.56
9210.42
9211.95
9212.87
9214.74
9215.66
9217.94
9218.78
9221.57
9222.24
9225.61
9225.97
9230.09
9228.27
9228.38
9228.56
9228.87
9229.21
9229.74
9230.23
9230.98
9231.61
9232.59
9233.34
9234.58
9235.42
9236.95
9237.86
9239.72
9240.63
9242.9
9243.73
9246.49
9247.12
9250.54
9250.87
9254.95
9252.06
9252.16
9252.34
9252.65
9252.98
9253.5
9253.99
9254.73
9255.35
9256.33
9257.06
9258.3
9259.12
9260.65
9261.53
9263.4
9264.28
9266.55
9267.35
9270.11
9270.73
9274.11
9274.44
9278.49
9274.61
9274.71
9274.88
9275.19
9275.51
9276.03
9276.5
9277.24
9277.85
9278.82
9279.54
9280.78
9281.58
9283.11
9283.97
9285.83
9286.68
9288.95
9289.72
9292.47
9293.07
9296.43
9296.74
9300.76
9295.99
9296.08
9296.25
9296.55
9296.87
9297.38
9297.84
9298.58
9299.17
9300.15
9300.84
9302.08
9302.86
9304.39
9305.21
9307.08
9307.9
9310.17
9310.9
9313.65
9314.21
9317.56
9317.85
9321.83
9316.25
9316.34
9316.5
9316.79
9317.1
9317.62
9318.06
9318.8
9319.37
9320.35
9321.02
9322.26
9323.01
9324.55
9325.33
9327.21
9327.98
9330.26
9330.94
9333.72
9334.22
9337.55
9337.82
9341.75
9335.44
9335.52
9335.68
9335.97
9336.28
9336.79
9337.22
9337.95
9338.51
9339.49
9340.13
9341.38
9342.1
9343.64
9344.39
9346.28
9347
9349.29
9349.94
9352.68
9353.15
9356.47
9356.71
9360.6
9353.61
9353.7
9353.85
9354.14
9354.43
9354.94
9355.36
9356.1
9356.63
9357.61
9358.23
9359.48
9360.17
9361.72
9362.42
9364.33
9365
9367.3
9367.87
9370.66
9371.07
9374.37
9374.59
9378.42
9370.82
9370.9
9371.05
9371.34
9371.63
9372.13
9372.54
9373.27
9373.79
9374.77
9375.37
9376.62
9377.27
9378.83
9379.5
9381.41
9382.03
9384.35
9384.88
9387.66
9388.03
9391.31
9391.51
9395.29
9387.12
9387.2
9387.34
9387.63
9387.9
9388.41
9388.8
9389.53
9390.03
9391.01
9391.59
9392.84
9393.47
9395.02
9395.66
9397.57
9398.17
9400.47
9400.96
9403.74
9404.08
9407.33
9407.52
9411.27
9402.54
9402.61
9402.75
9403.04
9403.31
9403.81
9404.19
9404.92
9405.4
9406.38
9406.93
9408.19
9408.78
9410.35
9410.95
9412.86
9413.4
9415.74
9416.17
9418.94
9419.26
9422.48
9422.66
9426.35
9417.12
9417.2
9417.33
9417.62
9417.88
9418.38
9418.74
9419.48
9419.93
9420.93
9421.44
9422.72
9423.26
9424.85
9425.38
9427.34
9427.81
9430.16
9430.55
9433.31
9433.61
9436.79
9436.96
9440.61
9430.91
9430.99
9431.12
9431.41
9431.65
9432.16
9432.5
9433.25
9433.67
9434.68
9435.16
9436.45
9436.95
9438.56
9439.04
9441.01
9441.44
9443.79
9444.15
9446.89
9447.17
9450.32
9450.48
9454.07
9443.95
9444.03
9444.15
9444.44
9444.67
9445.19
9445.51
9446.27
9446.66
9447.68
9448.12
9449.43
9449.87
9451.52
9451.94
9453.93
9454.32
9456.66
9457
9459.71
9459.98
9463.09
9463.24
9466.79
9456.27
9456.34
9456.46
9456.75
9456.97
9457.49
9457.79
9458.56
9458.91
9459.97
9460.35
9461.69
9462.09
9463.75
9464.14
9466.12
9466.48
9468.81
9469.13
9471.82
9472.07
9475.15
9475.29
9478.79
9467.89
9467.97
9468.08
9468.37
9468.57
9469.11
9469.38
9470.17
9470.49
9471.55
9471.91
9473.26
9473.63
9475.28
9475.65
9477.62
9477.97
9480.27
9480.58
9483.24
9483.48
9486.52
9486.66
9490.11
9478.86
9478.93
9479.04
9479.34
9479.53
9480.06
9480.32
9481.11
9481.42
9482.48
9482.82
9484.16
9484.51
9486.15
9486.51
9488.46
9488.8
9491.08
9491.37
9494.01
9494.24
9497.24
9497.38
9500.78
9489.19
9489.27
9489.37
9489.67
9489.85
9490.39
9490.64
9491.42
9491.72
9492.77
9493.1
9494.43
9494.77
9496.4
9496.74
9498.68
9499
9501.26
9501.54
9504.15
9504.37
9507.34
9507.47
9510.83
9498.93
9499
9499.1
9499.4
9499.58
9500.11
9500.35
9501.13
9501.42
9502.46
9502.78
9504.1
9504.43
9506.04
9506.37
9508.29
9508.6
9510.84
9511.12
9513.69
9513.91
9516.84
9516.97
9520.29
9508.09
9508.16
9508.26
9508.55
9508.73
9509.25
9509.49
9510.26
9510.54
9511.57
9511.89
9513.19
9513.52
9515.11
9515.43
9517.33
9517.64
9519.85
9520.12
9522.67
9522.87
9525.77
9525.89
9529.18
9516.69
9516.76
9516.87
9517.14
9517.33
9517.84
9518.08
9518.84
9519.12
9520.14
9520.44
9521.74
9522.05
9523.63
9523.94
9525.82
9526.12
9528.31
9528.57
9531.09
9531.29
9534.16
9534.28
9537.52
9524.77
9524.84
9524.95
9525.21
9525.42
9525.88
9526.16
9526.87
9527.17
9528.16
9528.47
9529.75
9530.05
9531.63
9531.92
9533.79
9534.07
9536.24
9536.49
9538.99
9539.18
9542.02
9542.13
9545.33
9532.34
9532.4
9532.53
9532.76
9533
9533.42
9533.73
9534.39
9534.73
9535.67
9536
9537.24
9537.56
9539.11
9539.39
9541.24
9541.51
9543.67
9543.9
9546.38
9546.56
9549.37
9549.48
9552.65
9539.43
9539.48