/*--------------------------------*- C++ -*----------------------------------*\
  =========                 |
  \\      /  F ield         | OpenFOAM: The Open Source CFD Toolbox
   \\    /   O peration     | Website:  https://openfoam.org
    \\  /    A nd           | Version:  10
     \\/     M anipulation  |
\*---------------------------------------------------------------------------*/
FoamFile
{
    format      ascii;
    class       surfaceScalarField;
    location    "0.14";
    object      phi;
}
// * * * * * * * * * * * * * * * * * * * * * * * * * * * * * * * * * * * * * //

dimensions      [1 0 -1 0 0 0 0];

internalField   nonuniform List<scalar> 
8154
(
-5.76477e-09
-2.22795e-08
-5.75862e-08
-9.32308e-08
-1.73177e-07
-2.2851e-07
-3.73002e-07
-4.58977e-07
-6.79172e-07
-8.20108e-07
-1.11023e-06
-1.3442e-06
-1.6734e-06
-2.03171e-06
-2.36577e-06
-2.8726e-06
-3.26354e-06
-3.99252e-06
-4.5707e-06
-5.51296e-06
-6.83487e-06
-7.24303e-06
-6.85512e-06
-0.000277481
-0.000832521
2.40633e-08
-0.00138775
9.61155e-08
-0.00194321
2.12655e-07
-0.00249917
3.76967e-07
-0.00305553
5.75803e-07
-0.00361275
8.21524e-07
-0.00417043
1.08576e-06
-0.00472934
1.3942e-06
-0.00528884
1.70671e-06
-0.00584983
2.05083e-06
-0.00641172
2.39668e-06
-0.006975
2.74143e-06
-0.00753998
3.11446e-06
-0.00810559
3.43118e-06
-0.00867463
3.84504e-06
-0.0092418
4.12073e-06
-0.00981658
4.56955e-06
-0.0103851
4.92417e-06
-0.0109664
5.13896e-06
-0.0115358
5.27841e-06
-0.0121255
5.11104e-06
-0.012697
4.02775e-06
-0.0132952
2.44785e-06
-0.000277503
-0.000832586
2.63562e-08
-0.00138785
1.04694e-07
-0.00194336
2.34108e-07
-0.00249935
4.09161e-07
-0.00305576
6.33824e-07
-0.00361298
8.87803e-07
-0.00417071
1.19201e-06
-0.00472962
1.49766e-06
-0.00528915
1.86253e-06
-0.00585014
2.18558e-06
-0.00641202
2.58708e-06
-0.00697532
2.88584e-06
-0.00754024
3.29241e-06
-0.00810594
3.53331e-06
-0.00867485
3.8975e-06
-0.00924218
4.09741e-06
-0.00981686
4.38384e-06
-0.0103852
5.00187e-06
-0.0109665
4.66513e-06
-0.0115355
5.2276e-06
-0.0121244
5.32386e-06
-0.0126953
5.03983e-06
-0.0132927
4.2264e-06
-0.000277527
-0.000832658
2.12474e-08
-0.00138797
8.48196e-08
-0.00194352
1.87479e-07
-0.00249956
3.29501e-07
-0.00305599
5.00541e-07
-0.00361326
7.0562e-07
-0.00417099
9.20115e-07
-0.00472995
1.16307e-06
-0.00528943
1.3897e-06
-0.00585049
1.63675e-06
-0.00641227
1.83991e-06
-0.00697567
2.04263e-06
-0.00754042
2.19022e-06
-0.00810625
2.27717e-06
-0.00867499
2.34598e-06
-0.00924239
2.19693e-06
-0.0098174
2.3357e-06
-0.0103848
1.89425e-06
-0.010967
1.77656e-06
-0.0115355
1.38579e-06
-0.012124
1.1483e-06
-0.0126944
7.16822e-07
-0.0132883
5.12234e-07
-0.000277547
-0.000832715
2.5429e-08
-0.00138807
1.01796e-07
-0.00194365
2.25501e-07
-0.00249971
3.96806e-07
-0.00305617
6.04345e-07
-0.00361345
8.54061e-07
-0.0041712
1.11705e-06
-0.00473014
1.41736e-06
-0.00528964
1.69826e-06
-0.00585066
2.01205e-06
-0.00641243
2.26598e-06
-0.00697577
2.54147e-06
-0.00754045
2.72661e-06
-0.00810627
2.88838e-06
-0.00867478
2.97752e-06
-0.00924247
2.88819e-06
-0.00981689
2.96698e-06
-0.0103846
2.27758e-06
-0.0109665
2.51259e-06
-0.0115352
1.71999e-06
-0.0121235
1.19917e-06
-0.0126941
3.76654e-07
-0.0132877
-1.74028e-07
-0.000277572
-0.000832785
3.34716e-08
-0.00138818
1.34168e-07
-0.00194381
2.98702e-07
-0.0024999
5.25454e-07
-0.0030564
8.06741e-07
-0.00361369
1.1402e-06
-0.00417148
1.50967e-06
-0.00473039
1.91606e-06
-0.00528992
2.33506e-06
-0.00585087
2.76875e-06
-0.00641267
3.18845e-06
-0.00697591
3.58943e-06
-0.00754056
3.95745e-06
-0.0081063
4.25201e-06
-0.00867464
4.51419e-06
-0.00924248
4.60564e-06
-0.00981613
4.72273e-06
-0.0103848
4.39537e-06
-0.0109656
4.36291e-06
-0.0115346
3.66933e-06
-0.0121226
3.20531e-06
-0.0126935
2.26763e-06
-0.0132878
1.34798e-06
-0.000277604
-0.000832879
3.73088e-08
-0.00138834
1.49838e-07
-0.00194402
3.33957e-07
-0.00250016
5.87466e-07
-0.00305672
9.03205e-07
-0.00361404
1.27696e-06
-0.00417186
1.69397e-06
-0.00473078
2.15095e-06
-0.00529032
2.62715e-06
-0.00585126
3.11663e-06
-0.00641303
3.59703e-06
-0.00697624
4.05203e-06
-0.00754081
4.47529e-06
-0.00810652
4.81484e-06
-0.00867468
5.11602e-06
-0.00924254
5.24019e-06
-0.00981574
5.36118e-06
-0.0103847
5.07709e-06
-0.0109649
4.96357e-06
-0.0115341
4.21162e-06
-0.0121216
3.67132e-06
-0.0126925
2.63717e-06
-0.0132864
1.61325e-06
-0.000277642
-0.000832984
4.1043e-08
-0.00138851
1.65154e-07
-0.00194427
3.68299e-07
-0.00250046
6.47916e-07
-0.00305707
9.96696e-07
-0.00361444
1.4099e-06
-0.00417229
1.87187e-06
-0.00473123
2.37897e-06
-0.00529078
2.90871e-06
-0.0058517
3.45489e-06
-0.00641345
3.99142e-06
-0.00697662
4.50326e-06
-0.00754111
4.97637e-06
-0.00810677
5.36416e-06
-0.00867476
5.6992e-06
-0.0092426
5.85271e-06
-0.00981539
5.98859e-06
-0.0103845
5.71289e-06
-0.0109641
5.59249e-06
-0.0115335
4.80575e-06
-0.0121204
4.19875e-06
-0.0126914
2.98816e-06
-0.0132847
1.79531e-06
-0.000277683
-0.000833101
4.46267e-08
-0.00138871
1.79898e-07
-0.00194454
4.01334e-07
-0.0025008
7.05831e-07
-0.00305747
1.08611e-06
-0.00361488
1.53642e-06
-0.00417277
2.04099e-06
-0.00473173
2.59467e-06
-0.00529129
3.17524e-06
-0.00585221
3.77376e-06
-0.00641392
4.36444e-06
-0.00697705
4.92855e-06
-0.00754145
5.45082e-06
-0.00810706
5.8821e-06
-0.00867486
6.25021e-06
-0.00924268
6.43169e-06
-0.00981505
6.57286e-06
-0.0103843
6.32291e-06
-0.0109632
6.16888e-06
-0.0115328
5.36806e-06
-0.0121192
4.83068e-06
-0.0126901
3.35832e-06
-0.0132828
2.01268e-06
-0.000277729
-0.000833229
4.81519e-08
-0.00138892
1.94434e-07
-0.00194483
4.33859e-07
-0.00250116
7.62728e-07
-0.0030579
1.17366e-06
-0.00361536
1.65998e-06
-0.00417331
2.20543e-06
-0.00473228
2.80378e-06
-0.00529186
3.43251e-06
-0.00585277
4.08102e-06
-0.00641445
4.72288e-06
-0.00697754
5.3374e-06
-0.00754185
5.90673e-06
-0.00810738
6.38043e-06
-0.008675
6.7803e-06
-0.00924277
6.98728e-06
-0.00981474
7.12922e-06
-0.0103841
6.8985e-06
-0.0109624
6.71934e-06
-0.0115321
5.88248e-06
-0.0121177
4.87363e-06
-0.0126887
3.68652e-06
-0.0132807
2.20376e-06
-0.000277779
-0.000833368
5.1618e-08
-0.00138915
2.08767e-07
-0.00194516
4.65919e-07
-0.00250156
8.18734e-07
-0.00305837
1.2597e-06
-0.00361589
1.78112e-06
-0.00417388
2.36611e-06
-0.00473289
3.00735e-06
-0.00529249
3.68185e-06
-0.00585338
4.37757e-06
-0.00641503
5.06742e-06
-0.00697807
5.7294e-06
-0.00754228
6.34326e-06
-0.00810773
6.85764e-06
-0.00867517
7.28868e-06
-0.00924286
7.51911e-06
-0.00981445
7.66028e-06
-0.0103839
7.44463e-06
-0.0109615
7.24437e-06
-0.0115314
6.39321e-06
-0.0121161
5.58778e-06
-0.0126871
4.03182e-06
-0.0132785
2.39966e-06
-0.000277833
-0.000833517
5.50458e-08
-0.0013894
2.22961e-07
-0.0019455
4.97687e-07
-0.00250199
8.7424e-07
-0.00305887
1.34495e-06
-0.00361646
1.90109e-06
-0.0041745
2.52494e-06
-0.00473354
3.20807e-06
-0.00529316
3.9267e-06
-0.00585404
4.66751e-06
-0.00641566
5.40247e-06
-0.00697865
6.10886e-06
-0.00754277
6.76413e-06
-0.00810812
7.31685e-06
-0.00867536
7.77826e-06
-0.00924296
8.03326e-06
-0.00981418
8.18039e-06
-0.0103836
7.96668e-06
-0.0109606
7.7386e-06
-0.0115305
6.85515e-06
-0.0121145
6.00275e-06
-0.0126854
4.35179e-06
-0.013276
2.58477e-06
-0.000277891
-0.000833677
5.84294e-08
-0.00138967
2.36991e-07
-0.00194588
5.29126e-07
-0.00250245
9.2923e-07
-0.00305942
1.4295e-06
-0.00361707
2.02016e-06
-0.00417517
2.68258e-06
-0.00473423
3.40714e-06
-0.00529387
4.16895e-06
-0.00585475
4.95336e-06
-0.00641633
5.73109e-06
-0.00697927
6.47891e-06
-0.00754329
7.17203e-06
-0.00810854
7.75956e-06
-0.00867558
8.24849e-06
-0.00924307
8.52649e-06
-0.00981392
8.68029e-06
-0.0103834
8.46445e-06
-0.0109596
8.20179e-06
-0.0115296
7.28069e-06
-0.0121128
6.36869e-06
-0.0126836
4.6473e-06
-0.0132733
2.75622e-06
-0.000277953
-0.000833847
6.17751e-08
-0.00138995
2.50851e-07
-0.00194627
5.60215e-07
-0.00250293
9.83684e-07
-0.00305999
1.51335e-06
-0.00361772
2.13843e-06
-0.00417587
2.83933e-06
-0.00473497
3.60521e-06
-0.00529463
4.4099e-06
-0.0058555
5.23719e-06
-0.00641705
6.05627e-06
-0.00697994
6.84332e-06
-0.00754385
7.57113e-06
-0.00810899
8.18973e-06
-0.00867582
8.70247e-06
-0.00924318
9.00025e-06
-0.00981365
9.15807e-06
-0.0103831
8.94262e-06
-0.0109587
8.6401e-06
-0.0115286
7.67421e-06
-0.012111
6.70116e-06
-0.0126817
4.89166e-06
-0.0132705
2.90404e-06
-0.000278018
-0.000834027
6.50879e-08
-0.00139025
2.64543e-07
-0.00194669
5.90938e-07
-0.00250345
1.03753e-06
-0.0030606
1.59633e-06
-0.0036184
2.25562e-06
-0.00417662
2.99486e-06
-0.00473576
3.802e-06
-0.00529544
4.64952e-06
-0.0058563
5.51955e-06
-0.00641781
6.37944e-06
-0.00698063
7.20448e-06
-0.00754444
7.96479e-06
-0.00810946
8.61118e-06
-0.00867608
9.14364e-06
-0.0092433
9.45714e-06
-0.00981339
9.61722e-06
-0.0103827
9.40415e-06
-0.0109577
9.05971e-06
-0.0115276
8.04948e-06
-0.0121092
7.00654e-06
-0.0126796
5.05153e-06
-0.0132676
3.03019e-06
-0.000278087
-0.000834218
6.83825e-08
-0.00139057
2.78086e-07
-0.00194714
6.21301e-07
-0.002504
1.09074e-06
-0.00306125
1.67828e-06
-0.00361913
2.37134e-06
-0.00417741
3.14848e-06
-0.00473659
3.99658e-06
-0.00529629
4.88675e-06
-0.00585714
5.79952e-06
-0.0064186
6.70027e-06
-0.00698137
7.56311e-06
-0.00754506
8.35517e-06
-0.00810995
9.02739e-06
-0.00867636
9.57611e-06
-0.00924342
9.90041e-06
-0.00981313
1.00586e-05
-0.0103823
9.84541e-06
-0.0109566
9.46013e-06
-0.0115265
8.41199e-06
-0.0121072
7.30633e-06
-0.0126775
5.27106e-06
-0.0132645
3.16156e-06
-0.000278159
-0.00083442
7.16658e-08
-0.0013909
2.91492e-07
-0.0019476
6.51305e-07
-0.00250457
1.14325e-06
-0.00306193
1.759e-06
-0.00361989
2.48512e-06
-0.00417825
3.29938e-06
-0.00473746
4.18766e-06
-0.00529718
5.11985e-06
-0.00585802
6.07504e-06
-0.00641944
7.01671e-06
-0.00698213
7.91764e-06
-0.00754571
8.74191e-06
-0.00811046
9.4399e-06
-0.00867665
1.00037e-05
-0.00924355
1.03354e-05
-0.00981287
1.04851e-05
-0.0103819
1.0259e-05
-0.0109555
9.83985e-06
-0.0115254
8.75499e-06
-0.0121051
7.58838e-06
-0.0126754
5.48909e-06
-0.0132612
3.28337e-06
-0.000278235
-0.000834631
7.49344e-08
-0.00139125
3.04718e-07
-0.00194809
6.80839e-07
-0.00250518
1.19484e-06
-0.00306264
1.83809e-06
-0.0036207
2.5963e-06
-0.00417912
3.44646e-06
-0.00473837
4.3736e-06
-0.00529811
5.34651e-06
-0.00585894
6.34309e-06
-0.00642031
7.32516e-06
-0.00698293
8.26428e-06
-0.00754639
9.12161e-06
-0.00811098
9.84652e-06
-0.00867695
1.04266e-05
-0.00924367
1.07661e-05
-0.00981261
1.09059e-05
-0.0103814
1.06629e-05
-0.0109544
1.02093e-05
-0.0115242
9.0885e-06
-0.012103
7.85993e-06
-0.0126731
5.68932e-06
-0.0132579
3.39685e-06
-0.000278314
-0.000834853
7.81671e-08
-0.00139162
3.17664e-07
-0.00194861
7.09688e-07
-0.00250581
1.24518e-06
-0.00306339
1.91503e-06
-0.00362153
2.70413e-06
-0.00418003
3.58869e-06
-0.00473933
4.55291e-06
-0.00529909
5.56464e-06
-0.0058599
6.60082e-06
-0.00642122
7.6219e-06
-0.00698376
8.59849e-06
-0.0075471
9.48921e-06
-0.00811152
1.02423e-05
-0.00867726
1.0841e-05
-0.00924378
1.11905e-05
-0.00981232
1.13224e-05
-0.010381
1.10646e-05
-0.0109532
1.05722e-05
-0.0115229
9.41825e-06
-0.0121008
8.12797e-06
-0.0126708
5.88363e-06
-0.0132545
3.50536e-06
-0.000278396
-0.000835085
8.13111e-08
-0.001392
3.30109e-07
-0.00194914
7.37387e-07
-0.00250647
1.29351e-06
-0.00306416
1.98879e-06
-0.00362241
2.8073e-06
-0.00418098
3.72445e-06
-0.00474032
4.72363e-06
-0.00530011
5.77176e-06
-0.0058609
6.84502e-06
-0.00642217
7.90275e-06
-0.00698462
8.91491e-06
-0.00754783
9.83818e-06
-0.00811208
1.062e-05
-0.00867758
1.12393e-05
-0.00924389
1.16019e-05
-0.00981203
1.173e-05
-0.0103804
1.14599e-05
-0.010952
1.09284e-05
-0.0115216
9.74776e-06
-0.0120985
8.39748e-06
-0.0126684
6.07788e-06
-0.0132509
3.61278e-06
-0.00027848
-0.000835328
8.4292e-08
-0.0013924
3.41759e-07
-0.00194969
7.63318e-07
-0.00250716
1.33885e-06
-0.00306497
2.05802e-06
-0.00362331
2.90412e-06
-0.00418197
3.8518e-06
-0.00474135
4.88354e-06
-0.00530117
5.96536e-06
-0.00586194
7.07271e-06
-0.00642316
8.16399e-06
-0.00698552
9.20872e-06
-0.0075486
1.01622e-05
-0.00811267
1.09715e-05
-0.00867791
1.16121e-05
-0.00924399
1.19907e-05
-0.00981172
1.21204e-05
-0.0103799
1.18426e-05
-0.0109508
1.12759e-05
-0.0115202
1.0076e-05
-0.0120961
8.67091e-06
-0.0126659
6.27828e-06
-0.0132472
3.72371e-06
-0.000278567
-0.000835579
8.70223e-08
-0.00139282
3.52268e-07
-0.00195027
7.86737e-07
-0.00250787
1.37998e-06
-0.00306581
2.12097e-06
-0.00362425
2.99238e-06
-0.00418298
3.96813e-06
-0.00474242
5.02976e-06
-0.00530226
6.14234e-06
-0.00586302
7.28055e-06
-0.00642418
8.40186e-06
-0.00698645
9.47539e-06
-0.00754939
1.04554e-05
-0.00811328
1.12892e-05
-0.00867826
1.19495e-05
-0.0092441
1.23447e-05
-0.00981141
1.24803e-05
-0.0103793
1.22025e-05
-0.0109496
1.16145e-05
-0.0115188
1.03955e-05
-0.0120937
8.94026e-06
-0.0126633
6.48557e-06
-0.0132434
3.84039e-06
-0.000278655
-0.00083584
8.94156e-08
-0.00139325
3.61298e-07
-0.00195086
8.06903e-07
-0.0025086
1.41563e-06
-0.00306667
2.17577e-06
-0.00362522
3.06958e-06
-0.00418403
4.0704e-06
-0.00474351
5.15882e-06
-0.00530338
6.29895e-06
-0.00586412
7.4646e-06
-0.00642523
8.61229e-06
-0.00698741
9.71053e-06
-0.0075502
1.07127e-05
-0.00811391
1.15668e-05
-0.00867863
1.22429e-05
-0.00924421
1.26524e-05
-0.0098111
1.27943e-05
-0.0103786
1.25205e-05
-0.0109483
1.19226e-05
-0.0115173
1.06855e-05
-0.0120912
9.18771e-06
-0.0126606
6.68938e-06
-0.0132396
3.95776e-06
-0.000278745
-0.000836108
9.13989e-08
-0.00139369
3.68562e-07
-0.00195146
8.23163e-07
-0.00250935
1.44462e-06
-0.00306755
2.22057e-06
-0.00362621
3.13313e-06
-0.00418511
4.15521e-06
-0.00474464
5.2666e-06
-0.00530453
6.43051e-06
-0.00586525
7.61987e-06
-0.00642631
8.79014e-06
-0.00698838
9.90898e-06
-0.00755104
1.0929e-05
-0.00811455
1.17984e-05
-0.008679
1.24855e-05
-0.00924433
1.29046e-05
-0.00981079
1.30498e-05
-0.010378
1.27783e-05
-0.010947
1.21701e-05
-0.0115158
1.09225e-05
-0.0120887
9.38871e-06
-0.0126578
6.86345e-06
-0.0132356
4.05668e-06
-0.000278837
-0.000836382
9.29204e-08
-0.00139413
3.73863e-07
-0.00195208
8.35039e-07
-0.00251012
1.46602e-06
-0.00306846
2.25382e-06
-0.00362722
3.18065e-06
-0.00418621
4.21925e-06
-0.00474579
5.34881e-06
-0.0053057
6.53184e-06
-0.00586641
7.74049e-06
-0.00642741
8.92919e-06
-0.00698938
1.00644e-05
-0.00755189
1.10978e-05
-0.00811522
1.19778e-05
-0.00867939
1.26707e-05
-0.00924446
1.3094e-05
-0.00981049
1.3238e-05
-0.0103773
1.29653e-05
-0.0109458
1.23455e-05
-0.0115142
1.10918e-05
-0.0120861
9.51858e-06
-0.012655
6.96429e-06
-0.0132315
4.10201e-06
-0.000278928
-0.000836662
9.3962e-08
-0.00139459
3.7714e-07
-0.00195271
8.42361e-07
-0.00251089
1.47945e-06
-0.00306938
2.27472e-06
-0.00362825
3.21077e-06
-0.00418732
4.26035e-06
-0.00474696
5.40238e-06
-0.0053069
6.59886e-06
-0.00586758
7.82168e-06
-0.00642852
9.024e-06
-0.00699039
1.01717e-05
-0.00755275
1.12143e-05
-0.00811589
1.21016e-05
-0.00867979
1.27952e-05
-0.00924458
1.32185e-05
-0.00981019
1.33552e-05
-0.0103767
1.30772e-05
-0.0109445
1.24439e-05
-0.0115126
1.11877e-05
-0.0120835
9.56593e-06
-0.0126521
6.95692e-06
-0.0132273
4.0694e-06
-0.00027902
-0.000836944
9.48973e-08
-0.00139505
3.79909e-07
-0.00195334
8.48507e-07
-0.00251168
1.4908e-06
-0.0030703
2.29235e-06
-0.00362929
3.23628e-06
-0.00418845
4.29554e-06
-0.00474814
5.44898e-06
-0.0053081
6.65859e-06
-0.00586877
7.89618e-06
-0.00642965
9.11439e-06
-0.00699141
1.02781e-05
-0.00755361
1.13356e-05
-0.00811656
1.22365e-05
-0.00868018
1.29392e-05
-0.0092447
1.33696e-05
-0.00980988
1.35075e-05
-0.010376
1.32309e-05
-0.0109432
1.25922e-05
-0.0115109
1.13386e-05
-0.0120809
9.69061e-06
-0.0126491
7.05287e-06
-0.0132232
4.17164e-06
-0.000279112
-0.00083723
9.54494e-08
-0.00139552
3.81095e-07
-0.00195397
8.51066e-07
-0.00251248
1.49577e-06
-0.00307124
2.29992e-06
-0.00363034
3.24727e-06
-0.0041896
4.31108e-06
-0.00474934
5.47027e-06
-0.00530933
6.68721e-06
-0.00586997
7.93393e-06
-0.0064308
9.16328e-06
-0.00699245
1.03393e-05
-0.00755449
1.14099e-05
-0.00811725
1.23239e-05
-0.00868058
1.3037e-05
-0.00924482
1.34758e-05
-0.00980958
1.36171e-05
-0.0103754
1.33419e-05
-0.0109419
1.26975e-05
-0.0115093
1.14425e-05
-0.0120782
9.78376e-06
-0.0126462
7.14217e-06
-0.013219
4.36399e-06
-0.000279203
-0.000837518
9.54985e-08
-0.00139599
3.80265e-07
-0.00195461
8.49081e-07
-0.00251328
1.49267e-06
-0.00307218
2.29483e-06
-0.00363139
3.24004e-06
-0.00419074
4.30183e-06
-0.00475055
5.4593e-06
-0.00531056
6.67536e-06
-0.00587119
7.92267e-06
-0.00643196
9.15468e-06
-0.0069935
1.03353e-05
-0.00755538
1.14126e-05
-0.00811795
1.23354e-05
-0.00868099
1.30565e-05
-0.00924494
1.35027e-05
-0.00980928
1.36474e-05
-0.0103747
1.33733e-05
-0.0109406
1.27226e-05
-0.0115076
1.1468e-05
-0.0120755
9.80295e-06
-0.0126433
7.15497e-06
-0.0132147
3.98407e-06
-0.000279294
-0.000837805
9.50711e-08
-0.00139645
3.77568e-07
-0.00195524
8.42932e-07
-0.00251407
1.48224e-06
-0.00307312
2.2784e-06
-0.00363244
3.21663e-06
-0.00419189
4.27075e-06
-0.00475175
5.42002e-06
-0.0053118
6.62793e-06
-0.0058724
7.86794e-06
-0.00643313
9.09432e-06
-0.00699456
1.02716e-05
-0.00755628
1.13485e-05
-0.00811866
1.2275e-05
-0.00868141
1.30018e-05
-0.00924506
1.34558e-05
-0.00980899
1.36067e-05
-0.010374
1.33369e-05
-0.0109393
1.26824e-05
-0.0115059
1.14267e-05
-0.0120729
9.74939e-06
-0.0126404
7.13884e-06
-0.0132104
3.94195e-06
-0.000279383
-0.000838091
9.41839e-08
-0.00139692
3.73119e-07
-0.00195587
8.32914e-07
-0.00251487
1.46507e-06
-0.00307405
2.2517e-06
-0.00363349
3.17885e-06
-0.00419303
4.2206e-06
-0.00475295
5.35638e-06
-0.00531302
6.55023e-06
-0.00587361
7.7763e-06
-0.00643429
8.98973e-06
-0.00699562
1.0156e-05
-0.00755717
1.12249e-05
-0.00811937
1.21489e-05
-0.00868184
1.28774e-05
-0.00924519
1.33386e-05
-0.00980869
1.34998e-05
-0.0103733
1.32416e-05
-0.0109381
1.25927e-05
-0.0115042
1.13405e-05
-0.0120702
9.64291e-06
-0.0126374
7.0901e-06
-0.0132062
4.19217e-06
-0.000279472
-0.000838374
9.2854e-08
-0.00139738
3.67024e-07
-0.00195649
8.19287e-07
-0.00251565
1.44165e-06
-0.00307497
2.21559e-06
-0.00363452
3.12812e-06
-0.00419416
4.15365e-06
-0.00475413
5.27178e-06
-0.00531424
6.44705e-06
-0.00587481
7.65417e-06
-0.00643544
8.84896e-06
-0.00699667
9.99783e-06
-0.00755807
1.10518e-05
-0.00812009
1.19662e-05
-0.00868227
1.26904e-05
-0.00924533
1.31553e-05
-0.00980841
1.33278e-05
-0.0103726
1.30879e-05
-0.0109368
1.24588e-05
-0.0115024
1.12286e-05
-0.0120676
9.53838e-06
-0.0126344
7.01255e-06
-0.013202
4.16533e-06
-0.000279559
-0.000838652
9.1114e-08
-0.00139783
3.5944e-07
-0.0019571
8.02395e-07
-0.00251642
1.41255e-06
-0.00307588
2.17101e-06
-0.00363553
3.06582e-06
-0.00419526
4.07185e-06
-0.0047553
5.16904e-06
-0.00531543
6.32242e-06
-0.00587599
7.50721e-06
-0.00643658
8.67962e-06
-0.00699771
9.80681e-06
-0.00755896
1.08406e-05
-0.0081208
1.17393e-05
-0.00868271
1.24523e-05
-0.00924548
1.29147e-05
-0.00980815
1.30947e-05
-0.010372
1.2874e-05
-0.0109355
1.22734e-05
-0.0115007
1.10821e-05
-0.0120651
9.42877e-06
-0.0126316
6.93358e-06
-0.0131978
4.11858e-06
-0.000279644
-0.000838925
8.9016e-08
-0.00139827
3.50592e-07
-0.0019577
7.82714e-07
-0.00251718
1.37856e-06
-0.00307677
2.11906e-06
-0.00363653
2.99339e-06
-0.00419635
3.97704e-06
-0.00475644
5.05049e-06
-0.0053166
6.17939e-06
-0.00587714
7.33955e-06
-0.00643769
8.48747e-06
-0.00699874
9.59086e-06
-0.00755982
1.06018e-05
-0.00812151
1.1481e-05
-0.00868315
1.21777e-05
-0.00924564
1.26309e-05
-0.00980791
1.28111e-05
-0.0103714
1.26042e-05
-0.0109343
1.20326e-05
-0.0114991
1.08875e-05
-0.0120626
9.28475e-06
-0.0126287
6.85332e-06
-0.0131936
4.06433e-06
-0.000279727
-0.000839191
8.66311e-08
-0.0013987
3.40768e-07
-0.00195828
7.60867e-07
-0.00251792
1.34069e-06
-0.00307764
2.06117e-06
-0.0036375
2.91266e-06
-0.00419742
3.87135e-06
-0.00475756
4.91849e-06
-0.00531775
6.02059e-06
-0.00587827
7.15426e-06
-0.00643878
8.27643e-06
-0.00699974
9.35535e-06
-0.00756067
1.03431e-05
-0.00812219
1.12022e-05
-0.00868358
1.18806e-05
-0.0092458
1.23206e-05
-0.00980768
1.24942e-05
-0.0103708
1.22927e-05
-0.0109331
1.17424e-05
-0.0114974
1.06412e-05
-0.0120601
9.10278e-06
-0.0126259
6.77159e-06
-0.0131895
4.00521e-06
-0.000279808
-0.000839449
8.40397e-08
-0.00139912
3.30288e-07
-0.00195885
7.37543e-07
-0.00251864
1.30008e-06
-0.00307848
1.99901e-06
-0.00363845
2.82574e-06
-0.00419845
3.75721e-06
-0.00475865
4.77564e-06
-0.00531887
5.84859e-06
-0.00587937
6.95376e-06
-0.00643985
8.04882e-06
-0.00700072
9.10291e-06
-0.0075615
1.00683e-05
-0.00812286
1.09087e-05
-0.008684
1.15707e-05
-0.00924596
1.19978e-05
-0.00980746
1.21623e-05
-0.0103702
1.19594e-05
-0.010932
1.14186e-05
-0.0114959
1.03471e-05
-0.0120577
8.86813e-06
-0.0126231
6.64578e-06
-0.0131855
3.92911e-06
-0.000279887
-0.000839698
8.13189e-08
-0.00139953
3.19454e-07
-0.0019594
7.13408e-07
-0.00251933
1.25787e-06
-0.0030793
1.93428e-06
-0.00363938
2.73487e-06
-0.00419946
3.63737e-06
-0.00475971
4.62499e-06
-0.00531996
5.66641e-06
-0.00588045
6.74075e-06
-0.00644089
7.80667e-06
-0.00700167
8.83474e-06
-0.00756231
9.77787e-06
-0.0081235
1.06012e-05
-0.00868441
1.12504e-05
-0.0092461
1.16689e-05
-0.00980724
1.18282e-05
-0.0103696
1.16248e-05
-0.0109309
1.10881e-05
-0.0114944
1.00322e-05
-0.0120555
8.58553e-06
-0.0126203
6.41911e-06
-0.0131815
3.81907e-06
-0.000279964
-0.000839939
7.85287e-08
-0.00139992
3.08493e-07
-0.00195993
6.88969e-07
-0.00252001
1.21497e-06
-0.0030801
1.86837e-06
-0.00364027
2.64201e-06
-0.00420044
3.51431e-06
-0.00476075
4.46944e-06
-0.00532103
5.47719e-06
-0.0058815
6.5182e-06
-0.00644191
7.55228e-06
-0.00700261
8.55189e-06
-0.0075631
9.47124e-06
-0.00812414
1.02772e-05
-0.00868481
1.0916e-05
-0.00924624
1.13303e-05
-0.00980702
1.14922e-05
-0.0103691
1.12959e-05
-0.0109298
1.07702e-05
-0.0114929
9.73066e-06
-0.0120533
8.30646e-06
-0.0126177
6.18693e-06
-0.0131777
3.67659e-06
-0.000280038
-0.000840171
7.57056e-08
-0.0014003
2.97534e-07
-0.00196045
6.64522e-07
-0.00252066
1.17193e-06
-0.00308087
1.80218e-06
-0.00364113
2.54851e-06
-0.00420139
3.3899e-06
-0.00476174
4.31141e-06
-0.00532206
5.28378e-06
-0.00588252
6.28918e-06
-0.0064429
7.2885e-06
-0.00700352
8.25625e-06
-0.00756388
9.14833e-06
-0.00812476
9.93397e-06
-0.00868521
1.05612e-05
-0.00924638
1.09725e-05
-0.00980681
1.11431e-05
-0.0103685
1.09632e-05
-0.0109288
1.04626e-05
-0.0114914
9.44995e-06
-0.0120511
8.05234e-06
-0.0126152
5.97006e-06
-0.013174
3.49089e-06
-0.000280111
-0.000840394
7.28552e-08
-0.00140066
2.86571e-07
-0.00196095
6.40073e-07
-0.00252129
1.12879e-06
-0.00308161
1.73585e-06
-0.00364196
2.45463e-06
-0.00420231
3.26465e-06
-0.00476271
4.15174e-06
-0.00532305
5.08748e-06
-0.0058835
6.05539e-06
-0.00644386
7.01726e-06
-0.0070044
7.94957e-06
-0.00756464
8.80994e-06
-0.00812536
9.56994e-06
-0.00868561
1.01807e-05
-0.00924653
1.0585e-05
-0.00980661
1.07644e-05
-0.010368
1.0605e-05
-0.0109278
1.01438e-05
-0.01149
9.1755e-06
-0.012049
7.83049e-06
-0.0126127
5.78967e-06
-0.0131705
3.31729e-06
-0.000280182
-0.000840608
6.99629e-08
-0.00140101
2.75522e-07
-0.00196143
6.15437e-07
-0.00252189
1.08527e-06
-0.00308232
1.66895e-06
-0.00364277
2.35988e-06
-0.00420318
3.13804e-06
-0.00476363
3.98997e-06
-0.005324
4.88803e-06
-0.00588444
5.8169e-06
-0.00644478
6.73917e-06
-0.00700525
7.63279e-06
-0.00756537
8.45706e-06
-0.00812595
9.18542e-06
-0.00868601
9.77272e-06
-0.00924668
1.01617e-05
-0.00980643
1.0343e-05
-0.0103675
1.01992e-05
-0.0109268
9.78046e-06
-0.0114886
8.8649e-06
-0.012047
7.60446e-06
-0.0126102
5.64379e-06
-0.0131671
3.29269e-06
-0.00028025
-0.000840813
6.6987e-08
-0.00140135
2.6419e-07
-0.00196189
5.90175e-07
-0.00252247
1.0406e-06
-0.003083
1.60032e-06
-0.00364354
2.26262e-06
-0.00420403
3.00797e-06
-0.00476452
3.82358e-06
-0.00532492
4.68262e-06
-0.00588535
5.57073e-06
-0.00644566
6.45137e-06
-0.00700607
7.30345e-06
-0.00756608
8.08793e-06
-0.00812652
8.77915e-06
-0.00868639
9.33588e-06
-0.00924684
9.69987e-06
-0.00980627
9.87193e-06
-0.010367
9.73131e-06
-0.0109258
9.34445e-06
-0.0114874
8.47193e-06
-0.012045
7.30131e-06
-0.0126078
5.433e-06
-0.0131638
3.22728e-06
-0.000280316
-0.000841009
6.38687e-08
-0.00140167
2.52296e-07
-0.00196234
5.63655e-07
-0.00252303
9.93697e-07
-0.00308366
1.52826e-06
-0.00364427
2.16044e-06
-0.00420484
2.87121e-06
-0.00476537
3.64855e-06
-0.00532579
4.46623e-06
-0.00588622
5.31129e-06
-0.0064465
6.14735e-06
-0.00700684
6.95523e-06
-0.00756675
7.69564e-06
-0.00812705
8.34621e-06
-0.00868675
8.86483e-06
-0.00924699
9.19771e-06
-0.00980611
9.34618e-06
-0.0103666
9.19903e-06
-0.0109249
8.82009e-06
-0.0114862
7.97765e-06
-0.0120431
6.87467e-06
-0.0126056
5.10089e-06
-0.0131606
3.04397e-06
-0.00028038
-0.000841196
6.08707e-08
-0.00140198
2.40856e-07
-0.00196276
5.38153e-07
-0.00252356
9.48616e-07
-0.00308428
1.45909e-06
-0.00364498
2.06249e-06
-0.00420561
2.74026e-06
-0.00476618
3.4813e-06
-0.00532663
4.25981e-06
-0.00588704
5.06461e-06
-0.0064473
5.85898e-06
-0.00700757
6.62667e-06
-0.00756738
7.32663e-06
-0.00812754
7.94202e-06
-0.00868708
8.42589e-06
-0.00924712
8.73365e-06
-0.00980594
8.85802e-06
-0.0103662
8.70776e-06
-0.0109241
8.32514e-06
-0.011485
7.51062e-06
-0.0120413
6.45092e-06
-0.0126035
4.76207e-06
-0.0131575
2.81627e-06
-0.000280441
-0.000841374
5.8211e-08
-0.00140228
2.30739e-07
-0.00196317
5.15631e-07
-0.00252406
9.08861e-07
-0.00308488
1.39829e-06
-0.00364565
1.97664e-06
-0.00420634
2.62599e-06
-0.00476695
3.33594e-06
-0.00532742
4.08165e-06
-0.00588783
4.85281e-06
-0.00644805
5.61405e-06
-0.00700825
6.34962e-06
-0.00756798
7.02078e-06
-0.008128
7.61072e-06
-0.00868738
8.07624e-06
-0.00924722
8.36932e-06
-0.00980576
8.49071e-06
-0.0103658
8.34429e-06
-0.0109232
7.97911e-06
-0.011484
7.18939e-06
-0.0120396
6.19065e-06
-0.0126015
4.55988e-06
-0.0131546
2.73809e-06
-0.0002805
-0.000841544
5.53642e-08
-0.00140256
2.19816e-07
-0.00196356
4.91302e-07
-0.00252454
8.65942e-07
-0.00308545
1.33257e-06
-0.00364629
1.88384e-06
-0.00420704
2.5025e-06
-0.00476769
3.17888e-06
-0.00532818
3.88921e-06
-0.00588858
4.62389e-06
-0.00644878
5.3492e-06
-0.00700891
6.04961e-06
-0.00756856
6.68947e-06
-0.00812844
7.25152e-06
-0.00868767
7.69771e-06
-0.00924732
7.97522e-06
-0.00980559
8.09522e-06
-0.0103654
7.95279e-06
-0.0109224
7.60799e-06
-0.0114829
6.84202e-06
-0.0120379
5.88961e-06
-0.0125996
4.30542e-06
-0.0131519
2.65517e-06
-0.000280556
-0.000841706
5.23072e-08
-0.00140283
2.07985e-07
-0.00196393
4.64939e-07
-0.002525
8.19474e-07
-0.003086
1.26135e-06
-0.0036469
1.7833e-06
-0.00420771
2.36878e-06
-0.00476839
3.00897e-06
-0.0053289
3.68121e-06
-0.00588929
4.37653e-06
-0.00644946
5.06298e-06
-0.00700953
5.72517e-06
-0.00756911
6.33081e-06
-0.00812886
6.86237e-06
-0.00868795
7.28739e-06
-0.00924742
7.54772e-06
-0.00980542
7.66676e-06
-0.0103651
7.53089e-06
-0.0109217
7.21594e-06
-0.011482
6.48142e-06
-0.0120363
5.5666e-06
-0.012598
4.0049e-06
-0.0131492
2.45468e-06
-0.000280609
-0.000841859
4.90181e-08
-0.00140308
1.9516e-07
-0.00196428
4.36356e-07
-0.00252544
7.69145e-07
-0.00308651
1.18414e-06
-0.00364748
1.67436e-06
-0.00420834
2.22401e-06
-0.00476905
2.8252e-06
-0.00532958
3.4566e-06
-0.00588997
4.10965e-06
-0.00645011
4.75456e-06
-0.00701012
5.37551e-06
-0.00756963
5.94452e-06
-0.00812927
6.44282e-06
-0.0086882
6.84504e-06
-0.00924752
7.08498e-06
-0.00980526
7.20173e-06
-0.0103647
7.07155e-06
-0.0109209
6.79473e-06
-0.011481
6.09893e-06
-0.0120347
5.27159e-06
-0.0125964
4.00367e-06
-0.0131467
2.30849e-06
-0.000280658
-0.000842003
4.54769e-08
-0.00140332
1.81266e-07
-0.00196461
4.05393e-07
-0.00252584
7.14676e-07
-0.003087
1.10052e-06
-0.00364802
1.55645e-06
-0.00420893
2.06744e-06
-0.00476967
2.62664e-06
-0.00533022
3.21428e-06
-0.0058906
3.82201e-06
-0.00645072
4.42276e-06
-0.00701068
4.99944e-06
-0.00757012
5.52975e-06
-0.00812965
5.99238e-06
-0.00868844
6.37091e-06
-0.00924761
6.58751e-06
-0.00980511
6.70189e-06
-0.0103644
6.57443e-06
-0.0109202
6.32801e-06
-0.0114802
5.65696e-06
-0.0120332
4.95898e-06
-0.0125949
3.62152e-06
-0.0131444
2.15789e-06
-0.000280704
-0.000842136
4.16711e-08
-0.00140354
1.6626e-07
-0.00196492
3.7194e-07
-0.00252622
6.55862e-07
-0.00308745
1.01019e-06
-0.00364853
1.42911e-06
-0.00420949
1.89846e-06
-0.00477025
2.4124e-06
-0.00533082
2.95314e-06
-0.00589119
3.51225e-06
-0.00645128
4.06613e-06
-0.00701119
4.59531e-06
-0.00757057
5.08531e-06
-0.00813001
5.50982e-06
-0.00868864
5.86422e-06
-0.00924771
6.05527e-06
-0.00980495
6.17173e-06
-0.0103641
6.04474e-06
-0.0109195
5.82384e-06
-0.0114794
5.15005e-06
-0.0120318
4.59494e-06
-0.0125934
3.3229e-06
-0.0131422
1.98114e-06
-0.000280746
-0.000842259
3.7605e-08
-0.00140374
1.50154e-07
-0.0019652
3.35991e-07
-0.00252657
5.92653e-07
-0.00308786
9.13057e-07
-0.00364899
1.29224e-06
-0.00420999
1.71689e-06
-0.00477078
2.18223e-06
-0.00533137
2.67268e-06
-0.00589173
3.17944e-06
-0.0064518
3.68361e-06
-0.00701167
4.16164e-06
-0.00757099
4.60997e-06
-0.00813034
4.99358e-06
-0.00868883
5.3241e-06
-0.00924781
5.48712e-06
-0.00980479
5.61136e-06
-0.0103639
5.47777e-06
-0.0109188
5.3364e-06
-0.0114789
4.9914e-06
-0.0120305
4.09224e-06
-0.012592
3.01926e-06
-0.0131402
1.79236e-06
-0.000280784
-0.00084237
3.32968e-08
-0.00140393
1.33006e-07
-0.00196545
2.97638e-07
-0.00252688
5.25183e-07
-0.00308823
8.09256e-07
-0.00364941
1.14602e-06
-0.00421045
1.52302e-06
-0.00477127
1.93642e-06
-0.00533186
2.37307e-06
-0.00589222
2.82336e-06
-0.00645226
3.27491e-06
-0.00701211
3.69767e-06
-0.00757136
4.10358e-06
-0.00813065
4.44201e-06
-0.00868898
4.75193e-06
-0.00924792
4.88346e-06
-0.00980462
5.02003e-06
-0.0103637
4.85064e-06
-0.0109182
4.82465e-06
-0.0114783
4.34944e-06
-0.0120294
3.66086e-06
-0.0125908
2.72016e-06
-0.0131384
1.61145e-06
-0.000280818
-0.000842468
2.87567e-08
-0.00140409
1.14874e-07
-0.00196568
2.57014e-07
-0.00252716
4.5368e-07
-0.00308856
6.9915e-07
-0.00364978
9.91031e-07
-0.00421086
1.31773e-06
-0.00477169
1.6761e-06
-0.0053323
2.05551e-06
-0.00589266
2.44483e-06
-0.00645267
2.84144e-06
-0.0070125
3.2041e-06
-0.00757168
3.5684e-06
-0.00813094
3.85315e-06
-0.00868911
4.15245e-06
-0.00924803
4.24532e-06
-0.0098044
4.42506e-06
-0.0103637
4.55717e-06
-0.0109177
4.15636e-06
-0.0114776
3.75978e-06
-0.0120285
3.19595e-06
-0.0125896
2.38804e-06
-0.0131368
1.41476e-06
-0.000280846
-0.000842553
2.39484e-08
-0.00140423
9.57626e-08
-0.00196587
2.14264e-07
-0.0025274
3.78553e-07
-0.00308885
5.83476e-07
-0.0036501
8.28303e-07