/*--------------------------------*- C++ -*----------------------------------*\
  =========                 |
  \\      /  F ield         | OpenFOAM: The Open Source CFD Toolbox
   \\    /   O peration     | Website:  https://openfoam.org
    \\  /    A nd           | Version:  10
     \\/     M anipulation  |
\*---------------------------------------------------------------------------*/
FoamFile
{
    format      ascii;
    class       volScalarField;
    location    "0.14";
    object      rho;
}
// * * * * * * * * * * * * * * * * * * * * * * * * * * * * * * * * * * * * * //

dimensions      [1 -3 0 0 0 0 0];

internalField   nonuniform List<scalar> 
4176
(
0.0308584
0.0308623
0.0308695
0.0308781
0.030893
0.0309075
0.0309302
0.0309501
0.0309803
0.031006
0.031043
0.0310754
0.0311174
0.031158
0.031203
0.0312545
0.0312975
0.0313654
0.0314038
0.0314893
0.0315213
0.0316265
0.0316467
0.0317609
0.0308652
0.030869
0.0308754
0.0308834
0.0308963
0.0309101
0.0309297
0.0309487
0.0309748
0.0309992
0.0310316
0.0310618
0.0310993
0.0311364
0.0311776
0.0312236
0.0312633
0.0313237
0.0313594
0.0314359
0.0314633
0.0315634
0.0315843
0.031713
0.0308846
0.0308884
0.030895
0.0309034
0.0309168
0.030931
0.0309515
0.030971
0.0309984
0.0310234
0.0310573
0.0310883
0.0311277
0.0311657
0.0312091
0.0312563
0.0312984
0.0313614
0.0313971
0.0314774
0.031505
0.0316038
0.0316228
0.0317438
0.0309128
0.0309165
0.0309231
0.0309311
0.0309442
0.0309579
0.030978
0.0309968
0.0310236
0.0310476
0.0310811
0.0311107
0.0311497
0.0311859
0.0312291
0.0312745
0.0313162
0.0313792
0.0314104
0.031493
0.0315182
0.0316157
0.0316336
0.0317456
0.0309522
0.0309558
0.0309623
0.0309704
0.0309834
0.0309973
0.0310171
0.0310362
0.0310627
0.031087
0.0311202
0.0311501
0.0311889
0.0312253
0.0312685
0.0313133
0.031357
0.0314169
0.0314517
0.0315322
0.0315591
0.0316562
0.0316755
0.0317891
0.0310014
0.0310049
0.0310113
0.0310194
0.0310321
0.0310459
0.0310653
0.0310843
0.0311103
0.0311344
0.0311669
0.0311967
0.0312347
0.0312707
0.0313135
0.0313574
0.0314014
0.0314583
0.0314965
0.031573
0.0316008
0.0316967
0.0317169
0.031832
0.0310613
0.0310645
0.031071
0.031079
0.0310915
0.0311052
0.0311245
0.0311433
0.031169
0.031193
0.0312252
0.0312546
0.0312925
0.031328
0.0313706
0.0314137
0.031458
0.0315133
0.0315524
0.031627
0.031656
0.0317504
0.0317708
0.031884
0.0311313
0.0311343
0.0311407
0.0311487
0.031161
0.0311746
0.0311936
0.0312122
0.0312376
0.0312613
0.031293
0.0313221
0.0313595
0.0313944
0.0314368
0.031479
0.0315233
0.0315768
0.0316171
0.031689
0.031719
0.0318118
0.0318327
0.0319447
0.0312119
0.0312145
0.0312209
0.0312289
0.031241
0.0312544
0.0312733
0.0312916
0.0313167
0.0313401
0.0313715
0.0314001
0.0314371
0.0314715
0.0315135
0.0315549
0.0315992
0.0316509
0.0316921
0.0317617
0.0317927
0.0318835
0.0319048
0.032015
0.0313027
0.0313049
0.0313114
0.0313193
0.0313312
0.0313445
0.0313631
0.0313812
0.0314059
0.031429
0.03146
0.0314881
0.0315247
0.0315584
0.0316001
0.0316405
0.0316847
0.0317348
0.0317767
0.0318438
0.031876
0.031964
0.0319861
0.0320944
0.0314042
0.0314059
0.0314124
0.0314203
0.031432
0.0314451
0.0314634
0.0314812
0.0315056
0.0315283
0.0315589
0.0315866
0.0316227
0.0316557
0.0316969
0.0317365
0.0317804
0.031829
0.0318714
0.0319361
0.0319691
0.0320548
0.0320772
0.0321836
0.0315161
0.0315173
0.0315237
0.0315317
0.0315431
0.031556
0.031574
0.0315916
0.0316156
0.0316379
0.031668
0.0316952
0.0317308
0.0317632
0.0318038
0.0318424
0.031886
0.0319332
0.0319759
0.0320382
0.0320718
0.0321551
0.0321778
0.032282
0.0316387
0.0316393
0.0316457
0.0316536
0.0316648
0.0316775
0.0316952
0.0317125
0.031736
0.031758
0.0317876
0.0318142
0.0318493
0.031881
0.0319211
0.0319587
0.0320019
0.0320476
0.0320906
0.0321505
0.0321847
0.0322655
0.0322883
0.0323902
0.0317719
0.0317718
0.0317782
0.0317862
0.031797
0.0318095
0.0318269
0.0318438
0.0318669
0.0318885
0.0319176
0.0319436
0.0319781
0.0320091
0.0320485
0.0320852
0.0321279
0.032172
0.0322152
0.0322727
0.0323074
0.0323855
0.0324084
0.032508
0.0319159
0.0319151
0.0319215
0.0319295
0.03194
0.0319522
0.0319693
0.0319859
0.0320085
0.0320296
0.0320581
0.0320835
0.0321175
0.0321476
0.0321864
0.032222
0.0322642
0.0323068
0.03235
0.0324051
0.0324403
0.0325159
0.0325386
0.0326357
0.0320706
0.0320691
0.0320755
0.0320835
0.0320936
0.0321056
0.0321224
0.0321385
0.0321607
0.0321812
0.0322092
0.0322339
0.0322672
0.0322965
0.0323346
0.0323692
0.0324108
0.0324519
0.0324948
0.0325475
0.0325832
0.0326556
0.032679
0.0327732
0.0322363
0.0322341
0.0322405
0.0322484
0.0322582
0.0322699
0.0322863
0.0323021
0.0323237
0.0323437
0.032371
0.032395
0.0324276
0.0324561
0.0324933
0.0325268
0.0325678
0.0326074
0.03265
0.0327003
0.0327362
0.0328059
0.0328295
0.0329208
0.0324129
0.03241
0.0324164
0.0324243
0.0324337
0.0324451
0.0324611
0.0324764
0.0324974
0.0325169
0.0325435
0.0325667
0.0325985
0.0326261
0.0326625
0.0326949
0.0327352
0.0327732
0.0328153
0.0328632
0.0328996
0.032966
0.0329901
0.0330783
0.0326007
0.0325971
0.0326034
0.0326113
0.0326203
0.0326314
0.032647
0.0326618
0.0326822
0.032701
0.032727
0.0327493
0.0327803
0.032807
0.0328425
0.0328736
0.0329131
0.0329495
0.0329912
0.0330367
0.0330732
0.0331368
0.0331611
0.0332462
0.0327995
0.0327953
0.0328016
0.0328094
0.032818
0.0328288
0.0328439
0.0328582
0.032878
0.0328961
0.0329213
0.0329428
0.0329729
0.0329986
0.0330331
0.033063
0.0331016
0.0331364
0.0331774
0.0332205
0.0332572
0.0333175
0.0333422
0.033424
0.0330097
0.033005
0.0330111
0.0330189
0.0330271
0.0330375
0.0330521
0.0330658
0.0330849
0.0331024
0.0331268
0.0331474
0.0331766
0.0332012
0.0332347
0.0332632
0.0333009
0.033334
0.0333744
0.0334151
0.0334518
0.033509
0.033534
0.0336124
0.0332311
0.033226
0.033232
0.0332396
0.0332474
0.0332574
0.0332715
0.0332846
0.0333031
0.0333198
0.0333434
0.033363
0.0333913
0.0334148
0.0334472
0.0334744
0.0335111
0.0335424
0.0335818
0.0336203
0.0336569
0.0337107
0.033736
0.033811
0.0334641
0.0334586
0.0334645
0.0334719
0.0334793
0.0334889
0.0335024
0.0335149
0.0335327
0.0335486
0.0335713
0.03359
0.0336173
0.0336396
0.0336709
0.0336966
0.0337323
0.0337618
0.0338003
0.0338365
0.0338728
0.0339234
0.0339488
0.0340203
0.0337084
0.0337028
0.0337085
0.0337157
0.0337226
0.0337318
0.0337447
0.0337566
0.0337736
0.0337887
0.0338105
0.0338282
0.0338544
0.0338756
0.0339057
0.03393
0.0339645
0.0339922
0.0340296
0.0340634
0.0340995
0.0341466
0.034172
0.0342398
0.0339644
0.0339588
0.0339643
0.0339713
0.0339777
0.0339865
0.0339988
0.03401
0.0340262
0.0340405
0.0340613
0.0340779
0.0341031
0.034123
0.0341519
0.0341747
0.0342081
0.034234
0.0342703
0.0343018
0.0343372
0.0343811
0.0344063
0.0344704
0.034232
0.0342265
0.0342317
0.0342385
0.0342445
0.0342528
0.0342645
0.034275
0.0342904
0.0343038
0.0343236
0.0343392
0.0343632
0.0343818
0.0344096
0.0344308
0.0344629
0.0344869
0.034522
0.0345511
0.0345861
0.0346264
0.0346515
0.0347117
0.0345114
0.0345062
0.0345112
0.0345176
0.0345233
0.0345311
0.0345421
0.034552
0.0345665
0.034579
0.0345978
0.0346122
0.034635
0.0346523
0.0346788
0.0346984
0.0347293
0.0347514
0.0347853
0.0348121
0.0348461
0.0348832
0.0349081
0.0349647
0.0348026
0.0347978
0.0348024
0.0348085
0.0348138
0.0348211
0.0348316
0.0348407
0.0348544
0.0348659
0.0348837
0.0348969
0.0349186
0.0349345
0.0349597
0.0349776
0.0350072
0.0350274
0.0350599
0.0350843
0.0351175
0.0351509
0.0351759
0.0352284
0.0351058
0.0351015
0.0351059
0.0351116
0.0351165
0.0351233
0.0351331
0.0351415
0.0351544
0.035165
0.0351817
0.0351938
0.0352141
0.0352286
0.0352525
0.0352687
0.0352969
0.0353151
0.0353464
0.0353685
0.0354005
0.0354304
0.0354555
0.0355035
0.0354209
0.0354173
0.0354213
0.0354266
0.0354312
0.0354375
0.0354466
0.0354543
0.0354663
0.0354759
0.0354916
0.0355025
0.0355216
0.0355346
0.0355572
0.0355716
0.0355984
0.0356146
0.0356444
0.0356641
0.0356952
0.0357213
0.0357464
0.03579
0.0357483
0.0357455
0.0357491
0.0357539
0.0357583
0.035764
0.0357724
0.0357794
0.0357905
0.0357992
0.0358138
0.0358236
0.0358415
0.0358529
0.0358742
0.0358868
0.0359121
0.0359262
0.0359547
0.0359719
0.0360017
0.0360246
0.0360492
0.0360886
0.0360879
0.0360858
0.0360891
0.0360934
0.0360975
0.0361027
0.0361104
0.0361166
0.0361269
0.0361346
0.0361482
0.0361567
0.0361734
0.0361833
0.0362033
0.0362141
0.036238
0.0362499
0.0362768
0.0362914
0.03632
0.0363396
0.0363639
0.0363988
0.03644
0.0364387
0.0364416
0.0364454
0.0364492
0.0364539
0.0364609
0.0364664
0.0364758
0.0364826
0.036495
0.0365024
0.0365178
0.0365262
0.0365449
0.0365539
0.0365763
0.0365861
0.0366115
0.0366235
0.0366507
0.0366672
0.0366912
0.0367213
0.0368044
0.0368039
0.0368064
0.0368098
0.0368133
0.0368174
0.0368237
0.0368285
0.036837
0.0368428
0.0368541
0.0368604
0.0368745
0.0368814
0.0368989
0.036906
0.0369269
0.0369346
0.0369584
0.0369678
0.0369936
0.0370066
0.0370303
0.0370559
0.0371815
0.0371818
0.0371839
0.0371869
0.0371901
0.0371937
0.0371993
0.0372034
0.037211
0.0372158
0.037226
0.0372311
0.037244
0.0372493
0.0372655
0.0372708
0.0372903
0.0372959
0.0373182
0.0373251
0.0373493
0.0373592
0.0373822
0.037403
0.0375712
0.0375722
0.0375739
0.0375764
0.0375794
0.0375825
0.0375874
0.0375908
0.0375975
0.0376014
0.0376105
0.0376144
0.0376261
0.0376298
0.0376447
0.0376482
0.0376662
0.0376697
0.0376905
0.0376947
0.0377176
0.0377241
0.0377462
0.0377623
0.0379738
0.0379754
0.0379769
0.0379789
0.0379817
0.0379842
0.0379884
0.0379912
0.037997
0.0379999
0.038008
0.0380107
0.0380211
0.0380232
0.0380367
0.0380384
0.038055
0.0380563
0.0380757
0.0380775
0.0380989
0.0381024
0.0381232
0.0381346
0.0383892
0.0383914
0.0383925
0.0383942
0.0383967
0.0383986
0.0384022
0.0384043
0.0384093
0.0384113
0.0384182
0.0384197
0.038429
0.0384295
0.0384417
0.0384416
0.0384566
0.0384557
0.0384736
0.0384727
0.0384929
0.0384932
0.038513
0.0385195
0.0388179
0.0388204
0.0388213
0.0388226
0.0388248
0.0388262
0.0388292
0.0388306
0.0388348
0.0388358
0.0388416
0.038842
0.0388501
0.038849
0.0388598
0.0388579
0.0388714
0.0388683
0.0388847
0.0388813
0.0389
0.0388972
0.0389161
0.0389179
0.0392596
0.0392624
0.039263
0.0392639
0.0392659
0.0392668
0.0392691
0.0392698
0.0392732
0.0392732
0.039278
0.0392773
0.0392841
0.0392815
0.039291
0.0392873
0.0392993
0.039294
0.0393087
0.0393026
0.0393199
0.0393139
0.0393317
0.0393293
0.0397147
0.0397177
0.0397181
0.0397187
0.0397203
0.0397207
0.0397224
0.0397224
0.039725
0.0397241
0.0397279
0.039726
0.0397316
0.0397275
0.0397356
0.0397302
0.0397407
0.0397331
0.0397465
0.0397375
0.0397534
0.039744
0.0397607
0.0397546
0.0401832
0.0401862
0.0401864
0.0401867
0.0401879
0.0401878
0.0401889
0.0401883
0.0401899
0.0401881
0.0401908
0.0401878
0.0401923
0.0401866
0.0401935
0.0401863
0.0401953
0.0401854
0.0401974
0.0401855
0.0402002
0.0401873
0.0402028
0.0401923
0.0406654
0.0406683
0.0406683
0.0406684
0.0406692
0.0406686
0.040669
0.0406677
0.0406685
0.0406658
0.0406675
0.0406633
0.0406665
0.0406594
0.0406648
0.0406559
0.0406636
0.0406514
0.0406622
0.0406474
0.040661
0.0406444
0.040659
0.0406438
0.041161
0.0411638
0.0411636
0.0411635
0.0411638
0.0411628
0.0411626
0.0411605
0.0411605
0.0411568
0.0411574
0.0411521
0.0411541
0.0411455
0.0411496
0.0411389
0.0411452
0.0411307
0.0411402
0.0411226
0.0411352
0.0411149
0.0411287
0.0411089
0.0416706
0.0416731
0.0416728
0.0416724
0.0416723
0.0416708
0.0416699
0.0416672
0.0416663
0.0416617
0.0416613
0.0416547
0.0416555
0.0416454
0.0416481
0.0416357
0.0416405
0.0416238
0.0416321
0.0416117
0.0416233
0.0415994
0.0416125
0.0415883
0.0421937
0.042196
0.0421956
0.042195
0.0421944
0.0421924
0.0421909
0.0421874
0.0421856
0.0421801
0.0421786
0.0421708
0.0421704
0.0421589
0.0421602
0.042146
0.0421494
0.0421304
0.0421374
0.042114
0.0421248
0.0420971
0.0421099
0.0420808
0.0427309
0.0427329
0.0427323
0.0427315
0.0427304
0.042728
0.0427258
0.0427216
0.042719
0.0427124
0.0427099
0.0427009
0.0426992
0.0426863
0.0426862
0.0426702
0.0426722
0.0426508
0.0426568
0.0426304
0.0426404
0.0426087
0.0426218
0.0425873
0.0432817
0.0432835
0.0432827
0.0432817
0.0432801
0.0432772
0.0432744
0.0432695
0.043266
0.0432585
0.0432549
0.0432447
0.0432418
0.0432274
0.0432259
0.043208
0.0432088
0.043185
0.0431897
0.0431602
0.0431694
0.0431334
0.0431472
0.0431075
0.0438465
0.043848
0.0438472
0.0438459
0.0438438
0.0438405
0.043837
0.0438314
0.043827
0.0438185
0.043814
0.0438025
0.0437984
0.0437824
0.0437797
0.0437599
0.0437594
0.0437331
0.043737
0.0437043
0.043713
0.0436725
0.0436867
0.043642
0.0444249
0.0444262
0.0444252
0.0444238
0.0444212
0.0444174
0.0444132
0.0444069
0.0444017
0.0443923
0.0443867
0.0443739
0.0443687
0.0443513
0.0443473
0.0443254
0.0443239
0.044295
0.044298
0.0442618
0.0442707
0.0442253
0.0442396
0.0441902
0.0450173
0.0450184
0.0450173
0.0450156
0.0450125
0.0450083
0.0450035
0.0449965
0.0449904
0.0449801
0.0449735
0.0449594
0.0449531
0.0449341
0.044929
0.044905
0.0449026
0.0448708
0.0448735
0.0448332
0.0448432
0.0447926
0.0448068
0.0447529
0.0456231
0.0456241
0.0456228
0.0456209
0.0456173
0.0456128
0.0456073
0.0455996
0.0455927
0.0455814
0.0455739
0.0455585
0.0455512
0.0455306
0.0455245
0.0454983
0.0454953
0.0454604
0.0454629
0.0454186
0.0454285
0.045374
0.0453878
0.0453296
0.0462426
0.0462435
0.0462421
0.0462399
0.0462359
0.046231
0.0462249
0.0462165
0.0462089
0.0461967
0.0461882
0.0461715
0.0461634
0.046141
0.0461342
0.0461055
0.0461022
0.0460635
0.0460674
0.0460185
0.046028
0.0459702
0.0459832
0.0459208
0.0468753
0.0468762
0.0468746
0.0468722
0.0468678
0.0468625
0.0468558
0.0468468
0.0468385
0.0468253
0.0468161
0.0467979
0.0467892
0.0467648
0.0467579
0.0467262
0.0467232
0.0466809
0.0466843
0.0466327
0.046641
0.04658
0.0465925
0.046526
0.0475214
0.0475222
0.0475205
0.0475179
0.0475132
0.0475075
0.0475002
0.0474906
0.0474816
0.0474675
0.0474578
0.047438
0.0474291
0.0474022
0.0473957
0.0473607
0.0473582
0.0473125
0.0473154
0.0472613
0.0472687
0.0472047
0.0472162
0.0471458
0.0481804
0.0481813
0.0481793
0.0481766
0.0481715
0.0481655
0.0481577
0.0481475
0.048138
0.0481226
0.0481128
0.0480909
0.0480826
0.0480526
0.0480472
0.0480088
0.048006
0.0479585
0.0479599
0.0479038
0.0479097
0.0478429
0.0478539
0.0477796
0.0488523
0.0488533
0.0488511
0.0488483
0.0488428
0.0488365
0.0488282
0.0488174
0.0488078
0.0487909
0.0487816
0.0487572
0.0487496
0.0487173
0.0487111
0.0486715
0.0486674
0.0486183
0.0486186
0.0485603
0.0485653
0.0484958
0.0485059
0.048428
0.0495367
0.0495378
0.0495352
0.0495327
0.0495266
0.0495203
0.0495114
0.0494998
0.0494905
0.049472
0.0494627
0.0494372
0.0494286
0.0493956
0.0493883
0.0493475
0.0493422
0.0492918
0.0492905
0.0492305
0.0492341
0.0491622
0.0491717
0.0490902
0.0502337
0.0502348
0.050232
0.0502296
0.0502228
0.0502167
0.0502072
0.0501955
0.0501853
0.0501666
0.0501564
0.0501303
0.0501209
0.050087
0.0500787
0.0500369
0.0500303
0.0499786
0.0499766
0.0499146
0.0499172
0.049843
0.0498516
0.049767
0.0509427
0.0509438
0.050941
0.0509383
0.0509316
0.0509251
0.0509149
0.0509039
0.0508923
0.0508736
0.0508627
0.050836
0.0508258
0.0507912
0.050782
0.0507392
0.0507317
0.0506789
0.0506752
0.0506119
0.0506133
0.050537
0.050545
0.0504572
0.0516638
0.0516649
0.0516622
0.0516593
0.0516526
0.0516458
0.0516353
0.0516244
0.0516113
0.0515936
0.0515812
0.0515544
0.0515435
0.0515083
0.0514981
0.0514546
0.0514459
0.051392
0.0513878
0.0513228
0.0513233
0.051245
0.0512521
0.0511615
0.0523967
0.0523978
0.0523951
0.052392
0.0523853
0.0523784
0.0523677
0.0523567
0.0523427
0.0523256
0.0523115
0.0522854
0.0522732
0.0522375
0.0522267
0.0521823
0.0521729
0.0521182
0.0521125
0.0520464
0.0520458
0.0519657
0.0519723
0.0518789
0.0531414
0.0531425
0.0531398
0.0531367
0.0531299
0.0531229
0.053112
0.0531009
0.0530863
0.0530695
0.0530542
0.0530287
0.0530151
0.0529793
0.0529677
0.0529227
0.0529123
0.0528567
0.0528506
0.0527829
0.0527816
0.0526999
0.0527055
0.0526098
0.0538977
0.0538988
0.0538961
0.053893
0.0538861
0.053879
0.0538679
0.0538567
0.0538417
0.053825
0.0538088
0.0537836
0.0537687
0.0537332
0.0537206
0.0536749
0.0536638
0.0536075
0.0536
0.0535317
0.0535291
0.053446
0.0534512
0.0533531
0.0546657
0.0546669
0.0546642
0.0546611
0.0546541
0.054647
0.0546356
0.0546244
0.0546089
0.0545924
0.0545753
0.0545502
0.0545343
0.0544989
0.0544852
0.054439
0.0544272
0.05437
0.0543622
0.0542925
0.0542894
0.0542049
0.0542092
0.0541093
0.0554454
0.0554466
0.0554439
0.0554407
0.0554336
0.0554264
0.0554148
0.0554034
0.0553875
0.055371
0.0553531
0.0553281
0.0553113
0.0552756
0.0552613
0.0552144
0.055202
0.0551441
0.055135
0.0550648
0.0550605
0.054975
0.0549787
0.054877
0.0562368
0.0562381
0.0562353
0.0562321
0.0562248
0.0562175
0.0562056
0.056194
0.0561777
0.0561611
0.0561423
0.0561174
0.0560996
0.0560636
0.0560484
0.0560011
0.0559879
0.0559291
0.0559197
0.0558484
0.0558435
0.055757
0.0557598
0.0556567
0.0570398
0.0570412
0.0570382
0.057035
0.0570274
0.0570199
0.0570076
0.0569958
0.0569789
0.0569621
0.0569423
0.0569174
0.0568985
0.0568622
0.0568463
0.0567982
0.0567846
0.056725
0.0567143
0.0566426
0.0566366
0.0565494
0.0565516
0.0564471
0.0578543
0.0578557
0.0578525
0.0578492
0.0578413
0.0578335
0.0578207
0.0578085
0.0577909
0.0577737
0.0577529
0.0577281
0.0577078
0.0576715
0.0576542
0.057606
0.0575918
0.057531
0.0575201
0.0574475
0.0574408
0.057353
0.0573543
0.0572489
0.0586795
0.058681
0.0586776
0.0586741
0.0586658
0.0586575
0.0586442
0.0586314
0.0586132
0.0585955
0.0585736
0.0585488
0.0585268
0.0584909
0.0584721
0.0584237
0.0584088
0.0583473
0.0583352
0.0582623
0.0582546
0.0581664
0.0581672
0.0580609
0.0595146
0.0595161
0.0595126
0.0595087
0.0595001
0.0594914
0.0594775
0.0594641
0.0594453
0.0594268
0.0594041
0.0593792
0.0593555
0.0593201
0.0592994
0.0592515
0.059235
0.0591732
0.059161
0.0590874
0.0590792
0.0589906
0.0589906
0.0588838
0.0603578
0.0603593
0.0603558
0.0603516
0.0603428
0.0603336
0.0603195
0.0603054
0.0602861
0.0602671
0.0602436
0.0602185
0.0601932
0.0601585
0.0601357
0.0600888
0.0600701
0.0600096
0.059996
0.0599223
0.0599132
0.0598245
0.059824
0.0597169
0.0612072
0.0612088
0.0612053
0.061201
0.0611923
0.0611828
0.0611686
0.0611542
0.0611348
0.0611154
0.0610916
0.0610663
0.0610402
0.061006
0.0609813
0.0609358
0.0609151
0.0608554
0.0608412
0.0607672
0.0607579
0.0606693
0.0606683
0.0605611
0.0620605
0.0620621
0.0620589
0.0620547
0.0620463
0.062037
0.0620232
0.062009
0.0619899
0.0619706
0.0619471
0.0619219
0.0618956
0.061862
0.0618362
0.0617919
0.0617697
0.0617114
0.061695
0.0616226
0.0616125
0.0615241
0.061523
0.0614159
0.0629158
0.0629176
0.0629148
0.062911
0.0629033
0.0628947
0.0628818
0.0628684
0.0628503
0.0628318
0.0628093
0.0627848
0.0627593
0.0627265
0.0627005
0.0626578
0.062634
0.0625776
0.0625597
0.0624888
0.0624784
0.0623903
0.062389
0.0622824
0.0637722
0.0637742
0.063772
0.063769
0.0637623
0.0637548
0.0637433
0.0637313
0.0637149
0.0636979
0.0636771
0.0636542
0.06363
0.0635989
0.0635738
0.063533
0.0635086
0.0634549
0.0634354
0.0633655
0.0633551
0.0632672
0.063266
0.0631597
0.0646307
0.064633
0.0646315
0.0646293
0.0646238
0.0646177
0.0646079
0.0645977
0.0645835
0.0645685
0.0645501
0.0645293
0.0645076
0.0644787
0.0644556
0.0644173
0.0643936
0.0643425
0.0643232
0.0642547
0.0642443
0.0641563
0.0641552
0.0640489
0.0654944
0.0654971
0.0654961
0.0654949
0.0654904
0.0654858
0.0654777
0.0654692
0.0654572
0.0654444
0.0654284
0.0654104
0.065391
0.0653652
0.0653445
0.0653092
0.0652875
0.0652399
0.0652215
0.0651554
0.0651458
0.0650579
0.0650571
0.0649497
0.066369
0.0663723
0.0663713
0.0663711
0.066367
0.0663637
0.0663564
0.0663497
0.0663389
0.0663283
0.066314
0.0662986
0.0662811
0.0662585
0.0662406
0.0662075
0.0661902
0.0661433
0.0661303
0.0660651
0.0660598
0.0659728
0.0659731
0.0658652
0.0672623
0.0672663
0.0672645
0.0672657
0.0672603
0.0672589
0.06725
0.0672457
0.0672334
0.0672253
0.0672104
0.0671974
0.0671801
0.0671599
0.0671452
0.0671103
0.0671019
0.0670501
0.0670473
0.0669792
0.0669812
0.0668965
0.0669005
0.0667982
0.0681835
0.0681871
0.0681861
0.0681854
0.0681811
0.0681769
0.0681692
0.0681618
0.0681505
0.06814
0.0681251
0.0681116
0.0680927
0.0680754
0.068057
0.0680258
0.0680167
0.0679669
0.0679655
0.0678999
0.0679052
0.0678224
0.0678312
0.0677366
0.069141
0.0691444
0.0691428
0.0691411
0.0691352
0.0691295
0.0691195
0.06911
0.0690958
0.0690831
0.0690647
0.0690492
0.0690267
0.0690085
0.0689843
0.0689573
0.0689399
0.0688943
0.0688909
0.0688243
0.0688317
0.0687471
0.0687594
0.0686651
0.0701413
0.0701444
0.0701419
0.070139
0.070131
0.070123
0.0701097
0.0700972
0.0700786
0.0700621
0.0700385
0.0700188
0.0699907
0.069968
0.0699377
0.0699076
0.0698836
0.0698372
0.0698276
0.0697585
0.0697659
0.0696762
0.0696909
0.0695925
0.0711878
0.0711911
0.0711872
0.0711832
0.0711727
0.0711625
0.0711454
0.0711296
0.0711057
0.0710848
0.0710547
0.0710293
0.0709941
0.0709642
0.070926
0.0708884
0.0708563
0.0708027
0.0707867
0.0707085
0.0707134
0.0706152
0.0706306
0.0705238
0.0722804
0.0722842
0.0722785
0.072274
0.072261
0.072249
0.072228
0.0722097
0.0721799
0.0721562
0.0721179
0.0720883
0.0720439
0.0720065
0.0719599
0.0719116
0.0718719
0.0718028
0.0717797
0.0716882
0.0716855
0.0715738
0.0715868
0.0714663
0.073416
0.073419
0.0734141
0.0734072
0.0733942
0.0733789
0.0733573
0.073334
0.0733036
0.0732724
0.0732335
0.0731944
0.0731471
0.0731002
0.0730454
0.0729907
0.0729333
0.0728595
0.0728193
0.0727142
0.0726971
0.0725669
0.0725716
0.0724291
0.0745878
0.0745904
0.0745854
0.0745779
0.0745642
0.0745478
0.074525
0.0744998
0.0744677
0.0744337
0.0743922
0.0743493
0.0742982
0.0742464
0.0741857
0.0741244
0.0740558
0.0739814
0.073913
0.0738106
0.0737669
0.073619
0.0736072
0.0734316
0.0757879
0.0757903
0.0757855
0.0757778
0.0757641
0.0757472
0.0757242
0.0756983
0.0756657
0.0756307
0.0755881
0.0755441
0.0754909
0.0754376
0.0753737
0.0753099
0.0752366
0.0751585
0.0750799
0.0749788
0.0749056
0.0747609
0.074722
0.0745087
0.0770073
0.0770097
0.0770052
0.0769977
0.0769843
0.0769678
0.0769451
0.0769197
0.0768872
0.0768532
0.0768103
0.0767676
0.076714
0.0766621
0.0765979
0.076535
0.0764617
0.076384
0.0763044
0.0762054
0.0761262
0.0759895
0.0759331
0.075708
0.0782377
0.0782405
0.0782361
0.0782294
0.0782163
0.0782011
0.0781786
0.0781551
0.078123
0.0780909
0.0780493
0.0780081
0.077957
0.0779059
0.0778452
0.0777837
0.0777138
0.0776386
0.0775646
0.0774662
0.077399
0.0772609
0.0772211
0.0770232
0.0794709
0.079474
0.07947
0.0794639
0.0794518
0.0794373
0.0794167
0.0793938
0.0793644
0.0793332
0.0792947
0.0792551
0.0792071
0.079159
0.0791014
0.0790437
0.0789775
0.0789072
0.0788371
0.0787452
0.0786835
0.078553
0.0785161
0.0783328
0.0807001
0.0807036
0.0807002
0.0806948
0.0806836
0.0806704
0.080651
0.0806302
0.0806022
0.080574
0.080537
0.0805015
0.0804551
0.0804119
0.0803564
0.0803042
0.0802412
0.0801765
0.0801114
0.0800257
0.0799685
0.0798479
0.0798134
0.0796437
0.0819188
0.0819229
0.0819196
0.0819154
0.0819047
0.0818936
0.0818748
0.0818569
0.08183
0.0818051
0.0817701
0.0817378
0.081695
0.0816547
0.0816043
0.0815553
0.0814977
0.0814384
0.0813774
0.0812985
0.0812468
0.0811354
0.0811032
0.0809474
0.0831229
0.0831273
0.0831238
0.0831213
0.0831108
0.0831016
0.0830841
0.0830683
0.0830433
0.0830213
0.0829884
0.0829603
0.0829191
0.0828846
0.082836
0.0827932
0.0827391
0.0826852
0.0826298
0.082557
0.0825093
0.0824081
0.0823781
0.0822358
0.0843069
0.0843117
0.0843085
0.084307
0.0842972
0.0842898
0.0842731
0.0842603
0.0842359
0.0842185
0.0841856
0.0841639
0.0841224
0.0840957
0.0840467
0.0840129
0.0839593
0.0839133
0.0838615
0.0837958
0.083752
0.0836607
0.0836328
0.0835041
0.0854684
0.0854732
0.0854708
0.0854696
0.0854612
0.0854548
0.0854399
0.0854287
0.085407
0.0853908
0.0853624
0.0853413
0.085306
0.0852795
0.0852378
0.0852052
0.0851583
0.0851167
0.0850689
0.0850104
0.0849702
0.084889
0.0848631
0.0847473
0.0866036
0.0866084
0.0866069
0.0866054
0.0865997
0.086592
0.086582
0.0865685
0.0865531
0.0865352
0.086513
0.0864919
0.0864619
0.0864379
0.0864003
0.086372
0.0863288
0.0862934
0.086248
0.0861987
0.0861614
0.0860892
0.0860653
0.0859621
0.0877112
0.0877159
0.0877148
0.0877144
0.0877084
0.087704
0.0876923
0.0876843
0.087667
0.087655
0.0876324
0.0876158
0.0875884
0.087567
0.0875345
0.0875084
0.087471
0.087439
0.0873984
0.0873574
0.0873213
0.0872585
0.0872368
0.0871455
0.0887881
0.0887929
0.0887924
0.0887918
0.0887883
0.0887825
0.0887756
0.0887651
0.0887541
0.0887398
0.0887236
0.0887066
0.0886843
0.088665
0.0886367
0.0886142
0.0885807
0.0885538
0.0885171
0.0884821
0.0884484
0.0883953
0.0883753
0.0882958
0.089834
0.0898388
0.0898386
0.089839
0.0898353
0.0898322
0.0898242
0.0898183
0.0898056
0.0897969
0.0897799
0.0897678
0.0897467
0.0897312
0.0897058
0.089687
0.0896576
0.0896346
0.0896023
0.0895734
0.0895415
0.0894975
0.0894796
0.0894109
0.0908468
0.0908516
0.090852
0.0908521
0.0908504
0.0908465
0.090842
0.0908348
0.0908269
0.090817
0.090805
0.0907929
0.0907764
0.0907624
0.0907414
0.0907251
0.0906998
0.0906808
0.0906526
0.0906281
0.0906002
0.0905646
0.0905474
0.0904895
0.0918267
0.0918315
0.0918321
0.0918328
0.0918315
0.0918293
0.0918246
0.0918205
0.0918121
0.0918061
0.0917941
0.091786
0.0917706
0.0917602
0.0917414
0.0917288
0.0917068
0.0916914
0.0916668
0.0916477
0.0916226
0.0915946
0.0915792
0.0915305
0.0927723
0.0927767
0.0927779
0.0927787
0.0927785
0.0927762
0.0927739
0.0927695
0.0927643
0.0927581
0.0927499
0.0927422
0.0927306
0.0927217
0.0927067
0.0926964
0.092678
0.092666
0.0926453
0.0926294
0.092609
0.0925872
0.0925729
0.0925332
0.0936839
0.0936885
0.0936898
0.093691
0.0936912
0.0936902
0.0936881
0.0936859
0.0936807
0.0936775
0.0936696
0.0936652
0.0936547
0.0936488
0.0936357
0.0936287
0.0936131
0.0936044
0.0935868
0.0935761
0.0935579
0.0935414
0.0935293
0.0934978
0.094561
0.0945653
0.0945667
0.0945685
0.094569
0.0945688
0.0945677
0.0945661
0.094563
0.0945602
0.0945551
0.0945513
0.0945439
0.0945395
0.0945296
0.0945245
0.0945121
0.0945064
0.0944921
0.0944839
0.0944701
0.0944584
0.0944472
0.0944241
0.0954042
0.0954086
0.0954101
0.0954123
0.095413
0.0954138
0.0954131
0.095413
0.0954105
0.0954097
0.0954053
0.0954039
0.0953977
0.0953957
0.0953875
0.0953852
0.0953751
0.0953721
0.0953605
0.0953569
0.0953447
0.095337
0.0953293
0.0953126
0.0962132
0.0962174
0.0962185
0.0962222
0.0962216
0.0962249
0.0962232
0.0962251
0.0962232
0.0962235
0.096221
0.0962205
0.0962167
0.0962162
0.0962105
0.09621
0.0962026
0.0962022
0.0961932
0.0961919
0.0961832
0.0961796
0.0961731
0.0961634
0.0969893
0.0969933
0.0969947
0.096998
0.0969988
0.0970014
0.0970015
0.0970033
0.097003
0.0970041
0.0970029
0.097004
0.0970014
0.0970027
0.0969986
0.0970004
0.0969949
0.0969969
0.0969905
0.0969928
0.0969858
0.0969855
0.0969823
0.0969774
0.0977316
0.0977359
0.0977361
0.0977421
0.0977398
0.0977466
0.0977439
0.0977492
0.0977478
0.097751
0.0977505
0.097753
0.0977519
0.0977548
0.0977527
0.097756
0.0977528
0.0977569
0.0977525
0.0977573
0.0977529
0.0977562
0.0977541
0.0977548
0.0984426
0.0984463
0.098448
0.0984513
0.0984533
0.0984561
0.0984581
0.0984605
0.0984625
0.098465
0.0984663
0.0984696
0.0984699
0.098474
0.0984733
0.0984784
0.0984767
0.0984829
0.0984808
0.0984881
0.0984852
0.0984914
0.0984915
0.0984967
0.0991211
0.0991253
0.0991251
0.0991321
0.0991295
0.0991381
0.0991353
0.0991428
0.0991421
0.0991476
0.0991486
0.0991535
0.0991548
0.0991603
0.0991612
0.0991675
0.0991678
0.0991756
0.0991748
0.0991846
0.0991834
0.0991927
0.0991933
0.0992032
0.0997701
0.0997729
0.0997762
0.0997771
0.0997833
0.0997822
0.0997896
0.0997894
0.0997953
0.0997977
0.0998016
0.0998065
0.0998091
0.0998154
0.0998173
0.0998253
0.0998265
0.0998361
0.0998373
0.0998487
0.099849
0.0998607
0.0998625
0.099876
0.100388
0.100392
0.10039
0.100401
0.100393
0.100409
0.100401
0.100415
0.100411
0.10042
0.100422
0.100429
0.100432
0.10044
0.100443
0.100452
0.100454
0.100465
0.100467
0.100481
0.100482
0.100497
0.100499
0.100516
0.100979
0.10098
0.100987
0.100981
0.100998
0.100985
0.101004
0.100996
0.101009
0.101009
0.101016
0.101022
0.101026
0.101034
0.101038
0.101048
0.101052
0.101064
0.101068
0.101082
0.101085
0.101102
0.101104
0.101124
0.101539
0.101545
0.101539
0.101557
0.10154
0.101567
0.101549
0.101571
0.101563
0.101577
0.101577
0.101587
0.101591
0.1016
0.101605
0.101616
0.101621
0.101634
0.101638
0.101654
0.101658
0.101677
0.101679
0.101702
0.102075
0.102075
0.102086
0.102073
0.102099
0.102077
0.102106
0.102091
0.10211
0.102108
0.102117
0.102123
0.10213
0.102139
0.102145
0.102156
0.102162
0.102176
0.102181
0.102198
0.102203
0.102223
0.102227
0.102251
0.102583
0.102589
0.102581
0.102602
0.102581
0.102612
0.102592
0.102617
0.102608
0.102623
0.102625
0.102635
0.10264
0.102651
0.102657
0.10267
0.102676
0.102691
0.102696
0.102715
0.10272
0.102741
0.102746
0.102771
0.103069
0.103068
0.103079
0.103066
0.103092
0.103072
0.103098
0.103086
0.103103
0.103104
0.103113
0.10312
0.103127
0.103138
0.103145
0.103157
0.103164
0.10318
0.103187
0.103206
0.103211
0.103234
0.103239
0.103266
0.103527
0.103532
0.103527
0.103544
0.103528
0.103553
0.103539
0.10356
0.103555
0.103568
0.103572
0.103582
0.103589
0.1036
0.103607
0.103621
0.103628
0.103644
0.103651
0.103671
0.103677
0.103701
0.103706
0.103735
0.103966
0.103966
0.103974
0.103967
0.103984
0.103974
0.103992
0.103987
0.104
0.104004
0.104012
0.104021
0.104028
0.104039
0.104047
0.104061
0.104069
0.104086
0.104093
0.104114
0.10412
0.104145
0.104151
0.104179
0.10438
0.104384
0.104381
0.104392
0.104386
0.104401
0.104396
0.104409
0.10441
0.104421
0.104426
0.104436
0.104444
0.104456
0.104464
0.104478
0.104486
0.104503
0.104511
0.104532
0.104539
0.104565
0.10457
0.104602
0.104776
0.104777
0.104781
0.10478
0.104789
0.104788
0.104798
0.1048
0.104808
0.104815
0.104822
0.104832
0.104839
0.104852
0.10486
0.104874
0.104883
0.104901
0.104909
0.104931
0.104938
0.104964
0.104971
0.105001
0.10515
0.105151
0.105152
0.105157
0.105158
0.105166
0.105168
0.105176
0.105181
0.105189
0.105196
0.105206
0.105214
0.105227
0.105235
0.10525
0.105258
0.105276
0.105285
0.105306
0.105314
0.105341
0.105347
0.10538
0.105505
0.105507
0.105509
0.105512
0.105516
0.10552
0.105525
0.105531
0.105537
0.105546
0.105552
0.105563
0.10557
0.105583
0.105591
0.105606
0.105615
0.105634
0.105642
0.105664
0.105672
0.105699
0.105706
0.105738
0.105842
0.105843
0.105846
0.105848
0.105852
0.105856
0.105861
0.105867
0.105873
0.105882
0.105889
0.105899
0.105907
0.10592
0.105928
0.105944
0.105952
0.105971
0.105979
0.106002
0.10601
0.106037
0.106043