/*--------------------------------*- C++ -*----------------------------------*\
  =========                 |
  \\      /  F ield         | OpenFOAM: The Open Source CFD Toolbox
   \\    /   O peration     | Website:  https://openfoam.org
    \\  /    A nd           | Version:  10
     \\/     M anipulation  |
\*---------------------------------------------------------------------------*/
FoamFile
{
    format      ascii;
    class       volScalarField;
    location    "0.14";
    object      T;
}
// * * * * * * * * * * * * * * * * * * * * * * * * * * * * * * * * * * * * * //

dimensions      [0 0 0 1 0 0 0];

internalField   nonuniform List<scalar> 
4176
(
180.35
180.35
180.365
180.385
180.418
180.448
180.499
180.54
180.609
180.66
180.747
180.807
180.912
180.984
181.099
181.19
181.306
181.428
181.533
181.702
181.776
182.009
182.023
182.324
180.36
180.359
180.374
180.396
180.429
180.461
180.512
180.554
180.624
180.677
180.766
180.828
180.934
181.009
181.126
181.22
181.339
181.464
181.571
181.743
181.817
182.061
182.077
182.409
180.387
180.387
180.401
180.423
180.454
180.486
180.535
180.577
180.645
180.697
180.783
180.844
180.948
181.021
181.137
181.227
181.346
181.466
181.571
181.738
181.809
182.048
182.064
182.407
180.439
180.439
180.453
180.474
180.506
180.537
180.586
180.629
180.696
180.748
180.834
180.895
181
181.072
181.189
181.278
181.398
181.521
181.62
181.794
181.861
182.096
182.111
182.438
180.513
180.513
180.527
180.548
180.58
180.611
180.659
180.701
180.767
180.819
180.904
180.964
181.068
181.138
181.255
181.342
181.464
181.584
181.681
181.855
181.922
182.154
182.169
182.485
180.612
180.613
180.626
180.647
180.678
180.709
180.756
180.798
180.864
180.916
180.999
181.059
181.162
181.232
181.348
181.433
181.557
181.672
181.775
181.944
182.013
182.242
182.26
182.576
180.733
180.736
180.748
180.769
180.8
180.831
180.877
180.919
180.984
181.035
181.117
181.177
181.278
181.348
181.462
181.546
181.67
181.779
181.887
182.049
182.121
182.347
182.367
182.681
180.88
180.883
180.895
180.915
180.946
180.976
181.022
181.064
181.128
181.178
181.26
181.318
181.419
181.487
181.601
181.682
181.807
181.912
182.022
182.179
182.253
182.476
182.497
182.807
181.048
181.054
181.065
181.085
181.116
181.146
181.191
181.232
181.295
181.344
181.425
181.483
181.582
181.649
181.762
181.842
181.965
182.067
182.178
182.33
182.406
182.624
182.647
182.952
181.241
181.249
181.26
181.279
181.309
181.339
181.383
181.424
181.486
181.535
181.614
181.671
181.769
181.835
181.946
182.024
182.147
182.246
182.358
182.504
182.582
182.795
182.819
183.12
181.457
181.467
181.478
181.496
181.526
181.555
181.599
181.639
181.7
181.748
181.826
181.882
181.978
182.043
182.153
182.229
182.351
182.447
182.559
182.7
182.78
182.987
183.012
183.307
181.697
181.71
181.719
181.737
181.768
181.796
181.839
181.878
181.938
181.985
182.062
182.117
182.212
182.275
182.384
182.458
182.578
182.671
182.784
182.92
183.001
183.202
183.228
183.518
181.96
181.976
181.985
182.001
182.032
182.06
182.102
182.14
182.199
182.246
182.321
182.375
182.468
182.529
182.637
182.708
182.827
182.917
183.029
183.161
183.242
183.437
183.464
183.748
182.246
182.267
182.274
182.29
182.32
182.347
182.388
182.426
182.484
182.53
182.603
182.656
182.747
182.807
182.913
182.982
183.1
183.187
183.299
183.425
183.507
183.697
183.723
184.001
182.556
182.58
182.587
182.602
182.632
182.658
182.698
182.735
182.792
182.836
182.909
182.96
183.05
183.108
183.212
183.279
183.394
183.478
183.589
183.71
183.793
183.976
184.003
184.275
182.89
182.918
182.924
182.937
182.968
182.993
183.032
183.068
183.124
183.167
183.238
183.288
183.376
183.432
183.534
183.599
183.712
183.793
183.903
184.019
184.102
184.279
184.306
184.571
183.248
183.279
183.284
183.296
183.326
183.352
183.39
183.424
183.479
183.52
183.59
183.638
183.724
183.778
183.879
183.941
184.052
184.13
184.238
184.349
184.432
184.602
184.63
184.888
183.629
183.665
183.669
183.679
183.71
183.734
183.771
183.804
183.858
183.898
183.965
184.012
184.096
184.147
184.246
184.306
184.414
184.49
184.596
184.702
184.784
184.949
184.977
185.227
184.034
184.073
184.076
184.086
184.116
184.139
184.175
184.208
184.259
184.298
184.363
184.409
184.49
184.54
184.636
184.693
184.799
184.871
184.976
185.076
185.159
185.316
185.344
185.588
184.464
184.506
184.508
184.516
184.546
184.569
184.603
184.635
184.685
184.722
184.785
184.829
184.908
184.955
185.049
185.104
185.207
185.276
185.378
185.474
185.555
185.707
185.735
185.971
184.917
184.961
184.963
184.97
184.999
185.021
185.054
185.084
185.133
185.168
185.23
185.272
185.348
185.393
185.485
185.536
185.636
185.702
185.802
185.893
185.973
186.118
186.146
186.374
185.395
185.441
185.442
185.448
185.477
185.497
185.529
185.558
185.606
185.639
185.698
185.738
185.812
185.854
185.944
185.992
186.089
186.152
186.249
186.335
186.414
186.552
186.58
186.8
185.896
185.943
185.944
185.949
185.977
185.997
186.027
186.055
186.1
186.132
186.189
186.227
186.298
186.338
186.425
186.47
186.564
186.623
186.716
186.798
186.876
187.007
187.034
187.247
186.422
186.47
186.47
186.474
186.502
186.52
186.549
186.575
186.619
186.649
186.704
186.739
186.808
186.844
186.929
186.971
187.061
187.117
187.208
187.285
187.36
187.485
187.512
187.716
186.972
187.019
187.019
187.022
187.049
187.066
187.094
187.118
187.16
187.188
187.241
187.274
187.34
187.374
187.455
187.494
187.581
187.633
187.72
187.792
187.866
187.984
188.009
188.205
187.546
187.591
187.592
187.594
187.62
187.636
187.662
187.685
187.725
187.751
187.801
187.832
187.896
187.926
188.004
188.04
188.124
188.172
188.256
188.324
188.395
188.506
188.53
188.718
188.143
188.186
188.187
188.189
188.214
188.228
188.253
188.275
188.313
188.336
188.384
188.412
188.473
188.501
188.576
188.609
188.689
188.733
188.814
188.876
188.945
189.048
189.072
189.251
188.764
188.805
188.805
188.807
188.831
188.844
188.868
188.887
188.923
188.945
188.99
189.016
189.074
189.099
189.17
189.2
189.276
189.317
189.394
189.452
189.517
189.615
189.637
189.807
189.408
189.445
189.446
189.448
189.47
189.482
189.504
189.522
189.556
189.575
189.619
189.641
189.697
189.719
189.786
189.813
189.886
189.923
189.996
190.049
190.111
190.201
190.222
190.384
190.076
190.109
190.11
190.112
190.132
190.143
190.164
190.181
190.213
190.23
190.27
190.291
190.343
190.362
190.426
190.449
190.518
190.551
190.621
190.669
190.728
190.811
190.83
190.985
190.766
190.794
190.795
190.797
190.816
190.826
190.846
190.861
190.891
190.905
190.944
190.961
191.011
191.027
191.087
191.107
191.172
191.201
191.267
191.31
191.366
191.442
191.46
191.605
191.478
191.502
191.504
191.506
191.523
191.532
191.551
191.564
191.592
191.604
191.64
191.655
191.702
191.715
191.771
191.788
191.849
191.874
191.936
191.974
192.026
192.097
192.113
192.248
192.213
192.231
192.234
192.237
192.252
192.26
192.277
192.288
192.314
192.325
192.358
192.37
192.414
192.424
192.477
192.491
192.548
192.568
192.626
192.66
192.708
192.771
192.786
192.912
192.97
192.983
192.987
192.99
193.003
193.01
193.026
193.035
193.059
193.068
193.099
193.108
193.149
193.157
193.206
193.216
193.27
193.285
193.34
193.369
193.412
193.47
193.483
193.6
193.747
193.756
193.76
193.764
193.775
193.781
193.795
193.803
193.825
193.832
193.861
193.867
193.905
193.91
193.956
193.962
194.013
194.024
194.075
194.098
194.138
194.189
194.2
194.308
194.547
194.552
194.556
194.56
194.569
194.574
194.587
194.594
194.614
194.618
194.645
194.649
194.684
194.686
194.728
194.731
194.778
194.785
194.833
194.851
194.887
194.932
194.941
195.039
195.366
195.368
195.372
195.376
195.383
195.388
195.4
195.405
195.423
195.425
195.45
195.451
195.483
195.483
195.522
195.521
195.565
195.568
195.611
195.624
195.657
195.696
195.701
195.79
196.207
196.206
196.21
196.214
196.22
196.224
196.235
196.238
196.254
196.255
196.277
196.275
196.305
196.302
196.337
196.333
196.373
196.372
196.412
196.421
196.45
196.483
196.485
196.565
197.067
197.064
197.068
197.073
197.077
197.08
197.089
197.091
197.105
197.104
197.125
197.12
197.147
197.141
197.174
197.165
197.203
197.197
197.233
197.237
197.262
197.29
197.289
197.359
197.949
197.944
197.948
197.952
197.955
197.958
197.966
197.965
197.978
197.975
197.994
197.986
198.011
198.003
198.032
198.019
198.054
198.043
198.077
198.076
198.098
198.119
198.116
198.178
198.849
198.843
198.848
198.851
198.853
198.855
198.862
198.86
198.871
198.866
198.883
198.873
198.895
198.884
198.91
198.894
198.926
198.911
198.941
198.934
198.953
198.968
198.961
199.016
199.771
199.764
199.768
199.772
199.772
199.773
199.779
199.776
199.785
199.778
199.793
199.78
199.8
199.786
199.81
199.789
199.819
199.799
199.827
199.815
199.83
199.839
199.83
199.877
200.711
200.705
200.708
200.711
200.711
200.711
200.715
200.71
200.718
200.71
200.722
200.707
200.724
200.708
200.729
200.705
200.732
200.708
200.732
200.714
200.727
200.73
200.717
200.756
201.671
201.666
201.669
201.671
201.67
201.669
201.672
201.666
201.672
201.662
201.672
201.655
201.67
201.651
201.67
201.641
201.666
201.638
201.66
201.636
201.647
201.642
201.628
201.658
202.651
202.646
202.648
202.65
202.648
202.646
202.648
202.641
202.645
202.633
202.641
202.622
202.634
202.612
202.629
202.597
202.619
202.586
202.606
202.576
202.585
202.574
202.558
202.58
203.65
203.646
203.647
203.648
203.646
203.643
203.644
203.635
203.638
203.625
203.631
203.609
203.619
203.594
203.608
203.572
203.592
203.555
203.573
203.538
203.545
203.527
203.51
203.523
204.667
204.664
204.665
204.665
204.663
204.659
204.658
204.648
204.649
204.634
204.638
204.614
204.622
204.594
204.606
204.567
204.584
204.543
204.558
204.517
204.523
204.497
204.48
204.484
205.704
205.702
205.702
205.702
205.699
205.694
205.692
205.681
205.68
205.663
205.665
205.64
205.645
205.614
205.624
205.581
205.596
205.55
205.563
205.517
205.521
205.489
205.472
205.466
206.758
206.757
206.757
206.756
206.752
206.746
206.743
206.731
206.729
206.71
206.71
206.682
206.685
206.652
206.659
206.613
206.625
206.575
206.587
206.534
206.537
206.497
206.481
206.466
207.831
207.831
207.83
207.828
207.824
207.817
207.813
207.799
207.796
207.775
207.773
207.744
207.745
207.708
207.714
207.663
207.674
207.62
207.63
207.571
207.575
207.526
207.51
207.486
208.921
208.921
208.92
208.917
208.913
208.904
208.899
208.884
208.879
208.857
208.853
208.822
208.821
208.781
208.785
208.731
208.74
208.681
208.69
208.625
208.628
208.571
208.556
208.524
210.028
210.029
210.027
210.024
210.019
210.01
210.003
209.987
209.981
209.957
209.952
209.918
209.915
209.872
209.875
209.817
209.825
209.761
209.77
209.697
209.701
209.637
209.621
209.581
211.151
211.151
211.149
211.145
211.14
211.13
211.123
211.106
211.098
211.072
211.066
211.03
211.026
210.979
210.981
210.919
210.926
210.857
210.865
210.785
210.79
210.719
210.703
210.655
212.289
212.29
212.288
212.284
212.278
212.267
212.258
212.241
212.231
212.205
212.196
212.159
212.153
212.103
212.104
212.038
212.045
211.97
211.979
211.893
211.897
211.821
211.803
211.748
213.443
213.443
213.441
213.436
213.429
213.418
213.409
213.39
213.379
213.351
213.342
213.302
213.295
213.242
213.243
213.172
213.18
213.098
213.108
213.016
213.019
212.937
212.919
212.857
214.61
214.611
214.608
214.603
214.596
214.585
214.574
214.554
214.543
214.513
214.503
214.46
214.454
214.397
214.398
214.322
214.331
214.244
214.253
214.157
214.159
214.073
214.052
213.984
215.791
215.792
215.788
215.783
215.775
215.764
215.752
215.731
215.719
215.687
215.678
215.632
215.626
215.565
215.566
215.487
215.494
215.406
215.411
215.313
215.312
215.221
215.201
215.126
216.984
216.985
216.982
216.977
216.968
216.956
216.944
216.922
216.91
216.875
216.867
216.818
216.812
216.749
216.748
216.668
216.673
216.581
216.586
216.484
216.483
216.388
216.366
216.286
218.189
218.19
218.186
218.182
218.172
218.16
218.147
218.124
218.112
218.076
218.067
218.017
218.01
217.945
217.943
217.861
217.865
217.772
217.772
217.67
217.665
217.567
217.545
217.458
219.406
219.407
219.403
219.398
219.388
219.376
219.362
219.34
219.326
219.29
219.279
219.229
219.221
219.155
219.15
219.069
219.07
218.975
218.976
218.869
218.865
218.763
218.739
218.648
220.632
220.634
220.629
220.625
220.614
220.602
220.587
220.566
220.55
220.515
220.502
220.452
220.442
220.376
220.37
220.287
220.287
220.191
220.188
220.081
220.075
219.969
219.946
219.849
221.869
221.871
221.866
221.862
221.851
221.839
221.823
221.803
221.785
221.751
221.736
221.687
221.675
221.609
221.601
221.519
221.516
221.418
221.416
221.306
221.299
221.191
221.166
221.066
223.115
223.117
223.113
223.108
223.097
223.085
223.069
223.048
223.029
222.997
222.979
222.931
222.917
222.852
222.842
222.759
222.756
222.658
222.652
222.542
222.533
222.422
222.398
222.293
224.371
224.372
224.368
224.363
224.352
224.34
224.324
224.304
224.284
224.252
224.233
224.186
224.169
224.106
224.094
224.012
224.006
223.906
223.902
223.789
223.78
223.667
223.641
223.534
225.634
225.636
225.632
225.627
225.616
225.604
225.587
225.567
225.546
225.516
225.494
225.449
225.431
225.367
225.354
225.272
225.265
225.165
225.157
225.045
225.034
224.919
224.894
224.783
226.906
226.908
226.904
226.9
226.888
226.877
226.86
226.839
226.818
226.788
226.765
226.721
226.701
226.638
226.623
226.541
226.533
226.432
226.425
226.311
226.3
226.183
226.157
226.043
228.187
228.189
228.184
228.18
228.168
228.157
228.139
228.119
228.097
228.067
228.043
227.999
227.978
227.916
227.899
227.817
227.808
227.707
227.698
227.584
227.571
227.452
227.427
227.31
229.475
229.477
229.473
229.468
229.456
229.445
229.427
229.407
229.384
229.354
229.329
229.286
229.262
229.201
229.183
229.1
229.09
228.989
228.98
228.864
228.852
228.732
228.706
228.587
230.77
230.773
230.768
230.763
230.751
230.739
230.721
230.7
230.677
230.647
230.62
230.578
230.552
230.491
230.473
230.388
230.377
230.277
230.266
230.15
230.137
230.015
229.99
229.869
232.073
232.075
232.07
232.065
232.053
232.04
232.021
232
231.976
231.946
231.917
231.875
231.848
231.788
231.767
231.683
231.671
231.57
231.559
231.442
231.429
231.307
231.281
231.159
233.38
233.382
233.377
233.372
233.359
233.346
233.326
233.305
233.279
233.25
233.218
233.178
233.147
233.089
233.065
232.983
232.969
232.868
232.854
232.739
232.725
232.602
232.576
232.453
234.691
234.693
234.688
234.682
234.669
234.655
234.635
234.613
234.587
234.556
234.524
234.484
234.45
234.395
234.366
234.287
234.271
234.169
234.157
234.042
234.027
233.904
233.878
233.755
236.002
236.004
235.999
235.993
235.98
235.965
235.945
235.923
235.896
235.865
235.831
235.793
235.756
235.703
235.671
235.595
235.575
235.476
235.461
235.348
235.331
235.209
235.184
235.06
237.311
237.313
237.307
237.301
237.289
237.275
237.254
237.232
237.205
237.175
237.14
237.103
237.064
237.014
236.979
236.907
236.882
236.787
236.772
236.658
236.642
236.521
236.496
236.372
238.613
238.615
238.61
238.605
238.593
238.58
238.56
238.539
238.512
238.484
238.449
238.414
238.374
238.327
238.289
238.221
238.194
238.103
238.085
237.972
237.956
237.836
237.812
237.688
239.908
239.91
239.906
239.902
239.89
239.879
239.86
239.842
239.816
239.791
239.757
239.725
239.685
239.642
239.603
239.539
239.51
239.422
239.405
239.293
239.277
239.158
239.135
239.012
241.194
241.197
241.194
241.19
241.181
241.171
241.155
241.139
241.116
241.094
241.062
241.034
240.996
240.957
240.918
240.859
240.83
240.747
240.726
240.62
240.603
240.484
240.463
240.34
242.476
242.478
242.476
242.474
242.466
242.459
242.445
242.432
242.411
242.393
242.365
242.341
242.306
242.271
242.236
242.181
242.154
242.074
242.057
241.953
241.938
241.819
241.799
241.675
243.757
243.76
243.758
243.758
243.751
243.746
243.734
243.724
243.705
243.691
243.666
243.645
243.615
243.583
243.554
243.501
243.48
243.404
243.39
243.288
243.277
243.16
243.142
243.017
245.048
245.051
245.049
245.05
245.043
245.041
245.028
245.021
245.003
244.992
244.969
244.951
244.926
244.893
244.873
244.819
244.809
244.729
244.727
244.626
244.622
244.507
244.493
244.371
246.359
246.363
246.361
246.362
246.355
246.352
246.34
246.332
246.315
246.303
246.282
246.263
246.241
246.208
246.193
246.136
246.135
246.054
246.061
245.958
245.963
245.851
245.843
245.73
247.703
247.706
247.704
247.703
247.697
247.69
247.678
247.667
247.65
247.633
247.614
247.589
247.569
247.534
247.518
247.463
247.461
247.381
247.388
247.29
247.298
247.187
247.186
247.079
249.089
249.092
249.089
249.086
249.078
249.068
249.054
249.038
249.019
248.996
248.974
248.943
248.919
248.879
248.857
248.803
248.79
248.716
248.718
248.617
248.628
248.514
248.517
248.409
250.523
250.526
250.522
250.517
250.506
250.493
250.475
250.454
250.43
250.4
250.372
250.334
250.303
250.257
250.224
250.166
250.143
250.063
250.058
249.952
249.962
249.84
249.846
249.73
252.008
252.011
252.005
252
251.985
251.969
251.947
251.921
251.89
251.856
251.817
251.775
251.73
251.679
251.631
251.566
251.529
251.438
251.425
251.302
251.308
251.172
251.178
251.048
253.54
253.543
253.536
253.529
253.513
253.494
253.467
253.438
253.401
253.362
253.315
253.267
253.211
253.152
253.091
253.017
252.963
252.86
252.829
252.693
252.685
252.529
252.529
252.376
255.112
255.116
255.109
255.1
255.083
255.061
255.033
255
254.96
254.917
254.865
254.81
254.747
254.681
254.609
254.528
254.454
254.346
254.29
254.144
254.111
253.932
253.918
253.729
256.714
256.717
256.711
256.701
256.683
256.661
256.631
256.598
256.555
256.511
256.454
256.399
256.33
256.261
256.182
256.096
256.011
255.901
255.817
255.675
255.607
255.416
255.377
255.143
258.334
258.338
258.332
258.323
258.303
258.284
258.251
258.22
258.176
258.131
258.077
258.016
257.953
257.874
257.802
257.707
257.623
257.51
257.418
257.278
257.185
257
256.934
256.664
259.961
259.964
259.959
259.948
259.933
259.91
259.884
259.847
259.81
259.762
259.712
259.652
259.589
259.517
259.441
259.354
259.267
259.159
259.065
258.931
258.838
258.657
258.588
258.321
261.582
261.586
261.581
261.572
261.556
261.537
261.509
261.479
261.438
261.398
261.345
261.293
261.229
261.163
261.088
261.007
260.923
260.821
260.735
260.604
260.522
260.347
260.289
260.046
263.188
263.192
263.188
263.18
263.165
263.147
263.121
263.093
263.056
263.017
262.97
262.918
262.862
262.797
262.731
262.652
262.576
262.481
262.399
262.28
262.204
262.041
261.988
261.765
264.772
264.776
264.772
264.765
264.753
264.735
264.713
264.685
264.653
264.616
264.573
264.527
264.471
264.416
264.349
264.282
264.208
264.122
264.047
263.936
263.867
263.717
263.668
263.464
266.325
266.33
266.326
266.321
266.308
266.295
266.272
266.25
266.217
266.188
266.143
266.105
266.052
266.003
265.942
265.881
265.812
265.737
265.664
265.565
265.502
265.366
265.32
265.135
267.845
267.849
267.845
267.843
267.83
267.82
267.797
267.78
267.748
267.723
267.683
267.648
267.6
267.555
267.5
267.444
267.382
267.312
267.249
267.157
267.1
266.978
266.935
266.768
269.323
269.329
269.326
269.322
269.314
269.301
269.286
269.265
269.242
269.216
269.181
269.152
269.104
269.071
269.013
268.972
268.907
268.852
268.789
268.71
268.657
268.549
268.508
268.359
270.762
270.767
270.764
270.763
270.752
270.747
270.726
270.717
270.687
270.672
270.635
270.612
270.57
270.537
270.49
270.448
270.395
270.343
270.287
270.218
270.168
270.074
270.035
269.904
272.154
272.159
272.158
272.155
272.151
272.139
272.131
272.111
272.098
272.072
272.05
272.022
271.989
271.96
271.916
271.882
271.831
271.79
271.735
271.679
271.631
271.549
271.513
271.399
273.502
273.507
273.506
273.506
273.498
273.495
273.478
273.473
273.449
273.439
273.409
273.393
273.359
273.335
273.296
273.266
273.222
273.185
273.136
273.091
273.044
272.975
272.941
272.842
274.801
274.806
274.806
274.805
274.801
274.794
274.787
274.774
274.763
274.745
274.728
274.707
274.683
274.659
274.627
274.601
274.562
274.532
274.487
274.449
274.405
274.349
274.317
274.233
276.053
276.059
276.058
276.06
276.054
276.053
276.041
276.038
276.02
276.013
275.991
275.98
275.954
275.938
275.907
275.887
275.851
275.827
275.787
275.758
275.715
275.671
275.64
275.57
277.257
277.262
277.262
277.264
277.26
277.258
277.251
277.244
277.235
277.223
277.211
277.196
277.178
277.163
277.138
277.121
277.09
277.071
277.036
277.011
276.974
276.94
276.91
276.853
278.414
278.419
278.419
278.422
278.418
278.419
278.41
278.409
278.397
278.393
278.377
278.37
278.351
278.341
278.318
278.306
278.279
278.264
278.232
278.217
278.18
278.156
278.128
278.082
279.522
279.527
279.527
279.531
279.527
279.529
279.523
279.52
279.514
279.507
279.498
279.49
279.477
279.468
279.45
279.44
279.417
279.407
279.38
279.366
279.337
279.32
279.292
279.258
280.584
280.589
280.591
280.593
280.593
280.592
280.59
280.588
280.582
280.579
280.569
280.566
280.553
280.549
280.532
280.527
280.506
280.5
280.476
280.471
280.442
280.432
280.407
280.382
281.6
281.604
281.605
281.61
281.606
281.611
281.605
281.608
281.602
281.601
281.594
281.591
281.583
281.579
281.567
281.564
281.547
281.545
281.524
281.52
281.498
281.494
281.468
281.455
282.571
282.575
282.58
282.575
282.587
282.576
282.587
282.578
282.581
282.578
282.574
282.574
282.565
282.565
282.554
282.555
282.54
282.542
282.523
282.526
282.504
282.505
282.484
282.477
283.497
283.502
283.502
283.51
283.502
283.515
283.504
283.515
283.506
283.512
283.506
283.508
283.503
283.504
283.496
283.499
283.487
283.492
283.476
283.481
283.463
283.471
283.449
283.45
284.381
284.384
284.395
284.381
284.405
284.382
284.408
284.39
284.403
284.398
284.4
284.401
284.397
284.4
284.394
284.399
284.389
284.397
284.384
284.393
284.377
284.389
284.371
284.376
285.223
285.228
285.226
285.238
285.227
285.246
285.23
285.249
285.238
285.249
285.244
285.25
285.247
285.253
285.248
285.255
285.249
285.258
285.247
285.258
285.246
285.262
285.244
285.256
286.026
286.027
286.04
286.024
286.052
286.026
286.057
286.037
286.056
286.049
286.055
286.058
286.058
286.064
286.061
286.071
286.065
286.077
286.069
286.083
286.072
286.091
286.077
286.092
286.788
286.794
286.788
286.808
286.787
286.819
286.793
286.822
286.806
286.823
286.818
286.827
286.826
286.835
286.834
286.845
286.841
286.855
286.847
286.864
286.855
286.878
286.864
286.884
287.515
287.514
287.532
287.507
287.55
287.508
287.556
287.524
287.552
287.543
287.553
287.557
287.56
287.568
287.568
287.581
287.578
287.594
287.589
287.607
287.599
287.625
287.614
287.636
288.203
288.212
288.196
288.235
288.188
288.25
288.198
288.248
288.22
288.246
288.239
288.252
288.252
288.264
288.265
288.278
288.277
288.295
288.29
288.311
288.304
288.331
288.322
288.348
288.861
288.856
288.883
288.842
288.909
288.841
288.912
288.864
288.906
288.89
288.906
288.909
288.914
288.924
288.927
288.941
288.941
288.96
288.958
288.98
288.974
289.002
288.995
289.023
289.48
289.492
289.468
289.521
289.455
289.537
289.469
289.533
289.497
289.529
289.52
289.536
289.538
289.551
289.553
289.569
289.57
289.59
289.587
289.612
289.607
289.637
289.629
289.662
290.074
290.068
290.098
290.052
290.124
290.052
290.127
290.077
290.121
290.105
290.122
290.127
290.133
290.145
290.149
290.165
290.167
290.187
290.188
290.213
290.209
290.24
290.231
290.269
290.63
290.642
290.619
290.668
290.609
290.683
290.624
290.681
290.652
290.68
290.675
290.69
290.694
290.708
290.712
290.729
290.732
290.753
290.753
290.78
290.776
290.809
290.8
290.84
291.166
291.161
291.185
291.15
291.206
291.154
291.21
291.177
291.209
291.202
291.215
291.223
291.229
291.242
291.247
291.264
291.268
291.29
291.291
291.319
291.316
291.35
291.344
291.381
291.666
291.674
291.66
291.693
291.657
291.705
291.671
291.708
291.693
291.713
291.714
291.727
291.733
291.748
291.753
291.771
291.775
291.797
291.799
291.826
291.825
291.86
291.85
291.895
292.147
292.145
292.159
292.142
292.173
292.149
292.18
292.167
292.185
292.187
292.197
292.207
292.213
292.227
292.233
292.251
292.256
292.279
292.281
292.31
292.308
292.344
292.34
292.378
292.597
292.601
292.596
292.612
292.6
292.621
292.612
292.63
292.629
292.641
292.646
292.658
292.666
292.68
292.687
292.705
292.71
292.732
292.736
292.764
292.764
292.8
292.791
292.838
293.027
293.029
293.034
293.033
293.043
293.041
293.052
293.055
293.063
293.071
293.078
293.09
293.096
293.11
293.117
293.136
293.142
293.165
293.168
293.198
293.197
293.233
293.229
293.27
293.432
293.433
293.436
293.439
293.442
293.448
293.452
293.46
293.466
293.475
293.482
293.494
293.502
293.517
293.524
293.542
293.548
293.571
293.574
293.603
293.604
293.64
293.634
293.68
293.818
293.822
293.821
293.828
293.828
293.836
293.839
293.848
293.853
293.863
293.869
293.881
293.888
293.902
293.909
293.928
293.935
293.958
293.963
293.992
293.992
294.028
294.024
294.067
294.182
294.181
294.186
294.185
294.193
294.194
294.202
294.207
294.215
294.223
294.231
294.243
294.251
294.266
294.273
294.291
294.298
294.321
294.325
294.354
294.355
294.391
294.386
294.431
294.528
294.531
294.53
294.537
294.537
294.546
294.548
294.557
294.562
294.572
294.578
294.59
294.597
294.611
294.619
294.638
294.644
294.668
294.673
294.701
294.702
294.738
294.735
294.778
294.853
294.853
294.857
294.857
294.864
294.866
294.873
294.878
294.886
294.894
294.902
294.914
294.922
294.937
294.944
294.962
294.969
294.992
294.996
295.026
295.026
295.061
295.058
295.101
295.164
295.167
295.167
295.172
295.173
295.181
295.184
295.192
295.197
295.207
295.214
295.225
295.232
295.246
295.254
295.273
295.28
295.303
295.308
295.336
295.338
295.372
295.369
295.413
295.454
295.455
295.458
295.459
295.464
295.468
295.474
295.48
295.486
295.495
295.503
295.515
295.523
295.538
295.545
295.563
295.569
295.592
295.596
295.626
295.627
295.66
295.658
295.701
295.735
295.736
295.738
295.742
295.744
295.75
295.754
295.761
295.767
295.776
295.782
295.793
295.8
295.815
295.823
295.842
295.848
295.871
295.876
295.904
295.907
295.939
295.936
295.98
295.994
295.995
295.997
295.999
296.003
296.007
296.012
296.019
296.025
296.034
296.041
296.054
296.061
296.075
296.083
296.1
296.107
296.129
296.133
296.162
296.165
296.196
296.194
296.236
296.246
296.247
296.249
296.252
296.255
296.26
296.264
296.271
296.277
296.286
296.292
296.303
296.31
296.324
296.332
296.35
296.357
296.379
296.385
296.411
296.416
296.446
296.445
296.485
296.477
296.478
296.48
296.482
296.486
296.49
296.495
296.502
296.507
296.516
296.524
296.536
296.543
296.557
296.564
296.581
296.588
296.61
296.615
296.641
296.644
296.677
296.674
296.714
296.704
296.705
296.706
296.709
296.712
296.717
296.721
296.728
296.734
296.743
296.748
296.759
296.766
296.78
296.788
296.806
296.813
296.834
296.84
296.866
296.867
296.903
296.899
296.937
296.91
296.911
296.913
296.915
296.918
296.923
296.927
296.934
296.939
296.948
296.956
296.967
296.974
296.987
296.995
297.011
297.018
297.039
297.044
297.071
297.075
297.102
297.103
297.141
297.114
297.115
297.116
297.119
297.122
297.127
297.131
297.138
297.143
297.151
297.156
297.167
297.175
297.189
297.197
297.213
297.22
297.241
297.246
297.272
297.272
297.309
297.304
297.343
297.299
297.299
297.301
297.303
297.306
297.31
297.314
297.321
297.326
297.336
297.343
297.354
297.36
297.373
297.38
297.396
297.403
297.423
297.428
297.454
297.457
297.486
297.486
297.522
297.481
297.481
297.483
297.486
297.489
297.494
297.498
297.504
297.509
297.517
297.522
297.533
297.54
297.554
297.562
297.578
297.584
297.605
297.61
297.635
297.635
297.669
297.665
297.703
297.646
297.647
297.648
297.65
297.653
297.657
297.661
297.667
297.673
297.682
297.688
297.699
297.704
297.718
297.725
297.741
297.746
297.767
297.772
297.796
297.799
297.828
297.827
297.862
297.809
297.81
297.811
297.814
297.817
297.822
297.826
297.832
297.836
297.844
297.849
297.861
297.867
297.881
297.888
297.904
297.909
297.93
297.932
297.961
297.96
297.992
297.988
298.025
297.957
297.958
297.959
297.961
297.964
297.967
297.971
297.978
297.983
297.992
297.997
298.008
298.013
298.026
298.032
298.048
298.054
298.074
298.079
298.101
298.104
298.134
298.132
298.166
298.103
298.103
298.105
298.108
298.11
298.115
298.118
298.125
298.129
298.137
298.142
298.154
298.159
298.174
298.179
298.195
298.201
298.22
298.222
298.25
298.25
298.28
298.277
298.312
298.235
298.236
298.237
298.239
298.241
298.245
298.249
298.255
298.26
298.268
298.273
298.284
298.288
298.302
298.307
298.324
298.326
298.35
298.352
298.375
298.377
298.406
298.404
298.437
298.365
298.366
298.367
298.37
298.372
298.377
298.38
298.386
298.391
298.399
298.404
298.416
298.42
298.434
298.438
298.456
298.461
298.479
298.482
298.508
298.508
298.537
298.535
298.567
298.484
298.484
298.485
298.487
298.489
298.493
298.496
298.503
298.507
298.515
298.519
298.53
298.534
298.548
298.553
298.569
298.571
298.595
298.596
298.62
298.621
298.648
298.647
298.679
298.599
298.6
298.601
298.604
298.606
298.611
298.614
298.62
298.624
298.633
298.637
298.649
298.652
298.668
298.67
298.688
298.692
298.711
298.714
298.737
298.738
298.767
298.765
298.795
298.705
298.705
298.706
298.708
298.71
298.714
298.717
298.724
298.726
298.735
298.738
298.751
298.754
298.767
298.771
298.788
298.79
298.812
298.813
298.837
298.838
298.864
298.863
298.893
298.808
298.809
298.81
298.813
298.815
298.82
298.822
298.829
298.832
298.841
298.845
298.856
298.859
298.874
298.877
298.895
298.897
298.917
298.919
298.942
298.943
298.97
298.968
298.998
298.901
298.902
298.902
298.905
298.906
298.911
298.913
298.919
298.922
298.931
298.934
298.946
298.949
298.962
298.966
298.982
298.985
299.005
299.007
299.03
299.03
299.057
299.056
299.084
298.994
298.995
298.996
298.998
299
299.005
299.007
299.015
299.017
299.026
299.029
299.041
299.043
299.058
299.06
299.078
299.08
299.1
299.101
299.124
299.125
299.15
299.149
299.178
299.075
299.076
299.076
299.079
299.08
299.085
299.087
299.094
299.096
299.105
299.107
299.119
299.122
299.136
299.138
299.155
299.157
299.177
299.178
299.2
299.201
299.228
299.226
299.253
299.159
299.16
299.161
299.163
299.165
299.169
299.172
299.179
299.181
299.19
299.193
299.204
299.207
299.221
299.223
299.239
299.242
299.261
299.262
299.285
299.286
299.311
299.309
299.337
299.229
299.23
299.231
299.233
299.235
299.239
299.241
299.247
299.25
299.258
299.261
299.272
299.275
299.289
299.291
299.307
299.31
299.329
299.329
299.352
299.352
299.378
299.376
299.403
299.304
299.305
299.306
299.308
299.31
299.314
299.317
299.323
299.326
299.334
299.337
299.348
299.351
299.365
299.366
299.382
299.385
299.403
299.405
299.426
299.427
299.452
299.45