/*--------------------------------*- C++ -*----------------------------------*\
  =========                 |
  \\      /  F ield         | OpenFOAM: The Open Source CFD Toolbox
   \\    /   O peration     | Website:  https://openfoam.org
    \\  /    A nd           | Version:  10
     \\/     M anipulation  |
\*---------------------------------------------------------------------------*/
FoamFile
{
    format      ascii;
    class       volVectorField;
    location    "0.14";
    object      U;
}
// * * * * * * * * * * * * * * * * * * * * * * * * * * * * * * * * * * * * * //

dimensions      [0 1 -1 0 0 0 0];

internalField   nonuniform List<vector> 
4176
(
(497.421 -0.01493 -2.24744e-09)
(497.407 0.0651446 6.92881e-10)
(497.375 -0.000342309 -1.59938e-10)
(497.337 0.0921564 2.0536e-11)
(497.271 0.0488315 9.71407e-11)
(497.209 0.0916031 -1.0035e-10)
(497.106 0.123338 -2.32571e-10)
(497.023 0.0627509 -8.95159e-11)
(496.883 0.22239 5.79103e-11)
(496.781 0.00730524 1.14177e-10)
(496.603 0.341258 3.90437e-11)
(496.481 -0.0663175 1.32299e-10)
(496.27 0.466442 1.87781e-10)
(496.123 -0.136317 3.91418e-11)
(495.888 0.564214 -8.09652e-11)
(495.704 -0.132104 -5.73014e-11)
(495.468 0.524561 -1.29299e-10)
(495.218 0.0273238 -1.13824e-10)
(495.004 0.330789 1.30778e-10)
(494.662 0.326868 1.52961e-10)
(494.507 -0.0210745 -1.9889e-11)
(494.028 0.775774 -9.17594e-11)
(493.998 -0.520242 7.17755e-12)
(493.375 1.44628 4.49066e-11)
(497.403 0.0041171 -2.24686e-09)
(497.388 0.11595 6.93675e-10)
(497.356 0.0747214 -1.60209e-10)
(497.316 0.205037 1.9889e-11)
(497.25 0.184087 9.74442e-11)
(497.185 0.266292 -1.00186e-10)
(497.081 0.31924 -2.33714e-10)
(496.995 0.297819 -8.97723e-11)
(496.853 0.479341 5.83508e-11)
(496.746 0.300391 1.14411e-10)
(496.567 0.659713 3.86876e-11)
(496.44 0.28143 1.32608e-10)
(496.225 0.846921 1.86597e-10)
(496.073 0.261459 3.93399e-11)
(495.832 1.0088 -8.08209e-11)
(495.645 0.305499 -5.69727e-11)
(495.402 1.03822 -1.30722e-10)
(495.147 0.514395 -1.14084e-10)
(494.928 0.910388 1.29919e-10)
(494.578 0.858985 1.52694e-10)
(494.423 0.624345 -1.9849e-11)
(493.923 1.3347 -9.41475e-11)
(493.888 0.121049 7.93303e-12)
(493.201 1.99645 4.44529e-11)
(497.348 0.0224441 -2.25033e-09)
(497.333 0.162606 6.92845e-10)
(497.303 0.145896 -1.62194e-10)
(497.263 0.309372 2.09646e-11)
(497.199 0.311676 9.74808e-11)
(497.134 0.428474 -1.01081e-10)
(497.035 0.503342 -2.31636e-10)
(496.949 0.517025 -8.84696e-11)
(496.812 0.72003 6.00635e-11)
(496.706 0.575019 1.1471e-10)
(496.532 0.95746 3.78678e-11)
(496.407 0.608778 1.32186e-10)
(496.197 1.20266 1.88747e-10)
(496.05 0.636956 3.96716e-11)
(495.811 1.42492 -8.10695e-11)
(495.631 0.717129 -5.59601e-11)
(495.388 1.51859 -1.33805e-10)
(495.142 0.969546 -1.15976e-10)
(494.927 1.45314 1.30723e-10)
(494.587 1.34753 1.52523e-10)
(494.44 1.24344 -2.07703e-11)
(493.95 1.88583 -9.16329e-11)
(493.915 0.834559 8.11826e-12)
(493.205 2.6125 4.53319e-11)
(497.245 0.0411458 -2.24968e-09)
(497.23 0.210105 6.96439e-10)
(497.2 0.218391 -1.63148e-10)
(497.16 0.41568 2.40942e-11)
(497.096 0.441628 9.70563e-11)
(497.031 0.593819 -1.05492e-10)
(496.932 0.690883 -2.32142e-10)
(496.846 0.740638 -9.15536e-11)
(496.709 0.965223 5.30532e-11)
(496.604 0.855301 1.1819e-10)
(496.428 1.26076 3.88703e-11)
(496.305 0.943088 1.30914e-10)
(496.092 1.56529 1.90822e-10)
(495.948 1.02108 3.83784e-11)
(495.705 1.84974 -8.817e-11)
(495.528 1.13851 -5.74068e-11)
(495.281 2.01292 -1.31744e-10)
(495.032 1.42992 -1.16601e-10)
(494.826 2.00512 1.33118e-10)
(494.475 1.84426 1.52155e-10)
(494.333 1.85395 -2.35361e-11)
(493.85 2.42363 -9.25942e-11)
(493.821 1.52142 6.23582e-12)
(493.14 3.20919 3.57209e-11)
(497.095 0.0594389 -2.25127e-09)
(497.08 0.25662 7.02518e-10)
(497.05 0.289311 -1.59084e-10)
(497.01 0.519857 2.41686e-11)
(496.948 0.568748 1.00649e-10)
(496.883 0.755978 -1.00069e-10)
(496.785 0.874336 -2.34639e-10)
(496.7 0.960166 -8.99584e-11)
(496.565 1.20508 5.82267e-11)
(496.461 1.13076 1.16097e-10)
(496.287 1.55753 3.91e-11)
(496.165 1.27185 1.34204e-10)
(495.954 1.92053 1.87913e-10)
(495.812 1.39878 3.76233e-11)
(495.57 2.26743 -8.6223e-11)
(495.397 1.5531 -6.01608e-11)
(495.147 2.5082 -1.33154e-10)
(494.903 1.8731 -1.16043e-10)
(494.7 2.55012 1.27791e-10)
(494.347 2.34211 1.58148e-10)
(494.207 2.44837 -1.58352e-11)
(493.729 2.94939 -8.98041e-11)
(493.699 2.16396 9.74218e-12)
(493.039 3.76702 4.64389e-11)
(496.896 0.0777153 -2.26317e-09)
(496.881 0.302836 6.99917e-10)
(496.851 0.360082 -1.57498e-10)
(496.811 0.623447 1.95712e-11)
(496.75 0.695562 8.98554e-11)
(496.685 0.91728 -1.05233e-10)
(496.589 1.05736 -2.32733e-10)
(496.503 1.17864 -9.44233e-11)
(496.37 1.44435 5.84869e-11)
(496.266 1.40514 1.21512e-10)
(496.094 1.85341 3.94077e-11)
(495.972 1.59978 1.28842e-10)
(495.763 2.27415 1.85711e-10)
(495.622 1.77638 4.02844e-11)
(495.38 2.68181 -8.92129e-11)
(495.211 1.97197 -5.77532e-11)
(494.956 2.9988 -1.2296e-10)
(494.724 2.31592 -1.13407e-10)
(494.508 3.09955 1.37709e-10)
(494.167 2.83889 1.60501e-10)
(494.022 3.04454 -2.00673e-11)
(493.548 3.47732 -1.00695e-10)
(493.513 2.81079 6.43756e-12)
(492.851 4.3239 4.65627e-11)
(496.648 0.0958063 -2.26085e-09)
(496.633 0.348384 6.96657e-10)
(496.604 0.430065 -1.73306e-10)
(496.565 0.725597 1.97278e-11)
(496.503 0.82092 1.0483e-10)
(496.44 1.07636 -1.04253e-10)
(496.344 1.23827 -2.44633e-10)
(496.259 1.39418 -9.04045e-11)
(496.128 1.68088 6.46909e-11)
(496.024 1.67601 1.16668e-10)
(495.854 2.14585 3.66475e-11)
(495.733 1.92393 1.40244e-10)
(495.526 2.62339 2.01985e-10)
(495.387 2.15034 4.24617e-11)
(495.146 3.09011 -8.47388e-11)
(494.982 2.38921 -5.46288e-11)
(494.724 3.47838 -1.3279e-10)
(494.503 2.76054 -1.19317e-10)
(494.276 3.6469 1.32287e-10)
(493.949 3.32379 1.58257e-10)
(493.798 3.6396 -2.14643e-11)
(493.331 4.00481 -1.00943e-10)
(493.291 3.46734 8.64947e-12)
(492.631 4.8861 5.15197e-11)
(496.352 0.113752 -2.27496e-09)
(496.337 0.393462 7.06323e-10)
(496.308 0.499429 -1.52852e-10)
(496.269 0.826727 2.33089e-11)
(496.209 0.945108 9.23419e-11)
(496.145 1.23385 -1.01284e-10)
(496.051 1.41744 -2.28682e-10)
(495.966 1.60757 -9.20919e-11)
(495.836 1.91508 4.61977e-11)
(495.734 1.94428 1.14154e-10)
(495.566 2.43536 4.74736e-11)
(495.446 2.24518 1.34917e-10)
(495.24 2.96903 1.76953e-10)
(495.103 2.52133 3.4091e-11)
(494.864 3.49391 -7.76352e-11)
(494.703 2.80396 -6.28815e-11)
(494.444 3.95057 -1.29517e-10)
(494.232 3.20277 -1.03009e-10)
(493.999 4.18956 1.36191e-10)
(493.683 3.80418 1.43773e-10)
(493.526 4.23284 -2.16299e-11)
(493.066 4.52754 -8.4955e-11)
(493.023 4.11855 6.02823e-12)
(492.371 5.44102 2.81692e-11)
(496.007 0.131509 -2.28499e-09)
(495.993 0.437982 6.92027e-10)
(495.964 0.568013 -1.74555e-10)
(495.925 0.926628 1.11228e-11)
(495.865 1.06784 9.25544e-11)
(495.802 1.3894 -1.09549e-10)
(495.709 1.59443 -2.44495e-10)
(495.626 1.81831 -9.58057e-11)
(495.497 2.14635 5.2443e-11)
(495.395 2.20925 1.10991e-10)
(495.229 2.72119 3.56329e-11)
(495.111 2.56266 1.33701e-10)
(494.907 3.3102 1.85854e-10)
(494.773 2.88833 3.56712e-11)
(494.534 3.89227 -8.42561e-11)
(494.377 3.21489 -5.99518e-11)
(494.118 4.4143 -1.34133e-10)
(493.914 3.64207 -1.14367e-10)
(493.675 4.72539 1.32795e-10)
(493.372 4.2779 1.50874e-10)
(493.209 4.82355 -2.35639e-11)
(492.758 5.04553 -9.61735e-11)
(492.711 4.76531 7.67887e-12)
(492.068 5.98929 4.44208e-11)
(495.613 0.149076 -2.26685e-09)
(495.6 0.481953 7.20361e-10)
(495.571 0.635813 -1.55636e-10)
(495.532 1.02532 3.43526e-11)
(495.474 1.18911 1.11403e-10)
(495.411 1.54304 -9.23749e-11)
(495.319 1.76924 -2.28073e-10)
(495.237 2.02642 -7.9008e-11)
(495.11 2.37466 7.05172e-11)
(495.009 2.47091 1.27627e-10)
(494.845 3.00325 5.38567e-11)
(494.728 2.87625 1.49887e-10)
(494.527 3.64678 2.04883e-10)
(494.395 3.25109 4.86642e-11)
(494.157 4.2851 -7.05069e-11)
(494.004 3.62169 -4.93756e-11)
(493.745 4.8699 -1.20647e-10)
(493.549 4.07761 -1.03722e-10)
(493.306 5.25375 1.46695e-10)
(493.014 4.74532 1.62682e-10)
(492.845 5.40962 -1.1403e-11)
(492.406 5.55689 -8.41304e-11)
(492.354 5.4058 1.69851e-11)
(491.721 6.52923 5.34675e-11)
(495.171 0.166427 -2.28498e-09)
(495.158 0.525321 7.08346e-10)
(495.13 0.702732 -1.6508e-10)
(495.091 1.12269 2.68852e-11)
(495.034 1.30876 1.04963e-10)
(494.972 1.69463 -1.00268e-10)
(494.881 1.94167 -2.33647e-10)
(494.799 2.2317 -8.13476e-11)
(494.674 2.59977 6.84774e-11)
(494.575 2.72895 1.2583e-10)
(494.412 3.2812 5.40854e-11)
(494.298 3.18551 1.52692e-10)
(494.098 3.97831 2.08012e-10)
(493.969 3.60902 5.07045e-11)
(493.733 4.6719 -6.57379e-11)
(493.584 4.02363 -4.34803e-11)
(493.325 5.31724 -1.13485e-10)
(493.137 4.50885 -9.78353e-11)
(492.89 5.7738 1.57153e-10)
(492.609 5.20681 1.73659e-10)
(492.435 5.98861 -2.30317e-11)
(492.008 6.05977 -1.18158e-10)
(491.952 6.04038 -1.23129e-11)
(491.329 7.06046 2.22082e-11)
(494.681 0.183543 -2.29044e-09)
(494.668 0.568042 7.10431e-10)
(494.64 0.768692 -1.68137e-10)
(494.602 1.21865 2.14617e-11)
(494.545 1.42669 1.00226e-10)
(494.484 1.84403 -1.06129e-10)
(494.394 2.11158 -2.42207e-10)
(494.314 2.43401 -9.18068e-11)
(494.19 2.8215 5.83073e-11)
(494.092 2.98321 1.16294e-10)
(493.931 3.55483 4.34981e-11)
(493.819 3.4902 1.43736e-10)
(493.621 4.3045 1.97537e-10)
(493.495 3.96173 4.13029e-11)
(493.261 5.0523 -8.02129e-11)
(493.116 4.42011 -5.72892e-11)
(492.859 5.75636 -1.30891e-10)
(492.677 4.93541 -1.11549e-10)
(492.427 6.28486 1.38711e-10)
(492.158 5.66111 1.55401e-10)
(491.979 6.55987 -1.80534e-11)
(491.564 6.55376 -8.89337e-11)
(491.505 6.66737 1.35334e-11)
(490.893 7.5823 4.85951e-11)
(494.141 0.200398 -2.29633e-09)
(494.13 0.610059 7.09316e-10)
(494.101 0.833592 -1.74131e-10)
(494.064 1.31307 1.5531e-11)
(494.008 1.54271 9.22861e-11)
(493.947 1.99106 -1.18355e-10)
(493.859 2.27876 -2.57184e-10)
(493.779 2.63315 -1.08909e-10)
(493.657 3.03963 4.12143e-11)
(493.561 3.23346 9.75073e-11)
(493.403 3.8239 1.71824e-11)
(493.293 3.79001 1.17867e-10)
(493.097 4.62503 1.65147e-10)
(492.974 4.30877 3.60352e-11)
(492.742 5.42584 -5.62249e-11)
(492.601 4.81044 -4.00175e-11)
(492.345 6.18715 -1.13059e-10)
(492.17 5.35694 -9.94595e-11)
(491.918 6.78628 1.5124e-10)
(491.661 6.10769 1.6595e-10)
(491.477 7.12233 -9.85994e-12)
(491.075 7.03778 -8.38582e-11)
(491.013 7.28572 1.87746e-11)
(490.412 8.09424 5.16451e-11)
(493.552 0.216969 -2.29389e-09)
(493.542 0.65132 7.32959e-10)
(493.514 0.897338 -1.75079e-10)
(493.477 1.40582 -3.78316e-12)
(493.422 1.65668 8.96709e-11)
(493.362 2.13554 -1.09389e-10)
(493.275 2.44298 -2.36667e-10)
(493.197 2.82887 -7.19314e-11)
(493.076 3.25391 6.04239e-11)
(492.982 3.47944 9.79852e-11)
(492.826 4.08814 3.01327e-11)
(492.718 4.08468 1.41589e-10)
(492.525 4.93963 2.0789e-10)
(492.404 4.64981 5.55236e-11)
(492.175 5.79219 -8.92237e-11)
(492.039 5.19413 -8.10383e-11)
(491.784 6.60918 -1.4968e-10)
(491.616 5.77283 -1.18428e-10)
(491.362 7.2776 1.45494e-10)
(491.116 6.54601 1.71865e-10)
(490.928 7.67544 -2.21165e-11)
(490.539 7.51089 -1.12813e-10)
(490.475 7.89398 1.87529e-12)
(489.887 8.59574 4.87873e-11)
(492.914 0.233238 -2.3151e-09)
(492.905 0.691775 6.93508e-10)
(492.877 0.959842 -1.66271e-10)
(492.84 1.49678 5.2768e-11)
(492.786 1.76842 1.15703e-10)
(492.728 2.27727 -1.06515e-10)
(492.642 2.60401 -2.57263e-10)
(492.566 3.02091 -1.18253e-10)
(492.447 3.46403 5.7593e-11)
(492.355 3.72084 1.40115e-10)
(492.2 4.34724 5.08555e-11)
(492.095 4.37389 1.3607e-10)
(491.905 5.24799 1.74017e-10)
(491.787 4.98449 3.42694e-11)
(491.561 6.15099 -6.49989e-11)
(491.429 5.57068 -5.19604e-11)
(491.176 7.02202 -1.39707e-10)
(491.015 6.18236 -1.30128e-10)
(490.76 7.7582 1.04848e-10)
(490.526 6.97577 1.42965e-10)
(490.334 8.21877 -9.08982e-12)
(489.958 7.97225 -8.86314e-11)
(489.891 8.49093 1.97435e-12)
(489.316 9.08627 2.33713e-11)
(492.227 0.249186 -2.30563e-09)
(492.219 0.731379 7.43979e-10)
(492.191 1.02102 -1.73633e-10)
(492.155 1.58585 -7.00357e-12)
(492.102 1.87777 8.87091e-11)
(492.045 2.41605 -1.07066e-10)
(491.961 2.76159 -2.29915e-10)
(491.885 3.20897 -6.52479e-11)
(491.769 3.66967 6.16488e-11)
(491.679 3.9573 9.9385e-11)
(491.527 4.60084 3.6589e-11)
(491.424 4.65724 1.50191e-10)
(491.236 5.54975 2.18945e-10)
(491.122 5.31246 3.10272e-11)
(490.899 6.50194 -1.2129e-10)
(490.771 5.93968 -7.7405e-11)
(490.521 7.4253 -1.403e-10)
(490.366 6.58472 -1.05536e-10)
(490.111 8.22733 1.60796e-10)
(489.888 7.39673 1.497e-10)
(489.693 8.75167 -4.79613e-11)
(489.331 8.42154 -1.01937e-10)
(489.26 9.07596 1.52822e-11)
(488.7 9.56512 6.08455e-11)
(491.49 0.264795 -2.32597e-09)
(491.484 0.770088 7.07517e-10)
(491.456 1.08079 -1.92043e-10)
(491.42 1.6729 -1.08128e-11)
(491.369 1.98458 9.97281e-11)
(491.312 2.55167 -8.05835e-11)
(491.23 2.91546 -2.26927e-10)
(491.156 3.39275 -8.40791e-11)
(491.042 3.87047 5.84578e-11)
(490.954 4.18842 1.10891e-10)
(490.805 4.84851 2.53763e-11)
(490.705 4.93432 1.18953e-10)
(490.52 5.84451 2.00093e-10)
(490.409 5.63328 6.20312e-11)
(490.189 6.84467 -7.05961e-11)
(490.066 6.30073 -5.40675e-11)
(489.818 7.81876 -1.36942e-10)
(489.67 6.97906 -1.22278e-10)
(489.415 8.68416 1.18674e-10)
(489.204 7.80852 1.26764e-10)
(489.005 9.27263 -5.94937e-11)
(488.658 8.85941 -9.8794e-11)
(488.583 9.64953 3.31339e-11)
(488.038 10.031 5.75054e-11)
(490.703 0.280044 -2.32415e-09)
(490.699 0.807849 7.33422e-10)
(490.671 1.13907 -1.58627e-10)
(490.636 1.75781 4.38701e-11)
(490.585 2.08869 1.23421e-10)
(490.53 2.68394 -8.51518e-11)
(490.449 3.0654 -2.19936e-10)
(490.378 3.57197 -6.02537e-11)
(490.266 4.0661 9.90262e-11)
(490.18 4.41382 1.23081e-10)
(490.034 5.08981 9.34621e-12)
(489.937 5.20462 1.15873e-10)
(489.755 6.13178 1.67888e-10)
(489.648 5.94645 1.05803e-11)
(489.431 7.17877 -1.12608e-10)
(489.313 6.65341 -7.93723e-11)
(489.068 8.20216 -1.5425e-10)
(488.927 7.36463 -1.26054e-10)
(488.673 9.12803 1.31847e-10)
(488.473 8.21087 1.55413e-10)
(488.271 9.78121 -1.59039e-11)
(487.939 9.28544 -8.45623e-11)
(487.859 10.2108 2.19694e-11)
(487.331 10.4834 6.14608e-11)
(489.867 0.294906 -2.3368e-09)
(489.863 0.8446 7.21628e-10)
(489.836 1.19575 -1.79535e-10)
(489.801 1.84046 1.76225e-11)
(489.753 2.18992 9.11168e-11)
(489.699 2.81265 -1.28717e-10)
(489.619 3.21113 -2.66613e-10)
(489.55 3.74633 -1.1069e-10)
(489.44 4.2562 4.06149e-11)
(489.357 4.63311 9.90501e-11)
(489.214 5.32432 2.23394e-11)
(489.12 5.46767 1.20643e-10)
(488.942 6.41105 1.64323e-10)
(488.839 6.25142 2.69057e-12)
(488.626 7.50369 -1.30608e-10)
(488.512 6.99716 -1.02366e-10)
(488.27 8.57506 -1.41902e-10)
(488.136 7.74092 -8.54793e-11)
(487.883 9.5585 1.71826e-10)
(487.695 8.60336 1.81975e-10)
(487.49 10.2769 4.97444e-12)
(487.173 9.69931 -7.34238e-11)
(487.089 10.7592 3.01232e-11)
(486.577 10.9219 6.56341e-11)
(488.98 0.309351 -2.35876e-09)
(488.978 0.880264 7.34473e-10)
(488.952 1.25071 -1.50831e-10)
(488.917 1.92066 2.25809e-11)
(488.87 2.28806 1.17302e-10)
(488.817 2.93757 -7.96722e-11)
(488.74 3.3524 -2.45816e-10)
(488.672 3.91556 -1.15221e-10)
(488.565 4.44046 5.86643e-11)
(488.485 4.84592 1.38342e-10)
(488.344 5.55161 3.60506e-11)
(488.254 5.723 1.50905e-10)
(488.08 6.68179 2.15e-10)
(487.981 6.5476 2.30159e-11)
(487.772 7.81887 -8.55121e-11)
(487.663 7.33134 -4.27961e-11)
(487.425 8.93691 -1.47184e-10)
(487.297 8.10738 -1.48266e-10)
(487.047 9.97517 1.22377e-10)
(486.87 8.98559 1.55264e-10)
(486.662 10.7592 -4.82834e-11)
(486.36 10.1007 -1.01609e-10)
(486.273 11.294 1.76693e-11)
(485.778 11.346 2.89297e-11)
(488.043 0.323339 -2.34502e-09)
(488.042 0.914754 7.47891e-10)
(488.016 1.3038 -1.51683e-10)
(487.982 1.99825 5.71486e-11)
(487.936 2.3829 1.35941e-10)
(487.886 3.05845 -1.18011e-10)
(487.81 3.48893 -2.9265e-10)
(487.745 4.07933 -1.24625e-10)
(487.641 4.61854 4.05643e-11)
(487.563 5.0519 1.07432e-10)
(487.426 5.7713 3.6314e-11)
(487.339 5.97016 1.47299e-10)
(487.168 6.94352 2.06491e-10)
(487.074 6.83443 4.86384e-11)
(486.869 8.12371 -6.70347e-11)
(486.766 7.65529 -3.88606e-11)
(486.531 9.28713 -1.09476e-10)
(486.411 8.46332 -1.24072e-10)
(486.163 10.3777 9.44135e-11)
(485.997 9.35717 1.23159e-10)
(485.787 11.2274 -4.85373e-11)
(485.501 10.4892 -1.14435e-10)
(485.409 11.8149 -8.82755e-12)
(484.932 11.7554 3.76757e-11)
(487.055 0.336833 -2.37063e-09)
(487.056 0.947978 7.02396e-10)
(487.03 1.35487 -1.75705e-10)
(486.997 2.07301 5.75675e-11)
(486.953 2.47419 1.1297e-10)
(486.904 3.175 -1.18663e-10)
(486.83 3.62041 -2.70031e-10)
(486.767 4.23735 -8.14141e-11)
(486.666 4.79012 1.03852e-10)
(486.591 5.25071 1.45821e-10)
(486.458 5.98301 5.12437e-11)
(486.375 6.20877 1.34392e-10)
(486.208 7.1958 1.63071e-10)
(486.119 7.1114 2.60835e-11)
(485.918 8.41766 -7.24538e-11)
(485.82 7.96834 -6.0983e-11)
(485.59 9.62506 -1.54998e-10)
(485.477 8.80793 -1.45978e-10)
(485.232 10.7656 1.39766e-10)
(485.077 9.71774 1.7902e-10)
(484.865 11.6806 -1.47672e-11)
(484.595 10.8646 -1.06162e-10)
(484.499 12.3212 -2.26965e-11)
(484.04 12.1495 4.23259e-11)
(486.016 0.349793 -2.38104e-09)
(486.019 0.979851 7.05588e-10)
(485.994 1.4038 -1.7665e-10)
(485.961 2.14478 6.3262e-11)
(485.919 2.56169 1.23401e-10)
(485.871 3.28696 -1.1394e-10)
(485.8 3.74653 -2.71174e-10)
(485.739 4.38927 -1.31741e-10)
(485.641 4.95482 5.43945e-11)
(485.57 5.44199 1.51461e-10)
(485.44 6.18637 6.17203e-11)
(485.361 6.43844 1.44871e-10)
(485.198 7.43823 1.74166e-10)
(485.113 7.37808 3.53209e-11)
(484.917 8.70023 -6.25254e-11)
(484.826 8.2699 -5.66464e-11)
(484.6 9.95008 -1.50506e-10)
(484.494 9.14034 -1.37419e-10)
(484.252 11.1388 1.50686e-10)
(484.108 10.0669 1.88503e-10)
(483.896 12.1179 -4.76474e-12)
(483.642 11.226 -9.75865e-11)
(483.542 12.8123 -8.01495e-12)
(483.101 12.5281 1.50394e-11)
(484.926 0.362189 -2.39647e-09)
(484.931 1.0103 7.49053e-10)
(484.906 1.45045 -1.52245e-10)
(484.874 2.21337 1.97788e-11)
(484.834 2.6452 6.81158e-11)
(484.788 3.39406 -1.30682e-10)
(484.719 3.86699 -2.46664e-10)
(484.661 4.53475 -1.16283e-10)
(484.566 5.1123 5.99678e-11)
(484.498 5.62535 1.42085e-10)
(484.372 6.381 3.59392e-11)
(484.297 6.65879 1.60721e-10)
(484.139 7.67042 2.33356e-10)
(484.059 7.63405 3.03714e-11)
(483.867 8.971 -1.32295e-10)
(483.782 8.55947 -8.07449e-11)
(483.561 10.2616 -1.35078e-10)
(483.463 9.45985 -1.33149e-10)
(483.225 11.4966 1.45949e-10)
(483.091 10.4041 1.75328e-10)
(482.879 12.5384 -3.119e-11)
(482.642 11.5729 -8.39681e-11)
(482.538 13.2874 4.29e-11)
(482.116 12.8905 4.84663e-11)
(483.786 0.373993 -2.3737e-09)
(483.791 1.03927 7.76007e-10)
(483.767 1.49475 -1.37554e-10)
(483.736 2.27866 3.1169e-11)
(483.698 2.72453 7.3737e-11)
(483.654 3.49608 -1.31651e-10)
(483.588 3.98151 -2.53106e-10)
(483.532 4.67348 -7.32642e-11)
(483.441 5.26218 9.82061e-11)
(483.376 5.80043 1.21967e-10)
(483.254 6.56649 9.06699e-12)
(483.184 6.86942 1.30665e-10)
(483.03 7.89196 1.96076e-10)
(482.955 7.87892 4.03068e-11)
(482.768 9.22957 -7.21479e-11)
(482.689 8.83661 -3.16709e-11)
(482.473 10.5593 -1.4663e-10)
(482.383 9.76593 -1.52847e-10)
(482.149 11.8384 1.18927e-10)
(482.026 10.7285 1.47361e-10)
(481.814 12.9413 -1.50579e-11)
(481.593 11.9043 -7.46108e-11)
(481.487 13.745 4.8436e-11)
(481.084 13.2361 4.86321e-11)
(482.594 0.385189 -2.37683e-09)
(482.601 1.06674 7.48618e-10)
(482.577 1.53663 -1.976e-10)
(482.547 2.34056 4.31333e-11)
(482.511 2.79954 1.01063e-10)
(482.469 3.59283 -1.38172e-10)
(482.405 4.08986 -2.37856e-10)
(482.353 4.80518 -9.55778e-11)
(482.265 5.40413 3.79119e-11)
(482.203 5.96683 1.39173e-10)
(482.085 6.74242 4.85085e-11)
(482.02 7.0699 1.31606e-10)
(481.87 8.10243 2.19584e-10)
(481.801 8.11228 2.98472e-11)
(481.619 9.47555 -1.24055e-10)
(481.547 9.10095 -6.24707e-11)
(481.335 10.8427 -1.585e-10)
(481.254 10.0581 -1.43307e-10)
(481.024 12.1639 1.48401e-10)
(480.912 11.0396 1.42983e-10)
(480.701 13.3262 -5.49802e-11)
(480.496 12.2194 -9.47251e-11)
(480.388 14.1839 -1.13906e-11)
(480.005 13.5644 1.35423e-11)
(481.352 0.395761 -2.44386e-09)
(481.359 1.09266 7.26695e-10)
(481.336 1.57604 -1.98733e-10)
(481.307 2.39899 1.36137e-11)
(481.272 2.87015 1.01752e-10)
(481.232 3.68419 -1.15783e-10)
(481.172 4.19185 -2.5028e-10)
(481.122 4.9296 -7.83601e-11)
(481.037 5.53785 8.41142e-11)
(480.98 6.12421 1.51298e-10)
(480.866 6.9084 8.35635e-11)
(480.805 7.25981 1.38135e-10)
(480.661 8.30138 1.91513e-10)
(480.597 8.3337 2.42076e-11)
(480.421 9.70852 -1.01424e-10)
(480.355 9.35208 -6.79672e-11)
(480.148 11.1115 -1.41614e-10)
(480.075 10.3359 -1.07589e-10)
(479.85 12.4726 1.61056e-10)
(479.748 11.3366 1.73932e-10)
(479.539 13.6921 -5.53539e-11)
(479.351 12.518 -1.20496e-10)
(479.24 14.6038 -1.10492e-11)
(478.877 13.8755 2.93456e-11)
(480.058 0.405693 -2.41178e-09)
(480.065 1.11701 7.82722e-10)
(480.044 1.61296 -1.42823e-10)
(480.016 2.45391 2.61865e-11)
(479.983 2.93628 6.80168e-11)
(479.945 3.77006 -1.46606e-10)
(479.887 4.28735 -2.68777e-10)
(479.84 5.04659 -8.45206e-11)
(479.759 5.66313 8.46599e-11)
(479.706 6.2723 1.63774e-10)
(479.596 7.06409 4.86705e-11)
(479.54 7.43875 1.16282e-10)
(479.401 8.48837 1.80523e-10)
(479.343 8.5427 1.85264e-11)
(479.172 9.92803 -9.61775e-11)
(479.113 9.58955 -5.20162e-11)
(478.912 11.3653 -1.12271e-10)
(478.846 10.5989 -7.07307e-11)
(478.627 12.7645 1.50168e-10)
(478.536 11.6186 1.22294e-10)
(478.328 14.038 -4.35593e-11)
(478.158 12.8001 -9.98777e-11)
(478.044 15.0056 2.42017e-11)
(477.701 14.1696 7.74513e-11)
(478.713 0.414967 -2.40793e-09)
(478.721 1.13977 7.53569e-10)
(478.7 1.64733 -2.19491e-10)
(478.673 2.50525 1.9906e-11)
(478.642 2.99784 1.39065e-10)
(478.606 3.85035 -1.10305e-10)
(478.551 4.37627 -2.81985e-10)
(478.507 5.15602 -8.46424e-11)
(478.43 5.7798 4.93622e-11)
(478.38 6.4109 8.72951e-11)
(478.275 7.20921 4.90481e-11)
(478.224 7.6064 1.87181e-10)
(478.09 8.663 2.06148e-10)
(478.038 8.73884 6.95794e-12)
(477.873 10.1336 -9.0714e-11)
(477.821 9.81289 -2.99027e-11)
(477.625 11.6037 -1.37595e-10)
(477.568 10.8469 -1.36528e-10)
(477.354 13.0392 1.63866e-10)
(477.273 11.8848 1.49625e-10)
(477.069 14.3628 -6.25104e-11)
(476.915 13.0658 -1.05612e-10)
(476.799 15.3879 3.63513e-11)
(476.477 14.4452 5.05467e-11)
(477.317 0.423561 -2.4774e-09)
(477.324 1.16089 7.29935e-10)
(477.305 1.67911 -2.08416e-10)
(477.279 2.55294 7.14582e-12)
(477.25 3.05478 9.17057e-11)
(477.216 3.92497 -1.36422e-10)
(477.163 4.45852 -2.71294e-10)
(477.123 5.25779 -9.72349e-11)
(477.049 5.88775 6.23574e-11)
(477.003 6.53988 1.24542e-10)
(476.903 7.34359 5.56088e-11)
(476.857 7.76253 1.70375e-10)
(476.728 8.82495 2.19941e-10)
(476.682 8.92174 4.186e-11)
(476.522 10.3248 -8.49334e-11)
(476.478 10.0216 -5.29448e-11)
(476.288 11.8262 -1.31684e-10)
(476.24 11.0791 -1.03192e-10)
(476.031 13.2962 1.71486e-10)
(475.961 12.1349 1.83343e-10)
(475.76 14.6661 6.92787e-12)
(475.623 13.3145 -1.28019e-10)
(475.504 15.7499 -2.55432e-11)
(475.205 14.7016 2.28678e-11)
(475.87 0.431453 -2.41205e-09)
(475.877 1.18035 7.9698e-10)
(475.858 1.70823 -1.67176e-10)
(475.833 2.5969 4.70615e-11)
(475.806 3.10699 1.23044e-10)
(475.774 3.99385 -1.11462e-10)
(475.725 4.534 -2.53963e-10)
(475.687 5.35183 -8.4659e-11)
(475.617 5.98691 6.94028e-11)
(475.575 6.65916 1.25386e-10)
(475.48 7.46712 4.96447e-11)
(475.439 7.90701 1.53062e-10)
(475.315 8.97401 1.95522e-10)
(475.275 9.09113 1.77286e-11)
(475.121 10.5012 -1.24246e-10)
(475.084 10.2152 -1.00145e-10)
(474.9 12.0322 -1.8455e-10)
(474.861 11.2952 -9.19548e-11)
(474.658 13.5352 1.73047e-10)
(474.598 12.3685 1.72982e-10)
(474.402 14.9474 -5.86376e-12)
(474.281 13.5458 -8.92796e-11)
(474.16 16.0905 1.26697e-11)
(473.882 14.9385 5.15077e-11)
(474.371 0.438623 -2.43921e-09)
(474.377 1.19809 7.72542e-10)
(474.359 1.73467 -2.05571e-10)
(474.336 2.63707 4.69672e-11)
(474.311 3.1544 1.11305e-10)
(474.281 4.05688 -1.3875e-10)
(474.234 4.60263 -2.42612e-10)
(474.2 5.43805 -9.11635e-11)
(474.134 6.07719 5.07921e-11)
(474.096 6.76869 1.51776e-10)
(474.005 7.57975 5.65028e-11)
(473.969 8.0398 1.47824e-10)
(473.85 9.1101 2.35649e-10)
(473.816 9.24688 3.60484e-11)
(473.669 10.6625 -1.18575e-10)
(473.639 10.3934 -5.25825e-11)
(473.462 12.2213 -1.52354e-10)
(473.431 11.4944 -1.39105e-10)
(473.234 13.7557 1.74337e-10)
(473.185 12.5849 1.62118e-10)
(472.993 15.207 -4.58244e-11)
(472.888 13.7597 -7.8058e-11)
(472.766 16.4089 1.32422e-11)
(472.511 15.1555 2.88495e-11)
(472.82 0.44506 -2.50055e-09)
(472.826 1.21411 7.76124e-10)
(472.809 1.75837 -1.68773e-10)
(472.787 2.6734 6.31172e-12)
(472.763 3.19695 1.18317e-10)
(472.736 4.114 -9.2403e-11)
(472.692 4.66432 -2.82633e-10)
(472.661 5.51636 -8.47194e-11)
(472.599 6.15851 9.7092e-11)
(472.565 6.86838 1.13741e-10)
(472.478 7.68141 6.33797e-11)
(472.447 8.16085 1.99852e-10)
(472.334 9.23317 2.03754e-10)
(472.306 9.38897 4.21797e-11)
(472.164 10.8087 -6.56387e-11)
(472.142 10.5559 -8.34135e-11)
(471.971 12.3931 -1.46518e-10)
(471.95 11.6763 -9.15797e-11)
(471.759 13.9569 1.41655e-10)
(471.721 12.7831 1.68679e-10)
(471.534 15.4451 7.99238e-12)
(471.445 13.9569 -1.07588e-10)
(471.321 16.7042 2.0148e-11)
(471.088 15.3517 7.62001e-11)
(471.218 0.45076 -2.47354e-09)
(471.222 1.2284 8.1732e-10)
(471.207 1.77936 -1.3765e-10)
(471.187 2.70588 4.15795e-11)
(471.165 3.23463 8.03109e-11)
(471.139 4.16517 -1.34363e-10)
(471.099 4.71902 -2.51241e-10)
(471.07 5.58669 -5.79693e-11)
(471.012 6.23078 1.24449e-10)
(470.982 6.95816 1.4779e-10)
(470.9 7.77203 2.34832e-11)
(470.874 8.27014 1.55803e-10)
(470.766 9.34319 2.31915e-10)
(470.745 9.51743 6.75976e-11)
(470.609 10.9397 -4.57715e-11)
(470.594 10.7028 -6.5207e-11)
(470.429 12.5476 -1.95772e-10)
(470.417 11.8406 -1.34608e-10)
(470.233 14.1386 1.56676e-10)
(470.206 12.9624 1.81586e-10)
(470.025 15.6611 2.85564e-11)
(469.95 14.1374 -9.6465e-11)
(469.825 16.9757 -3.43117e-11)
(469.616 15.5268 2.86966e-11)
(469.564 0.455728 -2.54364e-09)
(469.567 1.24098 7.46487e-10)
(469.553 1.79765 -2.23262e-10)
(469.534 2.73454 -7.51104e-12)
(469.514 3.26744 8.08545e-11)
(469.491 4.21041 -1.56184e-10)
(469.453 4.76672 -2.99207e-10)
(469.428 5.64901 -1.26457e-10)
(469.373 6.29395 3.78685e-11)
(469.347 7.03796 1.01555e-10)
(469.27 7.85151 2.37811e-11)
(469.249 8.36758 1.37095e-10)
(469.147 9.44011 1.85266e-10)
(469.131 9.63224 2.77646e-12)
(469.001 11.0557 -1.36239e-10)
(468.994 10.8343 -1.03675e-10)
(468.835 12.6848 -1.89797e-10)
(468.832 11.9874 -1.53597e-10)
(468.654 14.3005 1.15973e-10)
(468.639 13.1224 1.27577e-10)
(468.463 15.8546 -6.26278e-11)
(468.403 14.3006 -1.33269e-10)
(468.278 17.223 -2.72589e-11)
(468.092 15.6804 1.6935e-11)
(467.858 0.459974 -2.48907e-09)
(467.86 1.25188 7.8932e-10)
(467.848 1.81328 -2.11569e-10)
(467.83 2.75942 5.71536e-11)
(467.811 3.29546 1.21584e-10)
(467.79 4.24976 -1.36102e-10)
(467.755 4.80746 -2.33154e-10)
(467.733 5.70334 -7.8053e-11)
(467.682 6.34801 6.57683e-11)
(467.66 7.10772 1.77435e-10)
(467.588 7.91978 7.93482e-11)
(467.572 8.45306 1.64995e-10)
(467.475 9.5238 2.62852e-10)
(467.466 9.73332 5.51337e-11)
(467.341 11.1564 -1.01907e-10)
(467.342 10.9502 -9.12098e-11)
(467.189 12.8047 -1.97882e-10)
(467.195 12.1167 -1.16162e-10)
(467.024 14.4428 1.38818e-10)
(467.019 13.2628 1.2838e-10)
(466.849 16.0251 -1.30984e-11)
(466.804 14.4453 -1.09381e-10)
(466.68 17.445 -2.71248e-11)
(466.517 15.8124 6.04485e-11)
(466.101 0.463511 -2.49311e-09)
(466.101 1.26111 8.01516e-10)
(466.09 1.8263 -2.06389e-10)
(466.074 2.78057 6.48012e-11)
(466.056 3.31875 1.29076e-10)
(466.038 4.2833 -1.30112e-10)
(466.005 4.84132 -2.27622e-10)
(465.986 5.74975 -7.10317e-11)
(465.939 6.393 7.31976e-11)
(465.921 7.16747 1.16351e-10)
(465.854 7.9768 1.71263e-11)
(465.843 8.52651 1.79747e-10)
(465.751 9.59413 2.08e-10)
(465.749 9.82053 1.86019e-12)
(465.63 11.2418 -8.86025e-11)
(465.638 11.0506 -7.86813e-11)
(465.491 12.9073 -1.8494e-10)
(465.506 12.2289 -1.03603e-10)
(465.341 14.5656 1.54885e-10)
(465.347 13.384 1.41713e-10)
(465.183 16.1731 7.88929e-13)
(465.152 14.5701 -9.78312e-11)
(465.031 17.64 -5.85845e-12)
(464.891 15.923 7.97243e-11)
(464.291 0.466351 -2.52302e-09)
(464.29 1.26871 8.52814e-10)
(464.28 1.83676 -1.80482e-10)
(464.265 2.79806 6.21878e-12)
(464.249 3.33739 1.29634e-10)
(464.233 4.31112 -7.33292e-11)
(464.203 4.8684 -2.56504e-10)
(464.187 5.78834 -1.20753e-10)
(464.143 6.42901 8.08199e-11)
(464.13 7.21727 1.80195e-10)
(464.067 8.02261 6.68139e-11)
(464.061 8.58792 1.46557e-10)
(463.974 9.65102 2.3052e-10)
(463.979 9.89373 7.58605e-11)
(463.865 11.3116 -1.03424e-10)
(463.882 11.1353 -1.05573e-10)
(463.741 12.9925 -1.5718e-10)
(463.765 12.3237 -9.08468e-11)
(463.606 14.6692 1.56701e-10)
(463.623 13.4863 1.29838e-10)
(463.465 16.2995 -2.88662e-11)
(463.447 14.6743 -7.95774e-11)
(463.33 17.8067 1.66056e-12)
(463.212 16.0118 1.11881e-11)
(462.428 0.468504 -2.56207e-09)
(462.427 1.27469 7.86732e-10)
(462.417 1.84468 -2.15452e-10)
(462.404 2.81193 -8.79771e-12)
(462.39 3.35142 6.82877e-11)
(462.375 4.33329 -1.83444e-10)
(462.349 4.88878 -2.65044e-10)
(462.335 5.8192 -2.7636e-11)
(462.295 6.45615 1.30927e-10)
(462.286 7.25724 1.88374e-10)
(462.227 8.05728 9.57717e-11)
(462.226 8.63737 1.96264e-10)
(462.145 9.69448 2.39061e-10)
(462.156 9.95288 4.18973e-11)
(462.049 11.3658 -1.11279e-10)
(462.072 11.2039 -9.27265e-11)
(461.938 13.0599 -1.87462e-10)
(461.972 12.4009 -1.56657e-10)
(461.819 14.7532 1.06651e-10)
(461.847 13.5698 1.11244e-10)
(461.694 16.4043 -2.22465e-11)
(461.69 14.7585 -4.81233e-11)
(461.576 17.9449 6.10842e-11)
(461.481 16.0782 8.75804e-11)
(460.513 0.469974 -2.60168e-09)
(460.511 1.27906 7.99145e-10)
(460.503 1.85007 -1.8258e-10)
(460.491 2.82217 -1.61561e-11)
(460.478 3.36088 8.92874e-11)
(460.465 4.34982 -1.32794e-10)
(460.441 4.9025 -2.59601e-10)
(460.431 5.8424 -6.35996e-11)
(460.395 6.47448 4.67868e-11)
(460.389 7.28745 1.32377e-10)
(460.335 8.08094 7.49076e-11)
(460.339 8.67495 1.34475e-10)
(460.263 9.72457 2.04079e-10)
(460.28 9.99803 3.49833e-11)
(460.179 11.4041 -9.01933e-11)
(460.21 11.2565 -4.5992e-11)
(460.083 13.1093 -1.8107e-10)
(460.125 12.4601 -1.24036e-10)
(459.979 14.8172 1.74878e-10)
(460.019 13.634 1.24771e-10)
(459.872 16.4874 -5.30274e-11)
(459.881 14.823 -1.06254e-10)
(459.771 18.0557 2.39343e-11)
(459.697 16.1229 7.51128e-11)
(458.546 0.470763 -2.54338e-09)
(458.542 1.28182 8.277e-10)
(458.535 1.85293 -2.04541e-10)
(458.524 2.82879 -1.15157e-12)
(458.513 3.36575 7.58595e-11)
(458.502 4.36073 -1.11491e-10)
(458.481 4.90957 -2.82339e-10)
(458.474 5.85794 -1.21944e-10)