/*--------------------------------*- C++ -*----------------------------------*\
  =========                 |
  \\      /  F ield         | OpenFOAM: The Open Source CFD Toolbox
   \\    /   O peration     | Website:  https://openfoam.org
    \\  /    A nd           | Version:  10
     \\/     M anipulation  |
\*---------------------------------------------------------------------------*/
FoamFile
{
    format      ascii;
    class       volScalarField;
    location    "0.05";
    object      Ma;
}
// * * * * * * * * * * * * * * * * * * * * * * * * * * * * * * * * * * * * * //

dimensions      [0 0 0 0 0 0 0];

internalField   nonuniform List<scalar> 
4176
(
1.04349
1.04349
1.04343
1.04336
1.04324
1.04312
1.04293
1.04276
1.04251
1.0423
1.04198
1.04171
1.04134
1.041
1.0406
1.04014
1.03976
1.03914
1.03881
1.03801
1.03777
1.03677
1.03669
1.03552
1.02114
1.02114
1.02107
1.02099
1.02086
1.02073
1.02053
1.02035
1.02008
1.01985
1.01951
1.01922
1.01882
1.01846
1.01802
1.01756
1.0171
1.0165
1.01607
1.01528
1.01495
1.01389
1.01375
1.01239
1.02095
1.02096
1.02089
1.0208
1.02067
1.02053
1.02034
1.02014
1.01987
1.01963
1.01929
1.01899
1.01858
1.01821
1.01775
1.0173
1.0168
1.01624
1.01574
1.01499
1.01459
1.01352
1.01333
1.01182
1.01899
1.019
1.01893
1.01884
1.01871
1.01857
1.01836
1.01817
1.01789
1.01764
1.01729
1.01699
1.01657
1.01619
1.01574
1.01526
1.01479
1.01418
1.01373
1.01292
1.01257
1.01149
1.01131
1.00984
1.019
1.019
1.01893
1.01885
1.01871
1.01857
1.01836
1.01816
1.01788
1.01763
1.01728
1.01697
1.01655
1.01617
1.01571
1.01522
1.01476
1.01412
1.0137
1.01286
1.01254
1.01145
1.01129
1.00987
1.01995
1.01996
1.01989
1.0198
1.01966
1.01952
1.01931
1.01911
1.01883
1.01857
1.01822
1.0179
1.01748
1.01709
1.01663
1.01613
1.01566
1.01502
1.01459
1.01375
1.01342
1.01232
1.01216
1.01074
1.02202
1.02203
1.02196
1.02187
1.02173
1.02158
1.02138
1.02117
1.02089
1.02062
1.02027
1.01995
1.01952
1.01913
1.01866
1.01817
1.01769
1.01704
1.01661
1.01576
1.01542
1.01432
1.01414
1.01271
1.02487
1.02488
1.0248
1.02472
1.02458
1.02443
1.02422
1.02401
1.02373
1.02346
1.0231
1.02278
1.02235
1.02196
1.02148
1.02099
1.0205
1.01986
1.01942
1.01857
1.01822
1.01712
1.01694
1.0155
1.02859
1.02861
1.02853
1.02845
1.0283
1.02816
1.02794
1.02773
1.02744
1.02718
1.02681
1.02649
1.02605
1.02566
1.02517
1.02467
1.02417
1.02353
1.02307
1.02223
1.02187
1.02076
1.02057
1.01912
1.03313
1.03315
1.03307
1.03299
1.03284
1.0327
1.03247
1.03227
1.03197
1.03171
1.03134
1.03102
1.03057
1.03018
1.02968
1.02919
1.02868
1.02804
1.02757
1.02673
1.02635
1.02525
1.02505
1.02359
1.03826
1.03828
1.0382
1.03812
1.03796
1.03783
1.03759
1.0374
1.03709
1.03684
1.03645
1.03613
1.03568
1.03529
1.03478
1.0343
1.03377
1.03314
1.03265
1.03182
1.03143
1.03033
1.03012
1.02866
1.0441
1.04412
1.04404
1.04396
1.0438
1.04367
1.04342
1.04324
1.04291
1.04267
1.04227
1.04196
1.04149
1.04111
1.04058
1.0401
1.03956
1.03893
1.03843
1.0376
1.0372
1.03609
1.03587
1.03441
1.05053
1.05054
1.05046
1.05038
1.05022
1.05009
1.04984
1.04966
1.04933
1.04909
1.04868
1.04838
1.04789
1.04752
1.04698
1.04651
1.04595
1.04534
1.04482
1.04399
1.04357
1.04247
1.04224
1.04077
1.05745
1.05747
1.05739
1.05731
1.05714
1.05702
1.05676
1.05658
1.05624
1.05601
1.05559
1.05529
1.05479
1.05443
1.05387
1.05341
1.05284
1.05223
1.05169
1.05088
1.05045
1.04935
1.04911
1.04764
1.06488
1.0649
1.06482
1.06474
1.06458
1.06445
1.06419
1.06402
1.06367
1.06344
1.063
1.06272
1.06221
1.06185
1.06128
1.06083
1.06024
1.05964
1.05908
1.05827
1.05783
1.05673
1.05648
1.055
1.07274
1.07276
1.07268
1.0726
1.07243
1.07231
1.07205
1.07187
1.07152
1.0713
1.07085
1.07057
1.07005
1.0697
1.06912
1.06867
1.06807
1.06747
1.06691
1.06611
1.06564
1.06455
1.0643
1.06282
1.08095
1.08097
1.08089
1.08082
1.08064
1.08052
1.08025
1.08009
1.07972
1.07951
1.07905
1.07878
1.07824
1.07791
1.07731
1.07688
1.07625
1.07567
1.07509
1.0743
1.07382
1.07274
1.07247
1.07099
1.08948
1.0895
1.08942
1.08935
1.08917
1.08905
1.08878
1.08862
1.08825
1.08804
1.08758
1.08731
1.08676
1.08644
1.08582
1.0854
1.08476
1.08419
1.08359
1.08282
1.08233
1.08125
1.08098
1.0795
1.09825
1.09828
1.09819
1.09812
1.09795
1.09783
1.09756
1.0974
1.09702
1.09682
1.09635
1.09609
1.09553
1.09522
1.09459
1.09418
1.09352
1.09297
1.09236
1.09159
1.09109
1.09002
1.08974
1.08826
1.10721
1.10723
1.10715
1.10708
1.10691
1.10679
1.10652
1.10636
1.10598
1.10578
1.1053
1.10505
1.10449
1.10418
1.10354
1.10315
1.10247
1.10194
1.10131
1.10056
1.10004
1.09899
1.0987
1.09723
1.11628
1.1163
1.11623
1.11615
1.11598
1.11586
1.11559
1.11543
1.11506
1.11486
1.11438
1.11414
1.11357
1.11326
1.11262
1.11224
1.11155
1.11104
1.11039
1.10966
1.10913
1.10809
1.10779
1.10633
1.1254
1.12543
1.12535
1.12528
1.12511
1.12499
1.12472
1.12456
1.12419
1.12399
1.12352
1.12327
1.1227
1.12241
1.12176
1.12139
1.1207
1.1202
1.11954
1.11882
1.11828
1.11726
1.11695
1.1155
1.13451
1.13454
1.13446
1.13439
1.13422
1.1341
1.13384
1.13367
1.13331
1.13311
1.13264
1.1324
1.13183
1.13154
1.1309
1.13053
1.12984
1.12936
1.12868
1.12799
1.12744
1.12643
1.12612
1.12469
1.14354
1.14356
1.14349
1.14342
1.14326
1.14313
1.14288
1.14271
1.14236
1.14215
1.14169
1.14145
1.14089
1.14061
1.13996
1.13961
1.13891
1.13845
1.13776
1.13709
1.13654
1.13556
1.13524
1.13382
1.15243
1.15245
1.15238
1.15231
1.15215
1.15202
1.15178
1.15161
1.15126
1.15106
1.15061
1.15037
1.14981
1.14954
1.14889
1.14856
1.14786
1.14742
1.14672
1.14608
1.14552
1.14456
1.14424
1.14285
1.16112
1.16114
1.16107
1.16099
1.16084
1.16072
1.16048
1.16031
1.15997
1.15977
1.15932
1.15909
1.15854
1.15828
1.15764
1.15731
1.15661
1.15619
1.1555
1.15489
1.15432
1.15339
1.15307
1.1517
1.16955
1.16957
1.1695
1.16942
1.16928
1.16915
1.16892
1.16876
1.16842
1.16823
1.16779
1.16757
1.16703
1.16677
1.16613
1.16583
1.16513
1.16473
1.16403
1.16346
1.16289
1.16199
1.16166
1.16033
1.17767
1.17769
1.17762
1.17755
1.17741
1.17729
1.17706
1.1769
1.17658
1.17638
1.17596
1.17574
1.17521
1.17497
1.17434
1.17405
1.17336
1.17298
1.17229
1.17175
1.17117
1.1703
1.16998
1.16867
1.18543
1.18545
1.18539
1.18532
1.18518
1.18506
1.18484
1.18469
1.18437
1.18419
1.18378
1.18357
1.18305
1.18282
1.18221
1.18193
1.18125
1.1809
1.18021
1.1797
1.17911
1.17829
1.17796
1.1767
1.1928
1.19282
1.19276
1.19269
1.19256
1.19245
1.19223
1.19208
1.19178
1.19161
1.1912
1.19101
1.1905
1.19029
1.18969
1.18943
1.18877
1.18844
1.18776
1.18728
1.18669
1.18592
1.18559
1.18437
1.19974
1.19976
1.1997
1.19963
1.19951
1.1994
1.1992
1.19905
1.19876
1.1986
1.19821
1.19802
1.19753
1.19733
1.19675
1.19652
1.19586
1.19556
1.1949
1.19445
1.19387
1.19314
1.19282
1.19164
1.20622
1.20623
1.20618
1.20612
1.206
1.20589
1.2057
1.20557
1.20528
1.20513
1.20475
1.20459
1.20411
1.20393
1.20336
1.20315
1.20251
1.20224
1.20159
1.20118
1.2006
1.19992
1.19961
1.19848
1.21221
1.21222
1.21217
1.21211
1.212
1.2119
1.21172
1.21159
1.21132
1.21118
1.21082
1.21067
1.2102
1.21005
1.20949
1.20931
1.20869
1.20845
1.20781
1.20744
1.20688
1.20625
1.20594
1.20487
1.21769
1.21771
1.21766
1.21761
1.2175
1.21741
1.21723
1.21712
1.21686
1.21673
1.21638
1.21625
1.2158
1.21566
1.21513
1.21497
1.21437
1.21416
1.21354
1.21321
1.21266
1.21209
1.21179
1.21078
1.22266
1.22267
1.22263
1.22257
1.22247
1.22239
1.22222
1.22212
1.22187
1.22176
1.22142
1.22131
1.22088
1.22077
1.22025
1.22012
1.21954
1.21936
1.21876
1.21847
1.21794
1.21742
1.21713
1.21618
1.22708
1.2271
1.22706
1.22701
1.22691
1.22684
1.22668
1.22659
1.22635
1.22626
1.22594
1.22584
1.22543
1.22534
1.22484
1.22475
1.22418
1.22404
1.22347
1.22321
1.2227
1.22224
1.22195
1.22107
1.23096
1.23097
1.23093
1.23089
1.2308
1.23074
1.23059
1.23051
1.23029
1.23021
1.2299
1.22983
1.22944
1.22937
1.22889
1.22883
1.22829
1.22818
1.22763
1.22742
1.22693
1.22652
1.22624
1.22542
1.23429
1.2343
1.23427
1.23423
1.23415
1.23409
1.23395
1.23389
1.23368
1.23362
1.23333
1.23328
1.23291
1.23287
1.23241
1.23238
1.23186
1.23179
1.23126
1.23109
1.23063
1.23027
1.23
1.22925
1.23707
1.23708
1.23705
1.23701
1.23694
1.23689
1.23676
1.23671
1.23652
1.23647
1.2362
1.23617
1.23582
1.23581
1.23537
1.23537
1.23488
1.23485
1.23434
1.23422
1.23378
1.23347
1.23322
1.23254
1.2393
1.23931
1.23928
1.23925
1.23919
1.23915
1.23903
1.23899
1.23881
1.23878
1.23853
1.23853
1.23819
1.23821
1.2378
1.23783
1.23735
1.23737
1.23688
1.23681
1.23639
1.23613
1.23591
1.2353
1.24099
1.241
1.24098
1.24095
1.24089
1.24086
1.24075
1.24073
1.24056
1.24055
1.24032
1.24033
1.24002
1.24007
1.23967
1.23974
1.23929
1.23935
1.23888
1.23887
1.23847
1.23826
1.23805
1.23752
1.24231
1.24232
1.2423
1.24228
1.24222
1.24219
1.24209
1.24208
1.24192
1.24192
1.24169
1.24172
1.24142
1.24148
1.2411
1.24119
1.24075
1.24084
1.24038
1.24041
1.24002
1.23988
1.23968
1.23921
1.24282
1.24283
1.24281
1.2428
1.24276
1.24275
1.24267
1.24268
1.24255
1.24258
1.2424
1.24247
1.2422
1.24232
1.24198
1.24213
1.24173
1.24188
1.24145
1.24154
1.24118
1.24111
1.24093
1.24054
1.24293
1.24294
1.24292
1.24291
1.24287
1.24286
1.24278
1.24279
1.24267
1.24271
1.24252
1.2426
1.24234
1.24247
1.24214
1.24231
1.24192
1.24211
1.24169
1.24184
1.24148
1.24147
1.2413
1.24103
1.24247
1.24249
1.24247
1.24247
1.24244
1.24244
1.24238
1.24241
1.24231
1.24237
1.24221
1.24232
1.24209
1.24225
1.24195
1.24216
1.24179
1.24203
1.24165
1.24186
1.24152
1.2416
1.24143
1.24118
1.24146
1.24147
1.24146
1.24146
1.24144
1.24145
1.2414
1.24144
1.24135
1.24142
1.24128
1.24141
1.2412
1.24139
1.2411
1.24135
1.241
1.24129
1.2409
1.24119
1.24084
1.24102
1.24085
1.24075
1.23996
1.23997
1.23996
1.23996
1.23995
1.23997
1.23993
1.23998
1.23991
1.24
1.23988
1.24003
1.23984
1.24006
1.2398
1.24009
1.23976
1.2401
1.23975
1.24008
1.23975
1.23999
1.23983
1.23977
1.23799
1.238
1.238
1.23801
1.238
1.23802
1.23799
1.23806
1.23799
1.2381
1.23799
1.23816
1.23799
1.23823
1.23799
1.23831
1.238
1.23839
1.23803
1.23844
1.23811
1.23842
1.23827
1.2383
1.23556
1.23557
1.23557
1.23558
1.23558
1.23561
1.2356
1.23568
1.23563
1.23576
1.23567
1.23587
1.23572
1.236
1.23577
1.23613
1.23583
1.23627
1.23591
1.23637
1.23605
1.23641
1.23626
1.23636
1.23263
1.23264
1.23264
1.23266
1.23266
1.2327
1.2327
1.23278
1.23275
1.23289
1.23282
1.23303
1.23289
1.23321
1.23299
1.23341
1.23311
1.23362
1.23327
1.2338
1.23349
1.23394
1.23381
1.234
1.22925
1.22926
1.22926
1.22929
1.2293
1.22935
1.22936
1.22946
1.22945
1.22961
1.22955
1.2298
1.22968
1.23002
1.22982
1.23027
1.22998
1.23052
1.23019
1.23076
1.23047
1.23096
1.23084
1.23109
1.22539
1.22539
1.2254
1.22543
1.22544
1.2255
1.22552
1.22563
1.22562
1.2258
1.22575
1.22602
1.22591
1.2263
1.2261
1.22661
1.22634
1.22694
1.22663
1.22726
1.22699
1.22756
1.22745
1.22779
1.22111
1.22112
1.22113
1.22116
1.22119
1.22125
1.22128
1.22141
1.22142
1.22162
1.22159
1.22189
1.22178
1.2222
1.22201
1.22255
1.22229
1.22292
1.22263
1.22329
1.22304
1.22365
1.22355
1.22395
1.21637
1.21638
1.21639
1.21642
1.21646
1.21653
1.21657
1.2167
1.21672
1.21693
1.21691
1.21723
1.21714
1.21759
1.21742
1.218
1.21777
1.21845
1.21818
1.2189
1.21867
1.21935
1.21927
1.21975
1.21124
1.21125
1.21127
1.2113
1.21135
1.21143
1.21148
1.21162
1.21166
1.2119
1.21188
1.21224
1.21215
1.21263
1.21248
1.21308
1.21286
1.21356
1.21331
1.21407
1.21385
1.21457
1.2145
1.21504
1.2057
1.2057
1.20572
1.20576
1.20581
1.20589
1.20595
1.2061
1.20614
1.20639
1.20638
1.20676
1.20669
1.20719
1.20706
1.20769
1.2075
1.20824
1.20802
1.20883
1.20863
1.20942
1.20936
1.20999
1.19976
1.19977
1.1998
1.19983
1.19989
1.19997
1.20005
1.20021
1.20027
1.20054
1.20055
1.20094
1.20089
1.20142
1.20131
1.20196
1.20179
1.20255
1.20235
1.20318
1.203
1.20383
1.20377
1.20445
1.19346
1.19346
1.19349
1.19353
1.1936
1.19368
1.19377
1.19393
1.194
1.19428
1.1943
1.1947
1.19467
1.19521
1.19512
1.19579
1.19564
1.19644
1.19626
1.19714
1.19698
1.19787
1.19782
1.19858
1.18679
1.18679
1.18682
1.18686
1.18693
1.18702
1.18712
1.18729
1.18738
1.18766
1.1877
1.18813
1.18811
1.18867
1.1886
1.18929
1.18916
1.18999
1.18982
1.19073
1.19058
1.19151
1.19147
1.19228
1.17977
1.17977
1.1798
1.17984
1.17992
1.18002
1.18013
1.18029
1.1804
1.18068
1.18074
1.18117
1.18117
1.18175
1.18169
1.18241
1.1823
1.18315
1.183
1.18395
1.18382
1.18479
1.18477
1.18564
1.17242
1.17242
1.17246
1.1725
1.17259
1.17268
1.1728
1.17297
1.1731
1.17338
1.17347
1.17389
1.17391
1.1745
1.17446
1.1752
1.1751
1.17597
1.17584
1.17682
1.1767
1.17771
1.1777
1.17862
1.16474
1.16474
1.16477
1.16482
1.1649
1.16501
1.16513
1.1653
1.16545
1.16572
1.16584
1.16626
1.16631
1.16691
1.16689
1.16765
1.16757
1.16847
1.16835
1.16936
1.16925
1.1703
1.1703
1.17127
1.15679
1.15678
1.15682
1.15687
1.15696
1.15706
1.15719
1.15737
1.15753
1.1578
1.15793
1.15835
1.15842
1.15902
1.15901
1.15977
1.15971
1.16062
1.16052
1.16155
1.16146
1.16255
1.16255
1.16357
1.14849
1.14849
1.14853
1.14858
1.14867
1.14878
1.14892
1.1491
1.14926
1.14954
1.1497
1.15012
1.15022
1.15082
1.15084
1.15162
1.15158
1.15251
1.15243
1.15348
1.1534
1.15452
1.15452
1.15559
1.13998
1.13997
1.14001
1.14006
1.14016
1.14027
1.14041
1.14059
1.14076
1.14103
1.1412
1.14161
1.14173
1.14232
1.14236
1.14313
1.1431
1.14404
1.14397
1.14505
1.14498
1.14613
1.14614
1.14725
1.13115
1.13114
1.13119
1.13124
1.13133
1.13145
1.1316
1.13178
1.13197
1.13225
1.13243
1.13285
1.13299
1.13359
1.13365
1.13444
1.13443
1.13539
1.13533
1.13642
1.13636
1.13753
1.13754
1.13868
1.1221
1.1221
1.12214
1.12219
1.12228
1.1224
1.12255
1.12273
1.12292
1.12319
1.12339
1.1238
1.12395
1.12453
1.12461
1.12539
1.12539
1.12636
1.12632
1.12743
1.12738
1.12858
1.12861
1.12979
1.11282
1.11281
1.11286
1.11291
1.11301
1.11313
1.11328
1.11347
1.11366
1.11395
1.11415
1.11456
1.11474
1.11532
1.11542
1.11621
1.11622
1.1172
1.11716
1.11828
1.11823
1.11944
1.11946
1.12066
1.10328
1.10327
1.10331
1.10336
1.10346
1.10358
1.10373
1.10392
1.10412
1.1044
1.10461
1.10502
1.1052
1.10578
1.1059
1.10668
1.10671
1.1077
1.10767
1.10882
1.10878
1.11002
1.11005
1.1113
1.09358
1.09357
1.09362
1.09367
1.09377
1.09389
1.09405
1.09424
1.09444
1.09473
1.09495
1.09535
1.09555
1.09613
1.09625
1.09704
1.09707
1.09806
1.09803
1.09917
1.09914
1.10038
1.10041
1.10166
1.0836
1.08359
1.08363
1.08368
1.08379
1.08391
1.08407
1.08427
1.08447
1.08476
1.08499
1.08539
1.0856
1.08618
1.08632
1.08711
1.08717
1.08816
1.08815
1.08931
1.08929
1.09056
1.09059
1.09187
1.07351
1.0735
1.07355
1.0736
1.07371
1.07383
1.07399
1.07419
1.0744
1.07468
1.07492
1.07532
1.07554
1.07611
1.07626
1.07704
1.0771
1.07809
1.07807
1.07923
1.0792
1.08047
1.0805
1.08179
1.06318
1.06316
1.06321
1.06326
1.06337
1.0635
1.06366
1.06387
1.06408
1.06438
1.06462
1.06503
1.06526
1.06583
1.066
1.06678
1.06686
1.06786
1.06785
1.06902
1.069
1.07028
1.07031
1.07161
1.05274
1.05272
1.05277
1.05282
1.05293
1.05305
1.05322
1.05342
1.05364
1.05393
1.05418
1.05458
1.05482
1.05538
1.05556
1.05633
1.05641
1.0574
1.0574
1.05857
1.05855
1.05984
1.05986
1.06118
1.04216
1.04214
1.04219
1.04224
1.04235
1.04247
1.04264
1.04284
1.04306
1.04335
1.0436
1.04401
1.04426
1.04482
1.04501
1.04577
1.04587
1.04686
1.04686
1.04804
1.048
1.0493
1.04931
1.05063
1.03147
1.03145
1.03149
1.03154
1.03164
1.03176
1.03192
1.03211
1.03233
1.03261
1.03285
1.03325
1.0335
1.03404
1.03425
1.03499
1.0351
1.03609
1.0361
1.03728
1.03725
1.03856
1.03857
1.03991
1.02076
1.02075
1.02078
1.02083
1.02092
1.02103
1.02119
1.02137
1.02157
1.02184
1.02208
1.02246
1.0227
1.02323
1.02343
1.02415
1.02427
1.02523
1.02524
1.02642
1.02637
1.02768
1.02768
1.02901
1.00993
1.00991
1.00994
1.00997
1.01006
1.01016
1.0103
1.01047
1.01066
1.01091
1.01113
1.01149
1.01172
1.01222
1.01243
1.01312
1.01325
1.01419
1.0142
1.01539
1.01534
1.01668
1.01667
1.01803
0.999148
0.999123
0.99915
0.999177
0.999257
0.999342
0.999472
0.99962
0.999794
1.00002
1.00022
1.00055
1.00076
1.00123
1.00141
1.00206
1.00216
1.00306
1.00305
1.00421
1.00412
1.00546
1.00543
1.00681
0.988154
0.988123
0.988154
0.988166
0.988253
0.988315
0.988451
0.988574
0.988751
0.988951
0.989153
0.989454
0.989658
0.990105
0.990255
0.990915
0.990963
0.991886
0.99181
0.992994
0.992853
0.994189
0.994139
0.9955
0.977124
0.977089
0.977123
0.977129
0.977219
0.977274
0.977414
0.977526
0.977705
0.977888
0.978089
0.978367
0.978562
0.97898
0.979098
0.979754
0.979733
0.980656
0.980497
0.981667
0.981451
0.982758
0.982649
0.983941
0.965709
0.965676
0.965709
0.965727
0.965817
0.965891
0.966034
0.966168
0.966354
0.966557
0.966772
0.967063
0.967279
0.967695
0.967842
0.968495
0.968481
0.969414
0.969237
0.97043
0.970166
0.971485
0.971313
0.972546
0.954022
0.953988
0.95403
0.954057
0.954164
0.954257
0.954422
0.954581
0.954797
0.955027
0.955276
0.955592
0.955845
0.956273
0.956477
0.957112
0.957136
0.958073
0.957888
0.959099
0.958797
0.960154
0.959934
0.961195
0.941743
0.941707
0.941767
0.941801
0.941942
0.942052
0.942268
0.942454
0.942737
0.943001
0.943332
0.943688
0.944035
0.944514
0.944812
0.945502
0.945608
0.946617
0.946482
0.947781
0.947488
0.948943
0.948689
0.950033
0.928947
0.928912
0.928982
0.929038
0.929198
0.929347
0.929595
0.929835
0.930165
0.930497
0.930894
0.931326
0.931759
0.932319
0.93273
0.933483
0.933724
0.934815
0.93478
0.936191
0.935947
0.937546
0.937288
0.938799
0.915442
0.915412
0.915483
0.915569
0.915738
0.915937
0.916205
0.916515
0.916878
0.917302
0.917748
0.918293
0.918804
0.919482
0.920024
0.920865
0.921331
0.922487
0.922684
0.924243
0.92414
0.92596
0.925752
0.927514
0.901323
0.901297
0.90137
0.901474
0.901656
0.901884
0.902178
0.902531
0.902932
0.903414
0.903915
0.904536
0.905122
0.905894
0.906546
0.907488
0.908158
0.909353
0.90987
0.911493
0.91168
0.913742
0.913681
0.915844
0.886546
0.886522
0.886597
0.88671
0.886903
0.887149
0.887462
0.887841
0.888273
0.888793
0.889336
0.890009
0.890656
0.891497
0.892234
0.893263
0.894067
0.895337
0.896122
0.897762
0.898349
0.900548
0.900775
0.903458
0.871239
0.871215
0.871288
0.871405
0.871601
0.871852
0.872173
0.872562
0.873006
0.873539
0.874103
0.874794
0.87547
0.876335
0.877115
0.87818
0.879048
0.880362
0.881272
0.88292
0.883781
0.885976
0.886515
0.889638
0.855452
0.855426
0.855497
0.855611
0.855806
0.856053
0.856375
0.85676
0.857206
0.857736
0.858303
0.85899
0.859673
0.860535
0.861326
0.862384
0.863268
0.864575
0.865501
0.867148
0.868031
0.870218
0.870805
0.873952
0.83932
0.839288
0.839356
0.839462
0.839651
0.839888
0.840202
0.840571
0.841009
0.841518
0.842075
0.842735
0.843407
0.844235
0.845011
0.846031
0.846897
0.848156
0.849047
0.850657
0.851446
0.853612
0.854088
0.857018
0.822924
0.822886
0.82295
0.823045
0.823227
0.823447
0.82375
0.824096
0.82452
0.824999
0.82554
0.826162
0.826814
0.827597
0.828347
0.829311
0.830144
0.83133
0.832179
0.833711
0.83443
0.836493
0.836923
0.839661
0.806372
0.806326
0.806388
0.806467
0.806643
0.806839
0.807133
0.807445
0.807856
0.80829
0.808817
0.809382
0.810016
0.81073
0.811456
0.812347
0.813142
0.814246
0.81505
0.816489
0.817153
0.819085
0.819486
0.822045
0.789741
0.789687
0.789751
0.789805
0.789984
0.790143
0.79044
0.790701
0.791116
0.791483
0.792015
0.792497
0.793136
0.793753
0.794477
0.795266
0.796036
0.797046
0.7978
0.79914
0.799757
0.801543
0.801921
0.804292
0.773114
0.773054
0.773116
0.773153
0.773325
0.773456
0.773742
0.773962
0.774368
0.774676
0.775201
0.775606
0.776239
0.776762
0.777478
0.778159
0.778913
0.779816
0.780532
0.781765
0.782343
0.783981
0.784339
0.786523
0.756546
0.756483
0.756534
0.756567
0.756715
0.75684
0.757091
0.7573
0.757661
0.757952
0.758425
0.758802
0.75938
0.75986
0.760523
0.761136
0.761847
0.762651
0.763333
0.764442
0.764985
0.766473
0.766814
0.768809
0.740112
0.740047
0.740085
0.740116
0.740238
0.740359
0.740569
0.740775
0.74108
0.741366
0.74177
0.742137
0.742639
0.743094
0.743683
0.744251
0.744896
0.745623
0.746269
0.747243
0.747764
0.749107
0.749433
0.751243
0.723826
0.723759
0.723788
0.723813
0.723916
0.724026
0.724208
0.724397
0.724663
0.724929
0.725284
0.725625
0.726068
0.726491
0.727014
0.727534
0.728118
0.728768
0.729372
0.730214
0.730724
0.731915
0.732227
0.733852
0.707773
0.707705
0.707726
0.707744
0.707829
0.707925
0.708082
0.708252
0.708484
0.708723
0.709034
0.709343
0.709733
0.710115
0.710581
0.711046
0.711573
0.712147
0.712705
0.713435
0.713933
0.714972
0.71527
0.716717
0.691926
0.691856
0.69187
0.69188
0.691952
0.692033
0.692168
0.692317
0.69252
0.692732
0.693005
0.69328
0.693626
0.693965
0.69438
0.694791
0.695265
0.695767
0.696275
0.696905
0.697386
0.698273
0.698559
0.69983
0.67639
0.676319
0.676327
0.676329
0.676387
0.676454
0.676568
0.676695
0.67687
0.677054
0.677291
0.677531
0.677833
0.678129
0.678495
0.678851
0.679274
0.679705
0.680166
0.680702
0.681154
0.681898
0.682179
0.683278
0.661091
0.66102
0.661021
0.661016
0.661062
0.661115
0.66121
0.661317
0.661466
0.661623
0.661828
0.662033
0.662297
0.66255
0.662872
0.663177
0.663552
0.663918
0.664332
0.664784
0.665199
0.66581
0.666086
0.667022
0.646162
0.646091
0.646086
0.646075
0.646108
0.646148
0.646225
0.646312
0.646436
0.646566
0.646739
0.646911
0.647137
0.647349
0.647627
0.64788
0.648209
0.648511
0.648879
0.649249
0.649625
0.650115
0.650385
0.651168
0.631487
0.631415
0.631406
0.631388
0.631411
0.631438
0.631499
0.631566
0.631667
0.631773
0.631917
0.632057
0.632248
0.632421
0.63266
0.632865
0.63315
0.633392
0.633716
0.63401
0.634346
0.634733
0.634994
0.635629
0.617223
0.617152
0.617138
0.617114
0.617127
0.617142
0.617186
0.617236
0.617315
0.617396
0.617512
0.617622
0.617779
0.617913
0.618114
0.618271
0.618516
0.618698
0.618981
0.6192
0.619498
0.619789
0.620041
0.620529
0.603223
0.603152
0.603134
0.603105
0.603108
0.603112
0.603142
0.603174
0.603233
0.603291
0.603382
0.603462
0.603588
0.603687
0.603852
0.603966
0.604172
0.604301
0.604544
0.604697
0.604958
0.605163
0.605396
0.60575
0.589657
0.589587
0.589566
0.589532
0.589526
0.589519
0.589535
0.589551
0.589591
0.589627
0.589693
0.589745
0.589842
0.589906
0.590037
0.590108
0.590279
0.590354
0.590561
0.590648
0.590877
0.591
0.591209
0.591438
0.576363
0.576294
0.576269
0.576231
0.576217
0.576201
0.576203
0.576205
0.576225
0.576242
0.576284
0.576312
0.57638
0.576413
0.576512
0.576544
0.576679
0.576706
0.576878
0.576903
0.5771
0.577145
0.577331
0.577449
0.563511
0.563443
0.563416
0.563373
0.563352
0.563327
0.563317
0.563304
0.563308
0.563305
0.563326
0.563329
0.563371
0.563373
0.563442
0.563436
0.563539
0.563519
0.563657
0.563624
0.563789
0.563759
0.56392
0.563937
0.550939
0.550872
0.550843
0.550796
0.550768
0.550734
0.550713
0.550688
0.550675
0.550655
0.550655
0.550636
0.550653
0.550627
0.550668
0.550627
0.550699
0.550636
0.550743
0.550655
0.550792
0.55069
0.550832
0.550752
0.538804
0.538739
0.538707
0.538657
0.538623
0.538581
0.53855
0.538512
0.538485
0.538448
0.53843
0.538389
0.538383
0.538331
0.538345
0.538272
0.538315
0.538212
0.53829
0.53815
0.538262
0.538093
0.538219
0.538047
0.526955
0.526892
0.526858
0.526805
0.526765
0.526717
0.526675
0.526627
0.526586
0.526534
0.526498
0.526437
0.526411
0.526333
0.526324
0.52622
0.526238
0.526096
0.526149
0.525961
0.52605
0.525819
0.525931
0.525675
0.51553
0.515469
0.515433
0.515378
0.515333
0.515278
0.515227
0.515169
0.515116
0.51505
0.514997
0.514918
0.514873
0.514772
0.514741
0.514609
0.514603
0.514425
0.514455
0.514223
0.514292
0.514003
0.514103
0.51377
0.504395
0.504335
0.504298
0.504241
0.504191
0.50413
0.504072
0.504004
0.503939
0.50386
0.503793
0.503697
0.503634
0.503512
0.503461
0.503302
0.503275
0.503065
0.503073
0.5028
0.502851
0.502509
0.502599
0.502194
0.493666
0.493608
0.49357
0.493511
0.493457
0.493391
0.493325
0.493248
0.493173
0.493082
0.493001
0.49289
0.49281
0.492669
0.4926
0.492416
0.49237
0.492129
0.492119
0.491807
0.491842
0.491451
0.491532
0.491062
0.483227
0.483171
0.483132
0.483071
0.483013
0.482943
0.48287
0.482785
0.482701
0.482599
0.482506
0.48238
0.482285
0.482126
0.48204
0.481834
0.481769
0.481501
0.481473
0.481126
0.481146
0.480709
0.480782
0.480252
0.473175
0.473121
0.473081
0.473019
0.472958
0.472883
0.472804
0.472713
0.472619
0.472507
0.472402
0.472263
0.472155
0.471979
0.471877
0.471651
0.47157
0.471276
0.471231
0.470852
0.470859
0.47038
0.470446
0.469861
0.46341
0.463358
0.463317
0.463254
0.46319
0.463111
0.463026
0.462928
0.462826
0.462705
0.46259
0.462439
0.462318
0.462126
0.46201
0.461765
0.461668
0.461351
0.461291
0.460882
0.460876
0.460359
0.460418
0.459782
0.454011
0.453962
0.45392
0.453857
0.453789
0.453707
0.453617
0.453513
0.453404
0.453274
0.453149
0.452987
0.452854
0.452648
0.452519
0.452256
0.452146
0.451806
0.451733
0.451296
0.451279
0.450727
0.450778
0.450096
0.444893
0.444846
0.444804
0.444739
0.44467
0.444584
0.44449
0.44438
0.444264
0.444126
0.443993
0.44382
0.443677
0.443458
0.443317
0.443037
0.442913
0.442554
0.442467
0.442006
0.441977
0.441392
0.441437
0.440712
0.436122
0.436077
0.436034
0.43597
0.435897
0.435809
0.435711
0.435596
0.435474
0.435328
0.435188
0.435004
0.434853
0.43462
0.434469
0.434174
0.434038
0.43366
0.433561
0.433077
0.433036
0.432422
0.432461
0.431695
0.427623
0.42758
0.427537
0.427471
0.427397
0.427306
0.427205
0.427085
0.426958
0.426805
0.426658
0.426465
0.426305
0.426061
0.4259
0.42559
0.425444
0.425049
0.424938
0.424433
0.424382
0.42374
0.423772
0.422969
0.419454
0.419413
0.41937
0.419304
0.419229
0.419135
0.41903
0.418906
0.418775
0.418615
0.418462
0.41826
0.418093
0.417838
0.417669
0.417345
0.417191
0.416779
0.416658
0.416134
0.416072
0.415407
0.415432
0.414594
0.411543
0.411504
0.411461
0.411394
0.411318
0.411221
0.411115
0.410985
0.410851
0.410684
0.410527
0.410316
0.410144
0.409877
0.409703
0.409365
0.409204
0.408776
0.408648
0.408105
0.408036
0.407349
0.407366
0.406499
0.403942
0.403905
0.403862
0.403795
0.403718
0.403619
0.40351
0.403377
0.40324
0.403066
0.402906
0.402686
0.402511
0.402232
0.402054
0.401702
0.401538
0.401093
0.400962
0.4004
0.400327
0.399618
0.399633
0.398741
0.396596
0.39656
0.396517
0.39645
0.396372
0.396271
0.396161
0.396023
0.395884
0.395704
0.395542
0.395313
0.395136
0.394846
0.394666
0.3943
0.394134
0.393672
0.393541
0.392959
0.392887
0.392157
0.392172
0.391261
0.389541
0.389507
0.389464
0.389397
0.389319
0.389215
0.389105
0.388962
0.388822
0.388636
0.388472
0.388234
0.388056
0.387755
0.387574
0.387196
0.387029
0.386552
0.386421
0.385821
0.38575
0.385001
0.385016
0.384088
0.382707
0.382674
0.382632
0.382564
0.382485
0.38238
0.382268
0.382122
0.381981
0.381788
0.381624
0.381378
0.381199
0.380888
0.380707
0.380316
0.380149
0.379658
0.379526
0.378912
0.37884
0.378076
0.37809
0.377146
0.376186
0.376155
0.376113
0.376045
0.375967
0.375858
0.375747
0.375596
0.375456
0.375257
0.375093
0.374838
0.37466
0.374339
0.374157
0.373755
0.373588
0.373084
0.372953
0.372324
0.372252
0.371473
0.371486
0.370528
0.369839
0.36981
0.369768
0.369699
0.369621
0.36951
0.3694
0.369244
0.369104
0.368899
0.368736
0.368473
0.368295
0.367965
0.367784
0.367371
0.367204
0.366689
0.366557
0.365916
0.365843
0.365051
0.365063
0.36409
0.363808
0.36378
0.363738
0.363669
0.363591
0.363478
0.363368
0.363208
0.36307
0.362858
0.362696
0.362425
0.362249
0.361908
0.36173
0.361304
0.36114
0.360612
0.360481
0.359827
0.359754
0.358949
0.35896
0.357975
0.357935
0.357909
0.357868
0.357797
0.357721
0.357605
0.357496
0.357331
0.357195
0.356976
0.356817
0.356536
0.356364
0.356012
0.355837
0.3554
0.355238
0.354697
0.354568
0.353903
0.353829
0.353013
0.353024
0.352026
0.352355
0.35233
0.352289
0.352218
0.352142
0.352024
0.351916
0.351747
0.351612
0.351386
0.35123
0.35094
0.350772
0.350408
0.350238
0.349788
0.34963
0.349077
0.348951
0.348272
0.348201
0.347372
0.347383
0.346374
0.346936
0.346911
0.346871
0.3468
0.346724
0.346603
0.346497
0.346323
0.346191
0.345957
0.345806
0.345506
0.345343
0.344967
0.344803
0.344339
0.344188
0.34362
0.343499
0.342807
0.342739
0.341898
0.34191
0.340891
0.34179
0.341766
0.341726
0.341654
0.341579
0.341456
0.341351
0.341172
0.341042
0.340801
0.340654
0.340344
0.340187
0.339798
0.339641
0.339163
0.339019
0.338436
0.338322
0.337616
0.337552
0.336699
0.336713
0.335685
0.336795
0.336772
0.336732
0.336659
0.336585
0.336459
0.336356
0.336172
0.336046
0.335797
0.335654
0.335334
0.335183
0.334782
0.334633
0.33414
0.334005
0.333407
0.3333
0.33258
0.332522
0.331657
0.331673
0.330637
0.332046
0.332024
0.331985
0.331911
0.331837
0.331709
0.331607
0.331419
0.331294
0.331039
0.330901
0.33057
0.330426
0.330011
0.329871
0.329362
0.329237
0.328622
0.328526
0.32779
0.327739
0.326863
0.32688
0.325839
0.32746
0.327439
0.327399
0.327326
0.327251
0.327122
0.32702
0.326828
0.326705
0.326443
0.326309
0.325968
0.325831
0.325403
0.325272
0.324748
0.324633
0.324002
0.323916
0.323165
0.323122
0.322234
0.322255
0.321209
0.323086
0.323066
0.323025
0.322952
0.322877
0.322746
0.322643
0.322449
0.322327
0.32206
0.321928
0.321579
0.321446
0.321007
0.320883
0.320345
0.32024
0.319592
0.319517
0.31875
0.318716
0.317818
0.317841
0.316792
0.318883
0.318864
0.318823
0.31875
0.318673
0.318542
0.318438
0.318242
0.318119
0.317848
0.317716
0.317362
0.317231
0.316784
0.316664
0.316114
0.316016
0.315355
0.315288
0.314507
0.31448
0.313573
0.313598
0.312547
0.314868
0.31485
0.314807
0.314735
0.314656
0.314526
0.314418
0.314223
0.314096
0.313825
0.31369
0.313333
0.3132
0.312748
0.312628
0.312071
0.311974
0.311305
0.31124
0.310451
0.310427
0.309513
0.309538
0.308485
0.311024
0.311006
0.310963
0.310891
0.310809
0.31068
0.310569
0.310374
0.310243
0.309972
0.309832
0.309474
0.309337
0.308883
0.308759
0.308199
0.308099
0.307426
0.307358
0.306566
0.306538
0.30562
0.305644
0.304587
0.307352
0.307335
0.30729
0.307219
0.307135
0.307007
0.306891
0.306697
0.30656
0.306291
0.306143
0.305788
0.305643
0.30519
0.305058
0.304499
0.304391
0.303718
0.303643
0.30285
0.302817
0.301897
0.301916
0.300857
0.303844
0.303828
0.303782
0.303711
0.303624
0.303497
0.303376
0.303185
0.30304
0.302774
0.302617
0.302265
0.30211
0.30166
0.301518
0.300962
0.300844
0.300172
0.300088
0.299296
0.299255
0.298335
0.298348
0.297289
0.300498
0.300481
0.300435
0.300364
0.300274
0.300148
0.300021
0.299833
0.29968
0.299417
0.29925
0.298903
0.298735
0.298292
0.298135
0.297585
0.297452
0.296786
0.296689
0.2959
0.295849
0.29493
0.294937
0.293878
0.297307
0.297291
0.297243
0.297173
0.29708
0.296955
0.296822
0.296636
0.296474
0.296216
0.296037
0.295696
0.295513
0.295078
0.294904
0.294363
0.294212
0.293555
0.29344
0.292658
0.292593
0.291677
0.291676
0.290618
0.294268
0.294251
0.294203
0.294132
0.294036
0.293911
0.293774
0.29359
0.293419
0.293166