/*--------------------------------*- C++ -*----------------------------------*\
  =========                 |
  \\      /  F ield         | OpenFOAM: The Open Source CFD Toolbox
   \\    /   O peration     | Website:  https://openfoam.org
    \\  /    A nd           | Version:  10
     \\/     M anipulation  |
\*---------------------------------------------------------------------------*/
FoamFile
{
    format      ascii;
    class       volScalarField;
    location    "0.05";
    object      p;
}
// * * * * * * * * * * * * * * * * * * * * * * * * * * * * * * * * * * * * * //

dimensions      [1 -1 -2 0 0 0 0];

internalField   nonuniform List<scalar> 
4176
(
3262.64
3262.74
3262.98
3263.31
3263.81
3264.34
3265.09
3265.85
3266.84
3267.84
3269.05
3270.33
3271.71
3273.37
3274.79
3277.01
3278.26
3281.2
3282.24
3285.92
3286.64
3291.04
3291.3
3296.07
3263.77
3263.87
3264.13
3264.46
3264.97
3265.53
3266.3
3267.08
3268.1
3269.13
3270.39
3271.69
3273.14
3274.8
3276.36
3278.44
3280.08
3282.66
3284.23
3287.59
3288.82
3293.29
3293.91
3299.74
3284.19
3284.3
3284.55
3284.89
3285.42
3285.99
3286.78
3287.58
3288.63
3289.67
3290.96
3292.28
3293.76
3295.45
3297.03
3299.14
3300.79
3303.43
3304.98
3308.39
3309.58
3314.12
3314.77
3320.74
3296.47
3296.58
3296.84
3297.18
3297.73
3298.29
3299.11
3299.9
3300.99
3302.02
3303.35
3304.67
3306.18
3307.91
3309.43
3311.71
3313.14
3316.07
3317.33
3321.01
3321.95
3326.53
3327.04
3332.61
3304.93
3305.03
3305.3
3305.64
3306.2
3306.75
3307.6
3308.38
3309.49
3310.52
3311.87
3313.19
3314.73
3316.45
3317.98
3320.29
3321.72
3324.66
3325.92
3329.62
3330.55
3335.12
3335.6
3341.07
3308.76
3308.87
3309.14
3309.47
3310.04
3310.6
3311.45
3312.24
3313.36
3314.4
3315.76
3317.09
3318.65
3320.34
3321.96
3324.19
3325.72
3328.62
3329.92
3333.61
3334.58
3339.18
3339.69
3345.3
3309.51
3309.62
3309.9
3310.23
3310.81
3311.36
3312.23
3313.01
3314.15
3315.18
3316.58
3317.9
3319.49
3321.17
3322.82
3325.04
3326.6
3329.5
3330.84
3334.52
3335.53
3340.12
3340.67
3346.29
3307.35
3307.45
3307.73
3308.05
3308.64
3309.18
3310.07
3310.83
3312
3313.01
3314.43
3315.73
3317.35
3319.01
3320.69
3322.89
3324.49
3327.35
3328.73
3332.39
3333.42
3338
3338.56
3344.18
3302.33
3302.42
3302.72
3303.03
3303.64
3304.15
3305.07
3305.8
3307.02
3307.99
3309.45
3310.73
3312.38
3314.02
3315.75
3317.92
3319.56
3322.4
3323.82
3327.46
3328.53
3333.09
3333.68
3339.3
3294.93
3295.02
3295.32
3295.62
3296.25
3296.74
3297.7
3298.39
3299.65
3300.59
3302.09
3303.34
3305.02
3306.64
3308.41
3310.55
3312.24
3315.04
3316.5
3320.1
3321.21
3325.75
3326.36
3331.97
3285.3
3285.38
3285.69
3285.98
3286.61
3287.1
3288.07
3288.75
3290.03
3290.95
3292.49
3293.69
3295.42
3297.01
3298.82
3300.92
3302.66
3305.42
3306.93
3310.5
3311.65
3316.17
3316.8
3322.41
3273.76
3273.85
3274.15
3274.44
3275.08
3275.56
3276.54
3277.21
3278.51
3279.41
3280.98
3282.15
3283.92
3285.47
3287.32
3289.38
3291.17
3293.88
3295.45
3298.97
3300.16
3304.65
3305.3
3310.9
3260.52
3260.6
3260.9
3261.19
3261.84
3262.31
3263.29
3263.96
3265.27
3266.15
3267.74
3268.89
3270.7
3272.21
3274.11
3276.11
3277.95
3280.61
3282.23
3285.7
3286.94
3291.39
3292.08
3297.66
3245.79
3245.87
3246.18
3246.46
3247.11
3247.57
3248.57
3249.22
3250.54
3251.41
3253.02
3254.14
3255.98
3257.45
3259.4
3261.35
3263.23
3265.84
3267.51
3270.94
3272.21
3276.63
3277.34
3282.9
3229.84
3229.92
3230.22
3230.5
3231.15
3231.61
3232.61
3233.25
3234.59
3235.43
3237.06
3238.15
3240.02
3241.45
3243.44
3245.35
3247.27
3249.83
3251.54
3254.92
3256.23
3260.6
3261.34
3266.86
3212.89
3212.96
3213.27
3213.54
3214.2
3214.64
3215.65
3216.28
3217.62
3218.45
3220.1
3221.16
3223.05
3224.44
3226.47
3228.31
3230.3
3232.8
3234.56
3237.87
3239.23
3243.53
3244.3
3249.78
3195.18
3195.25
3195.55
3195.82
3196.48
3196.91
3197.92
3198.54
3199.89
3200.69
3202.36
3203.39
3205.31
3206.65
3208.72
3210.49
3212.54
3214.97
3216.77
3220.01
3221.41
3225.65
3226.45
3231.88
3176.95
3177.02
3177.32
3177.58
3178.24
3178.67
3179.68
3180.28
3181.64
3182.42
3184.1
3185.1
3187.04
3188.33
3190.43
3192.15
3194.23
3196.6
3198.44
3201.6
3203.04
3207.21
3208.03
3213.41
3158.46
3158.52
3158.82
3159.08
3159.73
3160.15
3161.16
3161.74
3163.1
3163.86
3165.55
3166.51
3168.47
3169.72
3171.85
3173.51
3175.62
3177.91
3179.78
3182.87
3184.36
3188.44
3189.3
3194.61
3139.93
3139.99
3140.28
3140.54
3141.18
3141.6
3142.6
3143.17
3144.52
3145.26
3146.95
3147.89
3149.85
3151.06
3153.19
3154.8
3156.95
3159.14
3161.05
3164.06
3165.59
3169.58
3170.47
3175.7
3121.6
3121.67
3121.95
3122.22
3122.83
3123.27
3124.23
3124.82
3126.13
3126.88
3128.53
3129.47
3131.39
3132.59
3134.7
3136.27
3138.44
3140.53
3142.49
3145.41
3146.97
3150.87
3151.78
3156.92
3103.72
3103.79
3104.06
3104.33
3104.92
3105.37
3106.3
3106.9
3108.17
3108.93
3110.53
3111.47
3113.36
3114.54
3116.63
3118.14
3120.31
3122.32
3124.33
3127.14
3128.74
3132.52
3133.46
3138.49
3086.5
3086.57
3086.83
3087.11
3087.67
3088.13
3089.02
3089.64
3090.87
3091.63
3093.19
3094.12
3095.97
3097.12
3099.18
3100.65
3102.81
3104.73
3106.79
3109.46
3111.08
3114.74
3115.71
3120.63
3070.15
3070.22
3070.47
3070.75
3071.3
3071.76
3072.62
3073.23
3074.42
3075.18
3076.7
3077.62
3079.42
3080.54
3082.58
3083.99
3086.14
3087.96
3090.05
3092.59
3094.23
3097.75
3098.74
3103.53
3054.87
3054.94
3055.18
3055.46
3055.99
3056.44
3057.27
3057.88
3059.03
3059.78
3061.25
3062.15
3063.92
3065
3067.01
3068.35
3070.49
3072.22
3074.31
3076.71
3078.37
3081.74
3082.75
3087.38
3040.84
3040.91
3041.14
3041.42
3041.92
3042.37
3043.17
3043.77
3044.88
3045.61
3047.04
3047.91
3049.63
3050.67
3052.64
3053.92
3056.03
3057.67
3059.76
3062
3063.69
3066.91
3067.93
3072.39
3028.22
3028.28
3028.5
3028.78
3029.26
3029.7
3030.47
3031.05
3032.12
3032.83
3034.2
3035.05
3036.71
3037.71
3039.62
3040.84
3042.92
3044.46
3046.54
3048.62
3050.33
3053.4
3054.43
3058.72
3017.14
3017.21
3017.42
3017.68
3018.14
3018.57
3019.3
3019.87
3020.89
3021.58
3022.9
3023.7
3025.31
3026.26
3028.11
3029.26
3031.29
3032.74
3034.79
3036.72
3038.46
3041.34
3042.4
3046.49
3007.73
3007.8
3008
3008.26
3008.69
3009.11
3009.8
3010.35
3011.32
3011.98
3013.24
3014
3015.55
3016.44
3018.23
3019.31
3021.27
3022.62
3024.63
3026.42
3028.18
3030.85
3031.92
3035.82
3000.1
3000.17
3000.35
3000.6
3001.02
3001.41
3002.07
3002.58
3003.52
3004.13
3005.34
3006.05
3007.54
3008.36
3010.09
3011.08
3012.98
3014.21
3016.17
3017.82
3019.58
3022.05
3023.12
3026.8
2994.32
2994.39
2994.57
2994.8
2995.19
2995.56
2996.19
2996.67
2997.56
2998.13
2999.28
2999.94
3001.36
3002.11
3003.77
3004.67
3006.5
3007.62
3009.52
3011.01
3012.76
3015.01
3016.07
3019.52
2990.47
2990.53
2990.7
2990.92
2991.29
2991.64
2992.23
2992.68
2993.51
2994.04
2995.14
2995.73
2997.09
2997.76
2999.35
3000.14
3001.91
3002.91
3004.74
3006.08
3007.79
3009.82
3010.87
3014.07
2988.6
2988.66
2988.82
2989.02
2989.37
2989.69
2990.24
2990.65
2991.44
2991.92
2992.95
2993.48
2994.77
2995.36
2996.88
2997.57
2999.26
3000.13
3001.9
3003.08
3004.73
3006.52
3007.58
3010.52
2988.74
2988.8
2988.95
2989.14
2989.46
2989.75
2990.26
2990.63
2991.37
2991.79
2992.76
2993.22
2994.44
2994.94
2996.38
2996.97
2998.58
2999.32
3001.02
3002.04
3003.64
3005.19
3006.24
3008.91
2990.94
2991
2991.13
2991.31
2991.6
2991.87
2992.34
2992.67
2993.35
2993.71
2994.62
2995.01
2996.15
2996.56
2997.93
2998.39
2999.93
3000.53
3002.15
3003
3004.54
3005.87
3006.9
3009.29
2995.21
2995.27
2995.39
2995.55
2995.82
2996.05
2996.48
2996.77
2997.39
2997.7
2998.54
2998.85
2999.92
3000.24
3001.52
3001.86
3003.32
3003.77
3005.3
3005.99
3007.44
3008.57
3009.59
3011.7
3001.56
3001.62
3001.73
3001.88
3002.11
3002.32
3002.7
3002.94
3003.51
3003.76
3004.53
3004.77
3005.75
3005.97
3007.17
3007.4
3008.76
3009.06
3010.51
3011.01
3012.39
3013.3
3014.31
3016.13
3010
3010.06
3010.15
3010.28
3010.49
3010.67
3011.01
3011.2
3011.71
3011.9
3012.6
3012.75
3013.66
3013.78
3014.89
3014.99
3016.27
3016.42
3017.78
3018.1
3019.4
3020.08
3021.06
3022.59
3020.52
3020.58
3020.66
3020.78
3020.96
3021.1
3021.4
3021.54
3021.99
3022.11
3022.74
3022.81
3023.64
3023.65
3024.68
3024.65
3025.85
3025.83
3027.11
3027.24
3028.46
3028.93
3029.83
3031.06
3033.11
3033.17
3033.24
3033.34
3033.49
3033.6
3033.85
3033.95
3034.34
3034.39
3034.95
3034.94
3035.68
3035.59
3036.53
3036.36
3037.48
3037.29
3038.5
3038.42
3039.58
3039.81
3040.66
3041.56
3047.69
3047.75
3047.81
3047.89
3048.01
3048.09
3048.31
3048.36
3048.69
3048.68
3049.16
3049.07
3049.74
3049.54
3050.4
3050.1
3051.14
3050.78
3051.91
3051.62
3052.71
3052.7
3053.51
3054.09
3063.94
3063.99
3064.04
3064.11
3064.21
3064.27
3064.44
3064.46
3064.74
3064.68
3065.11
3064.95
3065.56
3065.27
3066.07
3065.65
3066.64
3066.14
3067.23
3066.74
3067.8
3067.53
3068.28
3068.61
3082.84
3082.89
3082.92
3082.97
3083.02
3083.03
3083.14
3083.08
3083.27
3083.12
3083.44
3083.15
3083.64
3083.2
3083.86
3083.26
3084.12
3083.39
3084.39
3083.64
3084.62
3084.09
3084.8
3084.74
3103.67
3103.72
3103.74
3103.77
3103.8
3103.77
3103.84
3103.73
3103.88
3103.66
3103.92
3103.55
3103.96
3103.41
3104.02
3103.28
3104.08
3103.15
3104.13
3103.11
3104.09
3103.23
3103.96
3103.56
3126.56
3126.61
3126.62
3126.63
3126.64
3126.59
3126.62
3126.47
3126.56
3126.28
3126.48
3126.04
3126.38
3125.73
3126.26
3125.38
3126.1
3125.02
3125.88
3124.66
3125.56
3124.3
3125.01
3124.19
3151.48
3151.53
3151.53
3151.52
3151.49
3151.39
3151.37
3151.16
3151.18
3150.82
3150.93
3150.37
3150.62
3149.83
3150.25
3149.21
3149.83
3148.51
3149.37
3147.83
3148.79
3147.24
3148.01
3146.87
3178.52
3178.57
3178.55
3178.53
3178.47
3178.35
3178.28
3178.03
3177.99
3177.57
3177.61
3176.97
3177.14
3176.23
3176.59
3175.37
3175.95
3174.43
3175.2
3173.39
3174.32
3172.39
3173.1
3171.59
3207.35
3207.4
3207.38
3207.34
3207.25
3207.1
3206.99
3206.69
3206.6
3206.11
3206.09
3205.36
3205.46
3204.43
3204.73
3203.34
3203.86
3202.09
3202.89
3200.75
3201.69
3199.5
3200.21
3198.4
3238.11
3238.16
3238.12
3238.06
3237.94
3237.75
3237.59
3237.24
3237.08
3236.52
3236.42
3235.58
3235.61
3234.45
3234.68
3233.12
3233.61
3231.62
3232.42
3230.06
3230.95
3228.52
3229.19
3227.05
3270.9
3270.95
3270.9
3270.82
3270.67
3270.45
3270.24
3269.84
3269.62
3268.98
3268.82
3267.88
3267.84
3266.53
3266.7
3264.95
3265.41
3263.16
3263.9
3261.3
3262.11
3259.39
3260.01
3257.52
3305.68
3305.73
3305.66
3305.57
3305.39
3305.14
3304.88
3304.42
3304.15
3303.43
3303.2
3302.15
3302.05
3300.58
3300.71
3298.75
3299.19
3296.72
3297.38
3294.55
3295.29
3292.3
3292.88
3290.04
3342.43
3342.48
3342.4
3342.29
3342.08
3341.8
3341.49
3340.98
3340.65
3339.85
3339.56
3338.39
3338.25
3336.61
3336.73
3334.54
3334.92
3332.27
3332.83
3329.79
3330.45
3327.19
3327.71
3324.54
3381.13
3381.18
3381.09
3380.96
3380.71
3380.4
3380.05
3379.49
3379.1
3378.22
3377.88
3376.57
3376.41
3374.59
3374.66
3372.32
3372.6
3369.78
3370.24
3367
3367.57
3364.04
3364.52
3361.01
3421.75
3421.81
3421.7
3421.56
3421.28
3420.94
3420.54
3419.93
3419.49
3418.51
3418.15
3416.7
3416.51
3414.54
3414.53
3412.05
3412.23
3409.24
3409.61
3406.16
3406.64
3402.86
3403.28
3399.44
3464.29
3464.35
3464.23
3464.08
3463.77
3463.4
3462.95
3462.29
3461.8
3460.72
3460.33
3458.76
3458.5
3456.42
3456.31
3453.71
3453.78
3450.64
3450.9
3447.26
3447.65
3443.61
3443.99
3439.81
3508.73
3508.79
3508.64
3508.5
3508.14
3507.77
3507.25
3506.54
3506.02
3504.86
3504.4
3502.75
3502.4
3500.22
3500.02
3497.28
3497.26
3493.96
3494.12
3490.28
3490.59
3486.3
3486.62
3482.12
3555.04
3555.11
3554.94
3554.8
3554.39
3554.01
3553.43
3552.69
3552.11
3550.89
3550.36
3548.62
3548.19
3545.91
3545.61
3542.76
3542.63
3539.19
3539.24
3535.22
3535.44
3530.91
3531.18
3526.36
3603.22
3603.29
3603.1
3602.96
3602.51
3602.11
3601.47
3600.73
3600.06
3598.79
3598.19
3596.37
3595.86
3593.48
3593.09
3590.12
3589.89
3586.31
3586.26
3582.06
3582.19
3577.43
3577.64
3572.51
3653.22
3653.3
3653.1
3652.94
3652.47
3652.05
3651.35
3650.61
3649.82
3648.55
3647.86
3645.97
3645.38
3642.91
3642.43
3639.35
3639.02
3635.3
3635.16
3630.78
3630.82
3625.84
3625.99
3620.56
3705.04
3705.12
3704.92
3704.73
3704.25
3703.8
3703.07
3702.31
3701.4
3700.16
3699.33
3697.42
3696.75
3694.18
3693.62
3690.43
3690
3686.15
3685.9
3681.36
3681.32
3676.12
3676.21
3670.5
3758.63
3758.72
3758.51
3758.31
3757.82
3757.34
3756.57
3755.78
3754.79
3753.56
3752.59
3750.69
3749.89
3747.26
3746.62
3743.32
3742.8
3738.83
3738.49
3733.79
3733.67
3728.26
3728.3
3722.3
3813.99
3814.07
3813.87
3813.65
3813.14
3812.64
3811.83
3811.01
3809.96
3808.73
3807.63
3805.75
3804.8
3802.15
3801.41
3798.02
3797.4
3793.32
3792.88
3788.04
3787.83
3782.23
3782.21
3775.95
3871.07
3871.15
3870.94
3870.72
3870.18
3869.66
3868.82
3867.98
3866.87
3865.63
3864.42
3862.55
3861.46
3858.81
3857.94
3854.48
3853.78
3849.59
3849.06
3844.09
3843.79
3838.01
3837.94
3831.42
3929.84
3929.93
3929.71
3929.48
3928.93
3928.39
3927.52
3926.65
3925.5
3924.24
3922.94
3921.07
3919.85
3917.2
3916.19
3912.69
3911.9
3907.61
3906.99
3901.89
3901.52
3895.56
3895.44
3888.69
3990.26
3990.36
3990.13
3989.9
3989.33
3988.78
3987.88
3986.99
3985.79
3984.51
3983.13
3981.27
3979.93
3977.29
3976.15
3972.63
3971.73
3967.36
3966.65
3961.43
3960.99
3954.87
3954.7
3947.72
4052.3
4052.41
4052.18
4051.94
4051.36
4050.79
4049.87
4048.96
4047.73
4046.42
4044.97
4043.1
4041.67
4039.02
4037.77
4034.23
4033.22
4028.78
4027.99
4022.67
4022.15
4015.89
4015.67
4008.49
4115.94
4116.04
4115.82
4115.57
4114.99
4114.4
4113.46
4112.54
4111.27
4109.95
4108.43
4106.56
4105.03
4102.38
4101.02
4097.46
4096.35
4091.86
4090.99
4085.57
4084.99
4078.58
4078.32
4070.95
4181.12
4181.24
4181.01
4180.76
4180.16
4179.57
4178.61
4177.67
4176.36
4175.03
4173.45
4171.57
4169.97
4167.31
4165.86
4162.27
4161.08
4156.53
4155.6
4150.08
4149.44
4142.91
4142.61
4135.07
4247.84
4247.96
4247.73
4247.48
4246.87
4246.27
4245.29
4244.33
4242.99
4241.64
4240.02
4238.13
4236.44
4233.78
4232.24
4228.64
4227.37
4222.75
4221.77
4216.17
4215.47
4208.83
4208.49
4200.79
4316.05
4316.18
4315.94
4315.69
4315.07
4314.45
4313.45
4312.47
4311.1
4309.73
4308.06
4306.17
4304.4
4301.74
4300.12
4296.5
4295.15
4290.49
4289.45
4283.77
4283.03
4276.29
4275.92
4268.08
4385.72
4385.86
4385.62
4385.36
4384.72
4384.1
4383.06
4382.07
4380.66
4379.27
4377.55
4375.66
4373.81
4371.15
4369.44
4365.81
4364.39
4359.69
4358.6
4352.85
4352.07
4345.24
4344.84
4336.87
4456.79
4456.93
4456.68
4456.42
4455.77
4455.13
4454.07
4453.06
4451.61
4450.2
4448.42
4446.52
4444.6
4441.94
4440.15
4436.51
4435.03
4430.3
4429.16
4423.36
4422.55
4415.63
4415.21
4407.13
4529.17
4529.32
4529.07
4528.8
4528.14
4527.48
4526.41
4525.37
4523.9
4522.46
4520.64
4518.73
4516.73
4514.09
4512.2
4508.57
4507.01
4502.26
4501.08
4495.22
4494.4
4487.4
4486.97
4478.81
4602.73
4602.88
4602.64
4602.36
4601.71
4601.05
4599.97
4598.92
4597.43
4595.98
4594.13
4592.22
4590.14
4587.53
4585.55
4581.94
4580.3
4575.54
4574.33
4568.42
4567.58
4560.53
4560.1
4551.86
4677.3
4677.46
4677.23
4676.97
4676.33
4675.68
4674.61
4673.58
4672.1
4670.66
4668.8
4666.9
4664.79
4662.21
4660.14
4656.59
4654.85
4650.11
4648.86
4642.9
4642.07
4634.95
4634.54
4626.24
4752.72
4752.89
4752.68
4752.44
4751.83
4751.22
4750.19
4749.2
4747.76
4746.37
4744.55
4742.69
4740.58
4738.07
4735.95
4732.49
4730.66
4725.97
4724.65
4718.67
4717.83
4710.64
4710.26
4701.91
4828.83
4829.02
4828.84
4828.64
4828.07
4827.52
4826.55
4825.64
4824.26
4822.96
4821.2
4819.44
4817.39
4814.99
4812.87
4809.54
4807.66
4803.08
4801.7
4795.73
4794.9
4787.6
4787.25
4778.83
4905.62
4905.82
4905.67
4905.52
4905
4904.52
4903.62
4902.8
4901.52
4900.33
4898.67
4897.04
4895.08
4892.82
4890.78
4887.63
4885.76
4881.35
4879.99
4874.04
4873.3
4865.89
4865.54
4856.96
4983.15
4983.39
4983.24
4983.16
4982.65
4982.27
4981.4
4980.7
4979.47
4978.42
4976.84
4975.36
4973.51
4971.41
4969.52
4966.51
4964.82
4960.51
4959.37
4953.44
4952.95
4945.51
4945.22
4936.49
5061.78
5062.05
5061.85
5061.88
5061.28
5061.07
5060.09
5059.58
5058.26
5057.39
5055.78
5054.47
5052.67
5050.69
5049.02
5045.92
5044.73
5040.16
5039.64
5033.56
5033.5
5026.16
5026.12
5017.68
5141.97
5142.25
5142.08
5142.04
5141.49
5141.17
5140.24
5139.64
5138.33
5137.43
5135.79
5134.51
5132.66
5130.8
5129.17
5126.03
5125.03
5120.5
5120.22
5114.15
5114.46
5107.2
5107.55
5099.64
5224.45
5224.72
5224.53
5224.42
5223.82
5223.38
5222.37
5221.61
5220.21
5219.13
5217.38
5215.95
5213.95
5212.05
5210.1
5207.14
5205.93
5201.38
5201.18
5194.98
5195.55
5188.12
5188.8
5180.96
5309.9
5310.19
5309.9
5309.75
5308.98
5308.43
5307.18
5306.25
5304.55
5303.26
5301.16
5299.49
5297.12
5294.98
5292.58
5289.49
5287.93
5283.13
5282.83
5276.29
5276.96
5269.1
5270.02
5261.82
5399.05
5399.36
5398.93
5398.76
5397.74
5397.09
5395.47
5394.4
5392.19
5390.72
5387.98
5386.09
5383
5380.51
5377.48
5373.9
5371.81
5366.44
5365.74
5358.56
5359.09
5350.51
5351.55
5342.61
5492.35
5492.62
5492.21
5491.8
5490.77
5489.73
5488.06
5486.45
5484.11
5481.97
5479.01
5476.34
5472.84
5469.62
5465.78
5461.77
5458.51
5452.51
5450.93
5442.81
5442.82
5433.1
5434.04
5423.88
5590.05
5590.3
5589.87
5589.31
5588.19
5586.92
5585.06
5583.12
5580.52
5577.91
5574.58
5571.32
5567.3
5563.36
5558.77
5554.09
5549.29
5543.15
5539.66
5530.68
5529.53
5518.21
5518.59
5506.52
5692.06
5692.28
5691.84
5691.2
5689.99
5688.58
5686.57
5684.41
5681.57
5678.66
5675
5671.31
5666.85
5662.35
5657.13
5651.75
5645.93
5639.31
5633.71
5624.65
5621.02
5608.24
5607.28
5592.27
5798.05
5798.27
5797.82
5797.14
5795.89
5794.4
5792.3
5790.02
5787.05
5783.96
5780.11
5776.18
5771.44
5766.62
5761.01
5755.19
5748.78
5741.64
5734.84
5725.63
5719.47
5706.42
5703.08
5684.54
5907.48
5907.7
5907.27
5906.59
5905.33
5903.84
5901.71
5899.41
5896.4
5893.27
5889.35
5885.36
5880.53
5875.62
5869.87
5863.93
5857.32
5850.02
5842.86
5833.59
5826.45
5813.72
5808.68
5788.31
6019.71
6019.95
6019.54
6018.9
6017.66
6016.21
6014.11
6011.87
6008.88
6005.83
6001.94
5998.04
5993.25
5988.43
5982.74
5976.91
5970.38
5963.22
5956.27
5946.99
5940.55
5927.56
5923.5
5904.72
6134.01
6134.29
6133.9
6133.32
6132.13
6130.77
6128.73
6126.6
6123.7
6120.8
6117.02
6113.3
6108.64
6104.05
6098.53
6092.96
6086.65
6079.84
6073.2
6064.27
6058.36
6045.83
6042.14
6024.6
6249.7
6250.02
6249.66
6249.15
6248.01
6246.78
6244.82
6242.86
6240.07
6237.38
6233.73
6230.29
6225.79
6221.53
6216.22
6211.02
6204.99
6198.63
6192.32
6183.91
6178.42
6166.64
6163.16
6146.78
6366.1
6366.49
6366.12
6365.75
6364.62
6363.58
6361.66
6359.96
6357.22
6354.87
6351.28
6348.26
6343.85
6340.06
6334.92
6330.2
6324.46
6318.6
6312.66
6304.81
6299.7
6288.77
6285.46
6270.27
6482.65
6483.08
6482.69
6482.49
6481.33
6480.57
6478.59
6477.29
6474.46
6472.63
6468.94
6466.56
6462.04
6458.99
6453.79
6449.82
6444.22
6438.95
6433.38
6426.12
6421.35
6411.33
6408.2
6394.21
6598.78
6599.23
6598.89
6598.75
6597.71
6597.03
6595.23
6594.08
6591.45
6589.85
6586.38
6584.32
6580.04
6577.41
6572.42
6569.04
6563.61
6559.04
6553.74
6547.17
6542.71
6533.61
6530.65
6517.87
6714
6714.47
6714.22
6714.07
6713.24
6712.54
6711.06
6709.87
6707.67
6706.05
6703.08
6701.04
6697.3
6694.79
6690.34
6687.21
6682.27
6678.18
6673.17
6667.39
6663.22
6655.03
6652.23
6640.64
6827.93
6828.4
6828.22
6828.1
6827.41
6826.77
6825.5
6824.4
6822.5
6820.97
6818.4
6816.47
6813.19
6810.84
6806.91
6804.03
6799.57
6795.94
6791.25
6786.34
6782.32
6775.05
6772.41
6762
6940.18
6940.66
6940.54
6940.47
6939.89
6939.34
6938.24
6937.26
6935.6
6934.23
6931.97
6930.23
6927.34
6925.22
6921.71
6919.16
6915.13
6911.96
6907.63
6903.47
6899.6
6893.26
6890.79
6881.55
7050.44
7050.92
7050.85
7050.83
7050.35
7049.9
7048.96
7048.11
7046.67
7045.47
7043.48
7041.96
7039.4
7037.56
7034.43
7032.21
7028.6
7025.87
7021.94
7018.4
7014.7
7009.32
7007.02
6998.9
7158.46
7158.95
7158.92
7158.95
7158.56
7158.2
7157.4
7156.7
7155.44
7154.43
7152.69
7151.4
7149.14
7147.57
7144.8
7142.92
7139.69
7137.39
7133.85
7130.9
7127.41
7122.95
7120.78
7113.77
7263.99
7264.48
7264.49
7264.56
7264.26
7263.99
7263.32
7262.76
7261.69
7260.85
7259.35
7258.27
7256.3
7255
7252.56
7251.01
7248.15
7246.25
7243.09
7240.66
7237.5
7233.88
7231.81
7225.86
7366.88
7367.36
7367.41
7367.53
7367.3
7367.12
7366.58
7366.14
7365.24
7364.58
7363.29
7362.43
7360.73
7359.69
7357.56
7356.32
7353.81
7352.3
7349.5
7347.56
7344.72
7341.89
7339.94
7334.95
7466.93
7467.41
7467.49
7467.64
7467.49
7467.4
7466.96
7466.65
7465.91
7465.42
7464.33
7463.68
7462.23
7461.43
7459.61
7458.67
7456.48
7455.35
7452.9
7451.41
7448.91
7446.74
7444.93
7440.85
7564.07
7564.55
7564.65
7564.85
7564.76
7564.74
7564.42
7564.22
7563.62
7563.29
7562.39
7561.94
7560.72
7560.16
7558.61
7557.96
7556.08
7555.3
7553.18
7552.13
7549.96
7548.35
7546.67
7543.5
7658.16
7658.63
7658.76
7658.98
7658.96
7659.01
7658.78
7658.7
7658.24
7658.05
7657.33
7657.06
7656.06
7655.73
7654.43
7654.05
7652.46
7652
7650.19
7649.55
7647.69
7646.61
7645.08
7642.75
7749.19
7749.64
7749.8
7750.05
7750.08
7750.2
7750.06
7750.08
7749.75
7749.7
7749.14
7749.04
7748.24
7748.12
7747.06
7746.94
7745.61
7745.46
7743.93
7743.66
7742.08
7741.46
7740.17
7738.59
7837.05
7837.49
7837.66
7837.95
7838.03
7838.21
7838.15
7838.26
7838.04
7838.12
7837.72
7837.78
7837.17
7837.24
7836.4
7836.51
7835.44
7835.57
7834.31
7834.38
7833.06
7832.88
7831.8
7830.92
7921.79
7922.22
7922.4
7922.71
7922.83
7923.07
7923.09
7923.29
7923.18
7923.37
7923.1
7923.32
7922.88
7923.14
7922.5
7922.83
7921.99
7922.38
7921.37
7921.77
7920.7
7920.94
7920.08
7919.77
8003.33
8003.74
8003.95
8004.27
8004.43
8004.72
8004.8
8005.09
8005.07
8005.37
8005.23
8005.58
8005.3
8005.73
8005.28
8005.81
8005.18
8005.82
8005.04
8005.75
8004.9
8005.54
8004.86
8005.1
8081.76
8082.16
8082.37
8082.71
8082.91
8083.24
8083.38
8083.74
8083.81
8084.21
8084.19
8084.66
8084.52
8085.1
8084.82
8085.54
8085.1
8085.97
8085.39
8086.38
8085.73
8086.73
8086.21
8086.96
8157.03
8157.42
8157.64
8157.99
8158.22
8158.59
8158.79
8159.21
8159.36
8159.85
8159.93
8160.52
8160.5
8161.23
8161.1
8161.98
8161.72
8162.79
8162.39
8163.64
8163.16
8164.5
8164.11
8165.32
8229.26
8229.62
8229.85
8230.21
8230.47
8230.88
8231.12
8231.6
8231.82
8232.39
8232.56
8233.25
8233.36
8234.2
8234.21
8235.25
8235.14
8236.39
8236.15
8237.63
8237.31
8238.94
8238.66
8240.29
8298.42
8298.78
8299.01
8299.38
8299.66
8300.09
8300.38
8300.91
8301.19
8301.83
8302.09
8302.87
8303.08
8304.04
8304.16
8305.34
8305.36
8306.78
8306.68
8308.37
8308.18
8310.08
8309.89
8311.89
8364.65
8364.99
8365.22
8365.6
8365.9
8366.36
8366.68
8367.26
8367.59
8368.3
8368.62
8369.49
8369.78
8370.84
8371.08
8372.37
8372.52
8374.09
8374.11
8375.98
8375.9
8378.05
8377.93
8380.26
8427.95
8428.27
8428.51
8428.89
8429.21
8429.69
8430.05
8430.66
8431.04
8431.8
8432.2
8433.13
8433.51
8434.66
8434.98
8436.39
8436.63
8438.34
8438.47
8440.5
8440.52
8442.88
8442.84
8445.45
8488.46
8488.76
8489
8489.39
8489.71
8490.21
8490.6
8491.24
8491.67
8492.48
8492.93
8493.93
8494.37
8495.6
8496.01
8497.51
8497.85
8499.67
8499.9
8502.08
8502.18
8504.73
8504.72
8507.63
8546.2
8546.49
8546.73
8547.11
8547.45
8547.97
8548.38
8549.05
8549.51
8550.37
8550.86
8551.92
8552.43
8553.72
8554.21
8555.79
8556.21
8558.13
8558.45
8560.75
8560.93
8563.64
8563.69
8566.82
8601.31
8601.58
8601.81
8602.2
8602.55
8603.08
8603.51
8604.21
8604.7
8605.59
8606.13
8607.23
8607.79
8609.15
8609.7
8611.35
8611.85
8613.85
8614.25
8616.66
8616.91
8619.77
8619.86
8623.18
8653.82
8654.08
8654.31
8654.7
8655.05
8655.59
8656.04
8656.76
8657.28
8658.2
8658.78
8659.92
8660.53
8661.94
8662.55
8664.26
8664.82
8666.9
8667.37
8669.87
8670.19
8673.17
8673.31
8676.79
8703.87
8704.12
8704.35
8704.73
8705.09
8705.64
8706.1
8706.83
8707.38
8708.32
8708.93
8710.12
8710.76
8712.22
8712.87
8714.64
8715.26
8717.4
8717.93
8720.52
8720.89
8723.98
8724.16
8727.79
8751.51
8751.74
8751.97
8752.35
8752.71
8753.27
8753.74
8754.49
8755.05
8756.02
8756.66
8757.87
8758.55
8760.04
8760.74
8762.56
8763.23
8765.42
8766.01
8768.66
8769.09
8772.27
8772.48
8776.25
8796.86
8797.08
8797.3
8797.68
8798.04
8798.6
8799.08
8799.85
8800.42
8801.41
8802.07
8803.31
8804.02
8805.54
8806.28
8808.13
8808.84
8811.08
8811.71
8814.42
8814.9
8818.16
8818.4
8822.29
8839.98
8840.18
8840.4
8840.78
8841.14
8841.7
8842.19
8842.96
8843.55
8844.55
8845.23
8846.49
8847.22
8848.77
8849.53
8851.42
8852.17
8854.45
8855.12
8857.87
8858.39
8861.7
8861.98
8865.96
8880.98
8881.17
8881.39
8881.76
8882.12
8882.68
8883.17
8883.95
8884.55
8885.57
8886.25
8887.53
8888.28
8889.86
8890.63
8892.56
8893.32
8895.64
8896.32
8899.12
8899.66
8903.03
8903.33
8907.38
8919.93
8920.11
8920.32
8920.69
8921.05
8921.61
8922.1
8922.89
8923.49
8924.52
8925.21
8926.51
8927.26
8928.87
8929.65
8931.6
8932.37
8934.73
8935.41
8938.26
8938.79
8942.21
8942.51
8946.6
8956.94
8957.11
8957.31
8957.67
8958.03
8958.6
8959.09
8959.88
8960.48
8961.52
8962.21
8963.53
8964.28
8965.9
8966.69
8968.67
8969.43
8971.82
8972.51
8975.39
8975.91
8979.37
8979.66
8983.77
8992.07
8992.23
8992.43
8992.78
8993.14
8993.7
8994.19
8994.99
8995.59
8996.63
8997.33
8998.65
8999.41
9001.04
9001.83
9003.82
9004.59
9007
9007.68
9010.59
9011.11
9014.59
9014.87
9019
9025.43
9025.58
9025.78
9026.13
9026.48
9027.04
9027.53
9028.32
9028.93
9029.97
9030.67
9032
9032.76
9034.4
9035.19
9037.19
9037.96
9040.38
9041.06
9043.98
9044.5
9047.99
9048.27
9052.4
9057.07
9057.21
9057.4
9057.75
9058.09
9058.66
9059.14
9059.93
9060.53
9061.58
9062.28
9063.61
9064.37
9066.01
9066.8
9068.81
9069.58
9072
9072.69
9075.61
9076.13
9079.62
9079.91
9084.04
9087.11
9087.24
9087.43
9087.77
9088.11
9088.67
9089.15
9089.94
9090.54
9091.59
9092.28
9093.61
9094.37
9096.01
9096.81
9098.81
9099.58
9102.01
9102.69
9105.61
9106.13
9109.62
9109.91
9114.05
9115.55
9115.68
9115.86
9116.2
9116.54
9117.09
9117.57
9118.36
9118.95
9120
9120.69
9122.01
9122.77
9124.42
9125.21
9127.21
9127.98
9130.4
9131.09
9134
9134.53
9138.01
9138.3
9142.43
9142.54
9142.66
9142.84
9143.17
9143.5
9144.05
9144.52
9145.31
9145.9
9146.94
9147.63
9148.95
9149.71
9151.34
9152.13
9154.13
9154.9
9157.31
9158
9160.9
9161.43
9164.91
9165.19
9169.31
9168.1
9168.21
9168.39
9168.71
9169.04
9169.59
9170.06
9170.84
9171.42
9172.46
9173.14
9174.46
9175.21
9176.85
9177.63
9179.62
9180.39
9182.79
9183.48
9186.37
9186.9
9190.35
9190.63
9194.75
9192.32
9192.42
9192.6
9192.92
9193.24
9193.78
9194.25
9195.02
9195.6
9196.64
9197.31
9198.63
9199.37
9201
9201.77
9203.76
9204.51
9206.92
9207.59
9210.48
9211
9214.44
9214.71
9218.81
9215.22
9215.32
9215.5
9215.81
9216.13
9216.67
9217.13
9217.9
9218.47
9219.5
9220.17
9221.48
9222.21
9223.84
9224.6
9226.59
9227.32
9229.72
9230.38
9233.26
9233.75
9237.22
9237.47
9241.53
9236.94
9237.03
9237.2
9237.51
9237.83
9238.36
9238.81
9239.58
9240.15
9241.17
9241.83
9243.14
9243.85
9245.48
9246.22
9248.21
9248.93
9251.32
9251.97
9254.83
9255.31
9258.76
9259
9263.04
9257.48
9257.58
9257.74
9258.04
9258.36
9258.88
9259.34
9260.09
9260.66
9261.67
9262.32
9263.63
9264.33
9265.96
9266.68
9268.67
9269.36
9271.76
9272.37
9275.23
9275.69
9279.12
9279.35
9283.36
9276.94
9277.03
9277.19
9277.48
9277.81
9278.31
9278.77
9279.51
9280.08
9281.08
9281.72
9283.02
9283.71
9285.34
9286.04
9288.02
9288.69
9291.09
9291.68
9294.53
9294.97
9298.37
9298.6
9302.56
9295.34
9295.42
9295.59
9295.87
9296.19
9296.69
9297.15
9297.88
9298.44
9299.44
9300.08
9301.36
9302.04
9303.66
9304.34
9306.33
9306.97
9309.37
9309.92
9312.78
9313.2
9316.55
9316.78
9320.7
9312.75
9312.83
9312.99
9313.27
9313.59
9314.08
9314.54
9315.26
9315.82
9316.8
9317.44
9318.71
9319.39
9320.99
9321.66
9323.63
9324.26
9326.65
9327.18
9330.02
9330.41
9333.77
9333.97
9337.84
9329.21
9329.29
9329.45
9329.72
9330.05
9330.52
9330.98
9331.69
9332.25
9333.21
9333.85
9335.11
9335.78
9337.36
9338.04
9339.99
9340.61
9342.97
9343.5
9346.31
9346.69
9350.02
9350.21
9354.04
9344.78
9344.85
9345.01
9345.28
9345.6
9346.07
9346.53
9347.22
9347.79
9348.73
9349.38
9350.6
9351.29
9352.84
9353.52
9355.44
9356.06
9358.39
9358.92
9361.7
9362.08
9365.37
9365.57
9369.36
9359.48
9359.55
9359.72
9359.98
9360.3
9360.75
9361.22
9361.89
9362.47
9363.39
9364.04
9365.24
9365.93
9367.46
9368.14
9370.03
9370.66
9372.96
9373.49
9376.24
9376.64
9379.85
9380.06
9383.82
9373.38
9373.45
9373.61
9373.86
9374.19
9374.63
9375.1
9375.75
9376.34
9377.23
9377.89
9379.07
9379.77
9381.27
9381.95
9383.82
9384.44
9386.72
9387.24
9389.97
9390.35
9393.54
9393.75
9397.46
9386.5
9386.57
9386.73
9386.98
9387.3
9387.73
9388.21
9388.84
9389.43
9390.31
9390.98
9392.13
9392.83
9394.31
9394.99
9396.83
9397.45
9399.71
9400.22
9402.92
9403.28
9406.48
9406.66
9410.33
9398.89
9398.95
9399.11
9399.36
9399.68
9400.11
9400.58
9401.2
9401.8
9402.65
9403.32
9404.46
9405.16
9406.61
9407.3
9409.12
9409.74
9411.96
9412.47
9415.14
9415.5
9418.66
9418.84
9422.47
9410.58
9410.64
9410.8
9411.04
9411.36
9411.78
9412.25
9412.87
9413.46
9414.3
9414.98
9416.09
9416.79
9418.22
9418.91
9420.7
9421.32
9423.52
9424.03
9426.67
9427.04
9430.14
9430.33
9433.92
9421.61
9421.67
9421.83
9422.07
9422.39
9422.8
9423.27
9423.87
9424.47
9425.29
9425.97
9427.06
9427.77
9429.17
9429.86
9431.63
9432.25
9434.42
9434.93
9437.54
9437.9
9440.98
9441.16
9444.72
9432.01
9432.07
9432.23
9432.46
9432.78
9433.19
9433.66
9434.25
9434.84
9435.65
9436.33
9437.4
9438.11
9439.49
9440.19
9441.93
9442.55
9444.7
9445.2
9447.79
9448.14
9451.19
9451.37
9454.89
9441.82
9441.88
9442.03
9442.27
9442.58
9442.98
9443.45
9444.03
9444.62
9445.42
9446.1
9447.15
9447.86
9449.23
9449.92
9451.64
9452.26
9454.38
9454.88
9457.44
9457.79
9460.81
9460.99
9464.48
9451.06
9451.12
9451.27
9451.5
9451.81
9452.21
9452.67
9453.25
9453.84
9454.62
9455.3
9456.34
9457.05
9458.39
9459.08
9460.78
9461.39
9463.5
9463.99
9466.53
9466.88
9469.87
9470.04
9473.5
9459.76
9459.83
9459.98
9460.2
9460.51
9460.9
9461.36
9461.93
9462.52
9463.29
9463.96
9464.99
9465.69
9467.03
9467.7
9469.4
9469.99
9472.09
9472.56
9475.09
9475.42
9478.4
9478.56
9481.99
9467.96
9468.02
9468.17
9468.39
9468.7
9469.09
9469.54
9470.11
9470.68
9471.46
9472.11
9473.14
9473.82
9475.16
9475.81
9477.51
9478.07
9480.18
9480.61
9483.16
9483.44
9486.43
9486.57
9489.98
9475.67
9475.73
9475.88
9476.1
9476.4
9476.79
9477.24
9477.8
9478.36
9479.13
9479.77
9480.8
9481.46
9482.82
9483.41
9485.15
9485.65
9487.81
9488.16
9490.74
9490.99
9493.97
9494.1
9497.48
9482.93
9482.99
9483.13
9483.35
9483.65
9484.04
9484.48
9485.04
9485.58
9486.36
9486.96
9488.03
9488.62
9490.05
9490.53
9492.35
9492.74
9494.96
9495.28
9497.85
9498.08
9501.05
9501.17
9504.53
9489.75
9489.81
9489.95