/*--------------------------------*- C++ -*----------------------------------*\
  =========                 |
  \\      /  F ield         | OpenFOAM: The Open Source CFD Toolbox
   \\    /   O peration     | Website:  https://openfoam.org
    \\  /    A nd           | Version:  10
     \\/     M anipulation  |
\*---------------------------------------------------------------------------*/
FoamFile
{
    format      ascii;
    class       surfaceScalarField;
    location    "0.05";
    object      phi;
}
// * * * * * * * * * * * * * * * * * * * * * * * * * * * * * * * * * * * * * //

dimensions      [1 0 -1 0 0 0 0];

internalField   nonuniform List<scalar> 
8154
(
1.5721e-08
6.56791e-08
1.46927e-07
2.57235e-07
3.91914e-07
5.48336e-07
7.17329e-07
8.96352e-07
1.07147e-06
1.23859e-06
1.38385e-06
1.48822e-06
1.55707e-06
1.50108e-06
1.51582e-06
1.09434e-06
1.14279e-06
2.95073e-07
2.27834e-07
-9.1208e-07
-1.14769e-06
-1.84018e-06
-1.80482e-06
-0.000260103
-0.00078033
2.89548e-08
-0.00130055
1.19463e-07
-0.0018208
2.701e-07
-0.00234105
4.73979e-07
-0.00286136
7.36734e-07
-0.00338165
1.04033e-06
-0.00390204
1.40119e-06
-0.00442238
1.78534e-06
-0.0049429
2.22163e-06
-0.00546328
2.66255e-06
-0.00598398
3.14079e-06
-0.00650439
3.60955e-06
-0.0070253
4.08416e-06
-0.00754579
4.56856e-06
-0.00806682
4.92888e-06
-0.00858759
5.4337e-06
-0.00910862
5.52937e-06
-0.0096297
5.99636e-06
-0.010151
5.75809e-06
-0.0106723
5.90181e-06
-0.0111942
5.18057e-06
-0.0117158
4.28673e-06
-0.0122395
2.87289e-06
-0.000260411
-0.000781256
2.28702e-08
-0.00130209
9.27999e-08
-0.00182295
2.09978e-07
-0.00234382
3.65718e-07
-0.00286473
5.7104e-07
-0.00338563
8.00463e-07
-0.00390661
1.08411e-06
-0.00442755
1.3719e-06
-0.00494865
1.71651e-06
-0.00546962
2.04638e-06
-0.00599087
2.42324e-06
-0.00651184
2.77851e-06
-0.00703333
3.15028e-06
-0.00755425
3.54021e-06
-0.008076
3.78782e-06
-0.00859691
4.26715e-06
-0.0091189
4.26704e-06
-0.00963979
4.76344e-06
-0.0101621
4.58634e-06
-0.010683
4.80398e-06
-0.0112054
4.45614e-06
-0.0117269
3.87731e-06
-0.0122496
2.86993e-06
-0.000260685
-0.00078208
9.45734e-09
-0.00130347
3.90753e-08
-0.00182487
8.80231e-08
-0.00234629
1.51209e-07
-0.00286773
2.33351e-07
-0.00338919
3.21346e-07
-0.00391068
4.28555e-07
-0.00443218
5.2945e-07
-0.00495377
6.49772e-07
-0.00547528
7.49209e-07
-0.00599702
8.67027e-07
-0.00651851
9.49558e-07
-0.00704053
1.03995e-06
-0.00756181
1.06533e-06
-0.0080843
1.11476e-06
-0.00860522
1.01126e-06
-0.00912825
1.11538e-06
-0.00964893
8.08976e-07
-0.0101722
8.91755e-07
-0.010693
4.88666e-07
-0.0112158
4.40649e-07
-0.0117373
1.58608e-07
-0.0122587
-1.35981e-08
-0.000260937
-0.000782837
7.00902e-09
-0.00130473
2.82172e-08
-0.00182663
6.20759e-08
-0.00234855
1.07476e-07
-0.00287048
1.62291e-07
-0.00339245
2.2643e-07
-0.00391442
2.94342e-07
-0.00443642
3.68453e-07
-0.00495847
4.40191e-07
-0.00548049
5.11876e-07
-0.00600268
5.78715e-07
-0.00652465
6.27442e-07
-0.0070471
6.84863e-07
-0.00756887
6.47444e-07
-0.00809172
7.28271e-07
-0.00861329
5.81714e-07
-0.00913641
5.94926e-07
-0.00965793
4.33594e-07
-0.0101812
3.38832e-07
-0.0107028
1.04541e-07
-0.0112259
-4.81925e-08
-0.0117479
-2.57132e-07
-0.01227
-3.39145e-07
-0.00026116
-0.000783507
8.32015e-09
-0.00130584
3.2608e-08
-0.00182819
7.41589e-08
-0.00235056
1.26864e-07
-0.00287293
1.99494e-07
-0.00339533
2.73666e-07
-0.00391774
3.72439e-07
-0.00444018
4.59428e-07
-0.00496266
5.77138e-07
-0.00548511
6.68705e-07
-0.00600771
7.93413e-07
-0.00653012
8.83808e-07
-0.00705292
9.95761e-07
-0.00757522
1.0831e-06
-0.00809828
1.14074e-06
-0.00862044
1.22654e-06
-0.00914382
1.26464e-06
-0.00966581
1.21508e-06
-0.0101894
1.19681e-06
-0.0107115
1.09096e-06
-0.0112349
9.81862e-07
-0.0117575
7.60018e-07
-0.0122805
5.07093e-07
-0.000261377
-0.000784162
5.72846e-09
-0.00130694
2.46373e-08
-0.00182972
5.70434e-08
-0.00235253
9.86776e-08
-0.00287532
1.55009e-07
-0.00339817
2.1384e-07
-0.00392099
2.89844e-07
-0.00444388
3.58838e-07
-0.00496676
4.49386e-07
-0.00548966
5.20677e-07
-0.00601265
6.17786e-07
-0.00653549
6.83616e-07
-0.00705869
7.73012e-07
-0.00758138
8.29726e-07
-0.0081049
8.95331e-07
-0.00862737
9.28431e-07
-0.00915118
9.59506e-07
-0.00967356
9.38099e-07
-0.0101975
9.11549e-07
-0.0107199
8.21652e-07
-0.0112438
7.15657e-07
-0.0117667
5.28106e-07
-0.0122899
3.13002e-07
-0.000261561
-0.000784713
4.58745e-09
-0.00130786
1.94651e-08
-0.001831
4.50855e-08
-0.00235418
7.75994e-08
-0.00287733
1.22219e-07
-0.00340056
1.68972e-07
-0.00392371
2.29472e-07
-0.00444699
2.84681e-07
-0.00497019
3.57531e-07
-0.00549347
4.13913e-07
-0.00601679
4.94022e-07
-0.00654
5.43784e-07
-0.00706353
6.14552e-07
-0.00758657
6.60615e-07
-0.00811041
7.18053e-07
-0.00863322
7.34906e-07
-0.00915733
7.67832e-07
-0.00968004
7.58171e-07
-0.0102043
7.31809e-07
-0.010727
6.67259e-07
-0.0112511
5.76109e-07
-0.0117744
4.30952e-07
-0.0122978
2.58895e-07
-0.00026172
-0.000785193
3.34394e-09
-0.00130866
1.43116e-08
-0.00183212
3.29154e-08
-0.00235562
5.83914e-08
-0.00287908
9.03379e-08
-0.00340264
1.29311e-07
-0.00392609
1.7188e-07
-0.0044497
2.19708e-07
-0.00497318
2.71545e-07
-0.0054968
3.20338e-07
-0.00602038
3.82274e-07
-0.00654392
4.23229e-07
-0.00706773
4.87202e-07
-0.00759108
5.12085e-07
-0.00811519
5.63602e-07
-0.00863831
5.7533e-07
-0.00916268
5.93472e-07
-0.00968566
5.83591e-07
-0.0102102
5.58221e-07
-0.0107332
5.05374e-07
-0.0112575
4.29475e-07
-0.011781
3.16664e-07
-0.0123047
1.83144e-07
-0.000261887
-0.000785695
2.25598e-09
-0.0013095
1.03926e-08
-0.00183329
2.23062e-08
-0.00235713
4.45838e-08
-0.0028809
6.38434e-08
-0.00340481
1.01279e-07
-0.00392857
1.23363e-07
-0.00445253
1.73658e-07
-0.0049763
1.98232e-07
-0.00550027
2.51727e-07
-0.00602413
2.94986e-07
-0.006548
3.32889e-07
-0.00707209
3.88149e-07
-0.00759575
4.12226e-07
-0.00812014
4.50133e-07
-0.00864356
4.60475e-07
-0.00916821
4.70271e-07
-0.00969143
4.64192e-07
-0.0102162
4.39617e-07
-0.0107394
3.97844e-07
-0.0112641
3.35948e-07
-0.0117877
2.48699e-07
-0.0123116
1.42227e-07
-0.00026202
-0.000786097
1.57264e-09
-0.00131017
7.2889e-09
-0.00183423
1.54754e-08
-0.00235834
3.17617e-08
-0.00288238
4.55325e-08
-0.00340655
7.4567e-08
-0.00393058
9.09769e-08
-0.00445481
1.32057e-07
-0.00497884
1.4869e-07
-0.0055031
1.95778e-07
-0.0060272
2.11836e-07
-0.00655137
2.58493e-07
-0.00707569
2.99943e-07
-0.00759965
3.311e-07
-0.00812427
3.56868e-07
-0.00864797
3.65735e-07
-0.00917287
3.66539e-07
-0.00969635
3.5985e-07
-0.0102214
3.34731e-07
-0.0107449
3.00416e-07
-0.0112698
2.49692e-07
-0.0117937
1.84495e-07
-0.0123178
1.03172e-07
-0.000262125
-0.000786412
1.08564e-09
-0.00131069
4.96996e-09
-0.00183496
1.09917e-08
-0.00235928
2.26854e-08
-0.00288354
3.39212e-08
-0.0034079
5.55949e-08
-0.00393215
7.03118e-08
-0.00445657
1.01507e-07
-0.00498081
1.1622e-07
-0.00550526
1.55833e-07
-0.00602956
1.68016e-07
-0.00655394
2.08494e-07
-0.00707843
2.28465e-07
-0.00760257
2.43475e-07
-0.00812737
2.86348e-07
-0.00865125
2.99189e-07
-0.00917632
2.95547e-07
-0.00969996
2.91475e-07
-0.0102252
2.67883e-07
-0.0107488
2.41946e-07
-0.0112739
1.99528e-07
-0.0117979
1.48862e-07
-0.0123222
8.12178e-08
-0.000262227
-0.000786722
8.70288e-10
-0.00131121
3.72382e-09
-0.00183569
8.36412e-09
-0.0023602
1.75132e-08
-0.00288467
2.66624e-08
-0.00340924
4.42748e-08
-0.0039337
5.70468e-08
-0.0044583
8.31184e-08
-0.00498276
9.72684e-08
-0.00550739
1.28888e-07
-0.0060319
1.41315e-07
-0.00655647
1.73013e-07
-0.00708114
1.80933e-07
-0.00760549
2.0137e-07
-0.00813046
2.34002e-07
-0.00865451
2.55382e-07
-0.00917978
2.47182e-07
-0.00970356
2.45201e-07
-0.010229
2.25184e-07
-0.0107527
2.06096e-07
-0.011278
1.70736e-07
-0.0118021
1.28961e-07
-0.0123266
6.88819e-08
-0.000262299
-0.00078694
8.82279e-10
-0.00131157
3.43503e-09
-0.00183619
7.72841e-09
-0.00236086
1.59358e-08
-0.00288547
2.44868e-08
-0.00341018
4.022e-08
-0.00393479
5.24368e-08
-0.00445953
7.61378e-08
-0.00498415
9.09283e-08
-0.0055089
1.21448e-07
-0.00603357
1.36609e-07
-0.00655827
1.65855e-07
-0.00708308
1.73911e-07
-0.0076076
1.94115e-07
-0.00813268
2.01434e-07
-0.00865687
2.30854e-07
-0.00918228
2.26181e-07
-0.00970618
2.28386e-07
-0.0102318
2.13395e-07
-0.0107556
1.99003e-07
-0.011281
1.66999e-07
-0.0118052
1.27181e-07
-0.0123299
6.65484e-08
-0.000262349
-0.000787091
1.092e-09
-0.00131182
3.9985e-09
-0.00183655
8.9867e-09
-0.00236131
1.77134e-08
-0.00288603
2.7208e-08
-0.00341083
4.31489e-08
-0.00393554
5.6507e-08
-0.00446038
8.02259e-08
-0.0049851
9.70098e-08
-0.00550993
1.28078e-07
-0.00603471
1.47012e-07
-0.00655948
1.79194e-07
-0.00708439
1.94201e-07
-0.00760898
2.18083e-07
-0.00813418
2.34226e-07
-0.00865842
2.27131e-07
-0.00918393
2.34755e-07
-0.00970788
2.45344e-07
-0.0102336
2.33164e-07
-0.0107574
2.19298e-07
-0.0112829
1.85501e-07
-0.0118072
1.41394e-07
-0.0123319
7.37546e-08
-0.000262386
-0.000787203
1.50603e-09
-0.00131201
5.32091e-09
-0.00183681
1.18924e-08
-0.00236164
2.24731e-08
-0.00288644
3.44607e-08
-0.00341131
5.2649e-08
-0.00393611
6.89602e-08
-0.00446101
9.47163e-08
-0.00498581
1.14514e-07
-0.00551071
1.47592e-07
-0.00603556
1.70724e-07
-0.00656039
2.07116e-07
-0.00708537
2.27513e-07
-0.00761003
2.54679e-07
-0.00813527
2.74705e-07
-0.00865959
2.81193e-07
-0.00918517
2.75829e-07
-0.00970915
2.8928e-07
-0.0102349
2.75084e-07
-0.0107588
2.54731e-07
-0.0112844
2.14677e-07
-0.0118086
1.61609e-07
-0.0123334
8.45657e-08
-0.000262399
-0.000787243
2.09745e-09
-0.00131208
7.33925e-09
-0.00183691
1.62991e-08
-0.00236177
3.00549e-08
-0.00288659
4.61564e-08
-0.00341149
6.87932e-08
-0.00393631
9.04266e-08
-0.00446123
1.20842e-07
-0.00498607
1.45917e-07
-0.00551099
1.82757e-07
-0.00603587
2.10413e-07
-0.00656072
2.50701e-07
-0.00708573
2.7652e-07
-0.0076104
3.08735e-07
-0.00813565
3.32007e-07
-0.00866
3.69533e-07
-0.00918561
3.53357e-07
-0.00970958
3.52243e-07
-0.0102354
3.30386e-07
-0.0107592
2.98498e-07
-0.0112849
2.49629e-07
-0.0118091
1.85414e-07
-0.0123339
9.79107e-08
-0.000262392
-0.000787224
2.80887e-09
-0.00131205
1.00595e-08
-0.00183686
2.19071e-08
-0.00236171
4.02995e-08
-0.00288652
6.17758e-08
-0.00341141
9.14134e-08
-0.00393622
1.20612e-07
-0.00446113
1.59021e-07
-0.00498594
1.92264e-07
-0.00551085
2.36097e-07
-0.00603572
2.69986e-07
-0.00656055
3.153e-07
-0.00708554
3.4634e-07
-0.00761019
3.84768e-07
-0.00813544
3.96788e-07
-0.00865971
4.21828e-07
-0.00918533
4.34023e-07
-0.00970924
4.26307e-07
-0.010235
3.93788e-07
-0.0107588
3.50529e-07
-0.0112844
2.93364e-07
-0.0118086
2.16524e-07
-0.0123334
1.16395e-07
-0.000262369
-0.000787157
3.56583e-09
-0.00131193
1.34654e-08
-0.0018367
2.79755e-08
-0.00236151
5.38961e-08
-0.00288628
7.98942e-08
-0.00341112
1.21307e-07
-0.00393588
1.57698e-07
-0.00446074
2.0967e-07
-0.00498551
2.51975e-07
-0.00551037
3.09454e-07
-0.00603519
3.5118e-07
-0.00655997
4.08845e-07
-0.00708491
4.37843e-07
-0.0076095
4.9287e-07
-0.00813471
4.93136e-07
-0.00865892
5.19825e-07
-0.00918448
5.32192e-07
-0.00970831
5.15868e-07
-0.0102341
4.76046e-07
-0.0107578
4.24025e-07
-0.0112833
3.59398e-07
-0.0118074
2.65358e-07
-0.0123322
1.45298e-07
-0.000262328
-0.000787033
4.48702e-09
-0.00131173
1.68566e-08
-0.00183642
3.56188e-08
-0.00236114
6.84989e-08
-0.00288583
1.00164e-07
-0.00341058
1.55787e-07
-0.00393526
1.96173e-07
-0.00446004
2.72782e-07
-0.00498472
3.16782e-07
-0.0055095
4.05715e-07
-0.00603423
4.43229e-07
-0.00655891
5.32133e-07
-0.00708379
5.53708e-07
-0.00760826
6.28202e-07
-0.00813339
6.32605e-07
-0.00865752
6.65472e-07
-0.00918296
6.56016e-07
-0.00970669
6.24744e-07
-0.0102324
5.96662e-07
-0.0107559
5.3936e-07
-0.0112814
4.62662e-07
-0.0118054
3.41002e-07
-0.0123301
1.88862e-07
-0.00026227
-0.000786861
5.67147e-09
-0.00131144
2.11957e-08
-0.00183602
4.59923e-08
-0.00236062
8.5463e-08
-0.0028852
1.28881e-07
-0.00340983
1.93109e-07
-0.00393441
2.50099e-07
-0.00445905
3.36369e-07
-0.00498364
3.99916e-07
-0.00550826
5.00416e-07
-0.00603291
5.60983e-07
-0.00655743
6.62461e-07
-0.00708221
7.09463e-07
-0.00760652
7.92314e-07
-0.00813155
8.15297e-07
-0.00865553
8.53466e-07
-0.00918084
8.33214e-07
-0.00970444
8.20775e-07
-0.01023
7.92289e-07
-0.0107534
7.0895e-07
-0.0112788
6.04967e-07
-0.0118025
4.4235e-07
-0.0123271
2.456e-07
-0.000262198
-0.000786646
6.9934e-09
-0.00131108
2.61873e-08
-0.00183552
5.76385e-08
-0.00235997
1.04973e-07
-0.00288442
1.60798e-07
-0.00340889
2.35752e-07
-0.00393334
3.10593e-07
-0.00445782
4.08932e-07
-0.00498228
4.94337e-07
-0.00550673
6.07195e-07
-0.00603125
6.92152e-07
-0.00655559
8.05188e-07
-0.00708024
8.77347e-07
-0.00760436
9.70989e-07
-0.00812926
1.01731e-06
-0.00865304
1.06637e-06
-0.00917823
1.07594e-06
-0.00970166
1.04669e-06
-0.0102271
1.02467e-06
-0.0107503
9.07916e-07
-0.0112755
7.67079e-07
-0.011799
5.57311e-07
-0.0123235
3.10174e-07
-0.000262113
-0.000786391
8.46514e-09
-0.00131066
3.18197e-08
-0.00183493
7.05008e-08
-0.00235921
1.26902e-07
-0.00288348
1.95613e-07
-0.00340778
2.83247e-07
-0.00393206
3.7574e-07
-0.00445637
4.88637e-07
-0.00498066
5.94879e-07
-0.00550492
7.22247e-07
-0.00602927
8.2893e-07
-0.00655342
9.55064e-07
-0.00707791
1.04758e-06
-0.00760183
1.15238e-06
-0.00812654
1.21589e-06
-0.00865012
1.27489e-06
-0.00917511
1.29157e-06
-0.00969837
1.26977e-06
-0.0102235
1.21984e-06
-0.0107465
1.1007e-06
-0.0112715
9.30246e-07
-0.0117949
6.76667e-07
-0.0123191
3.80742e-07
-0.000262017
-0.000786102
1.00577e-08
-0.00131018
3.79798e-08
-0.00183425
8.44191e-08
-0.00235834
1.50841e-07
-0.00288242
2.3308e-07
-0.00340653
3.34756e-07
-0.00393061
4.45365e-07
-0.00445471
5.7432e-07
-0.00497881
7.01299e-07
-0.00550287
8.44389e-07
-0.00602702
9.71574e-07
-0.00655095
1.11077e-06
-0.00707524
1.22031e-06
-0.00759894
1.33388e-06
-0.00812345
1.40913e-06
-0.0086468
1.47281e-06
-0.00917156
1.49657e-06
-0.0096946
1.49203e-06
-0.0102195
1.40909e-06
-0.0107423
1.25122e-06
-0.011267
1.07821e-06
-0.0117901
7.9317e-07
-0.0123141
4.55937e-07
-0.000261911
-0.000785786
1.17231e-08
-0.00130965
4.44606e-08
-0.00183351
9.89556e-08
-0.00235739
1.75967e-07
-0.00288126
2.72017e-07
-0.00340515
3.88598e-07
-0.00392902
5.17437e-07
-0.0044529
6.63605e-07
-0.00497678
8.1125e-07
-0.00550061
9.71299e-07
-0.00602455
1.11845e-06
-0.00654824
1.27124e-06
-0.00707231
1.39561e-06
-0.00759576
1.51622e-06
-0.00812004
1.59667e-06
-0.00864315
1.65734e-06
-0.00916766
1.67535e-06
-0.00969043
1.64666e-06
-0.0102151
1.57178e-06
-0.0107376
1.39598e-06
-0.011262
1.19399e-06
-0.0117849
8.86155e-07
-0.0123085
5.18907e-07
-0.000261799
-0.000785448
1.34013e-08
-0.00130909
5.10372e-08
-0.00183273
1.1359e-07
-0.00235637
2.01396e-07
-0.00288002
3.10964e-07
-0.00340368
4.42918e-07
-0.00392732
5.89203e-07
-0.00445096
7.53725e-07
-0.00497461
9.20786e-07
-0.00549819
1.10011e-06
-0.00602188
1.26555e-06
-0.00654533
1.4355e-06
-0.00706915
1.57202e-06
-0.00759234
1.70373e-06
-0.00811636
1.78397e-06
-0.00863921
1.84513e-06
-0.00916345
1.84631e-06
-0.00968595
1.79886e-06
-0.0102103
1.7099e-06
-0.0107326
1.49965e-06
-0.0112567
1.26507e-06
-0.0117792
9.25182e-07
-0.0123026
5.28809e-07
-0.00026168
-0.000785093
1.53896e-08
-0.00130849
5.88352e-08
-0.0018319
1.30977e-07
-0.00235531
2.31545e-07
-0.00287871
3.57389e-07
-0.00340213
5.07532e-07
-0.00392552
6.75569e-07
-0.00444892
8.61976e-07
-0.00497231
1.05511e-06
-0.00549564
1.25797e-06
-0.00601908
1.45191e-06
-0.00654225
1.64384e-06
-0.00706581
1.80745e-06
-0.00758871
1.95515e-06
-0.00811246
2.05417e-06
-0.00863502
2.12035e-06
-0.00915897
2.12189e-06
-0.0096812
2.06712e-06
-0.0102052
1.94635e-06
-0.0107272
1.73687e-06
-0.011251
1.48661e-06
-0.0117733
1.07781e-06
-0.0122962
6.18122e-07
-0.000261559
-0.000784728
1.73584e-08
-0.00130789
6.65653e-08
-0.00183104
1.48151e-07
-0.00235421
2.61377e-07
-0.00287737
4.03145e-07
-0.00340053
5.7136e-07
-0.00392368
7.60499e-07
-0.00444682
9.68831e-07
-0.00496995
1.18729e-06
-0.00549301
1.41435e-06
-0.00601618
1.63658e-06
-0.00653907
1.85259e-06
-0.00706235
2.04495e-06
-0.00758496
2.21275e-06
-0.00810843
2.3358e-06
-0.00863068
2.41297e-06
-0.00915432
2.42499e-06
-0.00967625
2.36418e-06
-0.0101999
2.21601e-06
-0.0107216
2.00369e-06
-0.0112451
1.81836e-06
-0.011767
1.2617e-06
-0.0122896
7.2513e-07
-0.000261436
-0.00078436
1.9116e-08
-0.00130727
7.35112e-08
-0.00183018
1.63625e-07
-0.0023531
2.88364e-07
-0.00287601
4.44427e-07
-0.00339892
6.28985e-07
-0.00392181
8.36646e-07
-0.00444469
1.06466e-06
-0.00496756
1.30481e-06
-0.00549035
1.55363e-06
-0.00601325
1.79968e-06
-0.00653585
2.03791e-06
-0.00705885
2.25461e-06
-0.00758116
2.44221e-06
-0.00810431
2.58667e-06
-0.00862626
2.6778e-06
-0.00914957
2.70463e-06
-0.00967117
2.6484e-06
-0.0101945
2.51275e-06
-0.010716
2.25053e-06
-0.0112389
1.93737e-06
-0.0117606
1.4216e-06
-0.0122828
8.20023e-07
-0.000261313
-0.000783991
2.05991e-08
-0.00130666
7.95776e-08
-0.00182932
1.77402e-07
-0.00235199
3.12603e-07
-0.00287465
4.81564e-07
-0.0033973
6.80773e-07
-0.00391993
9.0483e-07
-0.00444255
1.15024e-06
-0.00496516
1.40917e-06
-0.00548767
1.67671e-06
-0.0060103
1.94277e-06
-0.00653261
2.19996e-06
-0.00705532
2.43681e-06
-0.00757733
2.64102e-06
-0.00810017
2.80265e-06
-0.0086218
2.9051e-06
-0.00914477
2.94328e-06
-0.00966606
2.89156e-06
-0.010189
2.75513e-06
-0.0107102
2.4825e-06
-0.0112327
2.12132e-06
-0.0117541
1.57144e-06
-0.0122758
9.05951e-07
-0.000261193
-0.000783629
2.1875e-08
-0.00130605
8.50056e-08
-0.00182848
1.89823e-07
-0.0023509
3.34479e-07
-0.00287331
5.15018e-07
-0.00339571
7.27293e-07
-0.00391809
9.66002e-07
-0.00444045
1.22687e-06
-0.0049628
1.50216e-06
-0.00548504
1.7854e-06
-0.00600739
2.06836e-06
-0.00652942
2.34149e-06
-0.00705184
2.59497e-06
-0.00757355
2.81225e-06
-0.00809608
2.98651e-06
-0.0086174
3.09579e-06
-0.00914002
3.14016e-06
-0.00966098
3.08883e-06
-0.0101835
2.95392e-06
-0.0107044
2.69167e-06
-0.0112265
2.28289e-06
-0.0117475
1.67812e-06
-0.0122688
9.73567e-07
-0.000261076
-0.000783278
2.27729e-08
-0.00130547
8.99355e-08
-0.00182766
2.01103e-07
-0.00234984
3.541e-07
-0.00287201
5.44911e-07
-0.00339417
7.68686e-07
-0.0039163
1.02044e-06
-0.0044384
1.29575e-06
-0.00496049
1.58575e-06
-0.00548246
1.88218e-06
-0.00600455
2.18017e-06
-0.0065263
2.46743e-06
-0.00704843
2.735e-06
-0.00756984
2.96257e-06
-0.00809206
3.14608e-06
-0.00861307
3.25792e-06
-0.00913535
3.30218e-06
-0.00965599
3.24249e-06
-0.0101782
3.09766e-06
-0.0106987
2.80975e-06
-0.0112203
2.40082e-06
-0.011741
1.7483e-06
-0.0122618
1.02308e-06
-0.000260965
-0.000782944
2.47996e-08
-0.00130491
9.50474e-08
-0.00182687
2.11134e-07
-0.00234882
3.71219e-07
-0.00287076
5.7146e-07
-0.00339269
8.05718e-07
-0.00391458
1.07127e-06
-0.00443643
1.361e-06
-0.00495828
1.65842e-06
-0.00547998
1.9707e-06
-0.00600182
2.28282e-06
-0.00652328
2.58158e-06
-0.00704513
2.86058e-06
-0.00756625
3.0964e-06
-0.00808816
3.28823e-06
-0.00860887
3.40138e-06
-0.00913081
3.44445e-06
-0.00965114
3.37411e-06
-0.0101729
3.21426e-06
-0.0106931
2.89965e-06
-0.0112143
2.48798e-06
-0.0117347
1.83027e-06
-0.012255
1.06568e-06
-0.000260859
-0.000782627
2.51821e-08
-0.00130438
9.79926e-08
-0.00182613
2.18605e-07
-0.00234786
3.85075e-07
-0.00286959
5.93765e-07
-0.00339128
8.41067e-07
-0.00391295
1.11684e-06
-0.00443455
1.4116e-06
-0.00495617
1.72971e-06
-0.00547761
2.0515e-06
-0.00599919
2.37272e-06
-0.00652037
2.67983e-06
-0.00704196
2.96854e-06
-0.00756279
3.21254e-06
-0.00808441
3.41295e-06
-0.00860482
3.52983e-06
-0.00912643
3.57403e-06
-0.00964646
3.49615e-06
-0.0101679
3.31998e-06
-0.0106877
2.9838e-06
-0.0112085
2.53338e-06
-0.0117286
1.88184e-06
-0.0122484
1.10433e-06
-0.000260761
-0.000782332
2.59914e-08
-0.00130389
1.00985e-07
-0.00182544
2.25227e-07
-0.00234697
3.96782e-07
-0.00286849
6.11773e-07
-0.00338997
8.64829e-07
-0.00391143
1.15033e-06
-0.0044328
1.45996e-06
-0.00495419
1.7856e-06
-0.00547539
2.11725e-06
-0.00599673
2.44935e-06
-0.00651765
2.766e-06
-0.00703898
3.06413e-06
-0.00755952
3.31556e-06
-0.00808086
3.52533e-06
-0.00860097
3.64735e-06
-0.00912226
3.6984e-06
-0.00964198
3.61807e-06
-0.010163
3.4359e-06
-0.0106826
3.07888e-06
-0.0112029
2.58295e-06
-0.0117227
1.91585e-06
-0.012242
1.12287e-06
-0.000260671
-0.000782062
2.65113e-08
-0.00130343
1.03169e-07
-0.00182481
2.30247e-07
-0.00234615
4.05861e-07
-0.00286749
6.26225e-07
-0.00338877
8.86006e-07
-0.00391003
1.179e-06
-0.0044312
1.49653e-06
-0.00495238
1.83135e-06
-0.00547335
2.17187e-06
-0.00599447
2.51193e-06
-0.00651514
2.8351e-06
-0.00703622
3.13996e-06
-0.00755649
3.39739e-06
-0.00807754
3.61502e-06
-0.00859737
3.74222e-06
-0.00911835
3.80179e-06
-0.00963777
3.72395e-06
-0.0101585
3.5481e-06
-0.0106777
3.18953e-06
-0.0111977
2.70698e-06
-0.0117172
1.97774e-06
-0.0122361
1.15609e-06
-0.000260589
-0.000781816
2.689e-08
-0.00130302
1.04726e-07
-0.00182423
2.33776e-07
-0.00234541
4.12166e-07
-0.00286657
6.36184e-07
-0.00338767
9.00594e-07
-0.00390876
1.19933e-06
-0.00442973
1.52332e-06
-0.00495072
1.86533e-06
-0.00547148
2.21234e-06
-0.00599239
2.559e-06
-0.00651283
2.88736e-06
-0.00703367
3.19736e-06
-0.00755369
3.45867e-06
-0.00807447
3.6815e-06
-0.00859403
3.81187e-06
-0.0091147
3.87801e-06
-0.00963384
3.801e-06
-0.0101542
3.63098e-06
-0.0106731
3.27373e-06
-0.0111928
2.79339e-06
-0.0117121
2.06199e-06
-0.0122304
1.20923e-06
-0.000260517
-0.000781597
2.71151e-08
-0.00130266
1.0566e-07
-0.00182372
2.3583e-07
-0.00234474
4.15704e-07
-0.00286575
6.41601e-07
-0.00338669
9.08447e-07
-0.00390762
1.21033e-06
-0.00442841
1.53815e-06
-0.00494924
1.88483e-06
-0.0054698
2.23638e-06
-0.00599053
2.58789e-06
-0.00651075
2.91966e-06
-0.00703138
3.23318e-06
-0.00755117
3.49662e-06
-0.0080717
3.7229e-06
-0.008591
3.85501e-06
-0.00911138
3.9258e-06
-0.00963024
3.84698e-06
-0.0101503
3.6795e-06
-0.0106689
3.31849e-06
-0.0111882
2.84666e-06
-0.0117072
2.1586e-06
-0.0122251
1.20433e-06
-0.000260453
-0.000781407
2.71862e-08
-0.00130234
1.05972e-07
-0.00182327
2.36412e-07
-0.00234416
4.16496e-07
-0.00286504
6.42495e-07
-0.00338583
9.09504e-07
-0.00390662
1.21178e-06
-0.00442726
1.54043e-06
-0.00494793
1.88872e-06
-0.00546832
2.24193e-06
-0.00598888
2.59584e-06
-0.00650891
2.92876e-06
-0.00702935
3.24392e-06
-0.00754894
3.50742e-06
-0.00806924
3.73556e-06
-0.00858832
3.86851e-06
-0.00910841
3.94431e-06
-0.00962704
3.86272e-06
-0.0101467
3.69665e-06
-0.0106652
3.32159e-06
-0.011184
2.83947e-06
-0.0117027
2.11758e-06
-0.0122202
1.26772e-06
-0.0002604
-0.000781246
2.70633e-08
-0.00130207
1.05544e-07
-0.00182289
2.35343e-07
-0.00234366
4.14354e-07
-0.00286443
6.38663e-07
-0.0033851
9.03606e-07
-0.00390577
1.20336e-06
-0.00442626
1.52968e-06
-0.0049468
1.87585e-06
-0.00546703
2.22731e-06
-0.00598744
2.58005e-06
-0.0065073
2.9111e-06
-0.00702757
3.2249e-06
-0.00754697
3.48552e-06
-0.00806707
3.71319e-06
-0.00858596
3.84554e-06
-0.0091058
3.92799e-06
-0.00962422
3.84581e-06
-0.0101436
3.69034e-06
-0.0106618
3.30631e-06
-0.0111803
2.8223e-06
-0.0116987
2.08299e-06
-0.0122158
1.23873e-06
-0.000260356
-0.000781116
2.67017e-08
-0.00130185
1.04274e-07
-0.00182259
2.32373e-07
-0.00234326
4.09021e-07
-0.00286394
6.29786e-07
-0.0033845
8.90702e-07
-0.00390507
1.18506e-06
-0.00442544
1.50627e-06
-0.00494586
1.84625e-06
-0.00546595
2.19274e-06
-0.00598623
2.53953e-06
-0.00650593
2.86558e-06
-0.00702605
3.17295e-06
-0.00754528
3.42699e-06
-0.0080652
3.64851e-06
-0.00858392
3.77637e-06
-0.00910354
3.86417e-06
-0.00962179
3.78504e-06
-0.0101409
3.65449e-06
-0.0106589
3.26814e-06
-0.011177
2.80363e-06
-0.0116953
2.05306e-06
-0.0122118
1.15474e-06
-0.000260322
-0.000781012
2.6309e-08
-0.00130168
1.02251e-07
-0.00182234
2.27907e-07
-0.00234294
4.00544e-07
-0.00286354
6.17102e-07
-0.00338402
8.7156e-07
-0.0039045
1.16007e-06
-0.00442477
1.47266e-06
-0.0049451
1.80593e-06
-0.00546507
2.14322e-06
-0.00598523
2.48331e-06
-0.00650479
2.8009e-06
-0.00702477
3.09899e-06
-0.00754385
3.34475e-06
-0.00806359
3.54704e-06
-0.00858216
3.66927e-06
-0.00910156
3.72911e-06
-0.00961967
3.66361e-06
-0.0101385
3.54281e-06
-0.0106563
3.17908e-06
-0.0111741
2.81478e-06
-0.0116922
2.04249e-06
-0.0122084
1.17707e-06
-0.000260301
-0.000780949
2.57518e-08
-0.00130157
1.00829e-07
-0.00182219
2.25023e-07
-0.00234274
3.96607e-07
-0.00286329
6.11339e-07
-0.00338371
8.65094e-07
-0.00390414
1.15167e-06
-0.00442434
1.46368e-06
-0.00494461
1.79631e-06
-0.00546449
2.13352e-06
-0.00598457
2.47774e-06
-0.00650402
2.79553e-06
-0.0070239
3.10634e-06
-0.00754284
3.34765e-06
-0.00806243
3.56916e-06
-0.00858083
3.66459e-06
-0.00910001
3.73736e-06
-0.00961794
3.6394e-06
-0.0101365
3.5191e-06
-0.0106542
3.17465e-06
-0.0111717
2.69408e-06
-0.0116896
1.99569e-06
-0.0122054
1.27796e-06
-0.000260273
-0.000780866
2.41374e-08
-0.00130143
9.43313e-08
-0.00182199
2.10595e-07
-0.00234248
3.71487e-07
-0.00286297
5.73419e-07
-0.00338332
8.12146e-07
-0.00390368
1.08127e-06
-0.0044238
1.37529e-06
-0.00494399
1.68681e-06
-0.00546378
2.00575e-06
-0.00598378
2.32611e-06
-0.00650316
2.62821e-06
-0.00702294
2.91597e-06
-0.00754181
3.15371e-06
-0.0080613
3.3576e-06
-0.00857962
3.48085e-06
-0.00909866
3.57659e-06
-0.00961648
3.41514e-06
-0.0101348
3.41387e-06
-0.0106524
2.91647e-06
-0.0111696
2.59563e-06
-0.0116875
1.91121e-06
-0.0122031
1.21704e-06
-0.000260283
-0.000780894
2.29895e-08
-0.00130148
8.96867e-08
-0.00182206
2.00335e-07
-0.00234255
3.53057e-07
-0.00286305
5.44381e-07
-0.00338339
7.71937e-07
-0.00390375
1.03053e-06
-0.00442383
1.31314e-06
-0.00494399
1.61458e-06
-0.00546373
1.9223e-06
-0.00598367
2.23573e-06
-0.00650295
2.53348e-06
-0.00702264
2.82053e-06
-0.0075414
3.05712e-06
-0.00806075
3.27112e-06
-0.00857897
3.39195e-06
-0.00909786
3.45893e-06
-0.00961558
3.51589e-06
-0.0101337
3.32565e-06
-0.0106511
3.29968e-06
-0.0111677
2.91057e-06
-0.0116855
2.0212e-06
-0.0122003
1.20397e-06
-0.000260281
-0.000780886
2.19426e-08
-0.00130146
8.57259e-08
-0.00182204
1.91551e-07
-0.00234253
3.38086e-07
-0.00286302
5.22272e-07
-0.00338335
7.41156e-07
-0.00390369
9.89787e-07
-0.00442376
1.2622e-06
-0.0049439
1.55423e-06
-0.0054636
1.85228e-06
-0.00598351
2.15869e-06
-0.00650274
2.44508e-06
-0.00702237
2.73046e-06
-0.00754107
2.95796e-06
-0.00806034
3.17082e-06
-0.0085785
3.2919e-06
-0.00909726
3.39235e-06
-0.00961499
3.11002e-06
-0.010133
3.20564e-06
-0.0106506
2.62641e-06
-0.0111672
2.38098e-06
-0.0116851
1.78966e-06
-0.0121996
1.07158e-06
-0.000260296
-0.000780932
2.04198e-08
-0.00130154
7.96626e-08
-0.00182214
1.77871e-07
-0.00234266
3.13706e-07
-0.00286317
4.84087e-07
-0.00338352
6.8673e-07
-0.00390388
9.16308e-07
-0.00442396
1.16834e-06
-0.0049441
1.43772e-06
-0.0054638
1.71389e-06
-0.00598369
1.99781e-06
-0.00650291
2.26441e-06
-0.00702249
2.53127e-06
-0.00754117
2.7487e-06
-0.00806036
2.96949e-06
-0.00857845
3.06378e-06
-0.00909705
3.17235e-06
-0.00961471
3.48219e-06
-0.0101324
3.09062e-06
-0.0106499
2.85348e-06
-0.0111661
2.46961e-06
-0.0116838
1.8016e-06
-0.0121983
1.08633e-06
-0.000260318
-0.000780997
1.90032e-08
-0.00130165
7.39891e-08
-0.00182229
1.65072e-07
-0.00234285
2.91076e-07
-0.0028634
4.48835e-07
-0.00338378
6.36693e-07
-0.00390417
8.48517e-07
-0.00442427
1.08196e-06
-0.00494444
1.32904e-06
-0.00546416
1.58439e-06
-0.00598406
1.8415e-06
-0.00650329
2.08858e-06
-0.00702284
2.32808e-06
-0.00754152
2.53068e-06
-0.00806064
2.72898e-06
-0.00857877
2.82624e-06
-0.00909724
2.91203e-06
-0.00961502
2.60492e-06
-0.0101324
2.69949e-06
-0.01065
2.4125e-06
-0.0111661
2.05957e-06
-0.0116838
1.49983e-06
-0.0121979
8.76114e-07
-0.000260349
-0.00078109
1.75833e-08
-0.0013018
6.85277e-08
-0.00182251
1.53001e-07
-0.00234312
2.69872e-07
-0.00286373
4.16307e-07
-0.00338416
5.90709e-07
-0.00390461
7.87468e-07
-0.00442475
1.0037e-06
-0.00494497
1.23384e-06
-0.00546471
1.46875e-06
-0.00598464
1.70861e-06
-0.0065039
1.93058e-06
-0.00702346
2.14903e-06
-0.00754216
2.31344e-06
-0.00806122
2.46897e-06
-0.00857939
2.51827e-06
-0.00909775
2.61735e-06
-0.00961551
2.54693e-06
-0.0101328
2.41724e-06
-0.0106504
2.19895e-06
-0.0111663
1.8606e-06
-0.011684
1.38311e-06
-0.0121979
8.01872e-07
-0.000260387
-0.000781203
1.58701e-08
-0.00130199
6.17515e-08
-0.00182277
1.37854e-07
-0.00234345
2.43222e-07
-0.00286414
3.75191e-07
-0.00338463
5.32773e-07
-0.00390514
7.10222e-07
-0.00442534
9.05576e-07
-0.00494561
1.11353e-06
-0.0054654
1.32559e-06
-0.00598537
1.54403e-06
-0.00650467
1.74344e-06
-0.00702427
1.94826e-06
-0.00754301
2.10016e-06
-0.0080621
2.26235e-06
-0.00858029
2.17113e-06
-0.00909859
2.3886e-06
-0.00961637
2.36913e-06
-0.0101337
2.2618e-06
-0.0106512
2.06286e-06
-0.0111671
1.76924e-06
-0.0116847
1.32072e-06
-0.0121985
7.89433e-07
-0.000260433
-0.000781342
1.39997e-08
-0.00130222
5.43548e-08
-0.00182309
1.21287e-07
-0.00234386
2.14035e-07
-0.00286464
3.30132e-07
-0.00338522
4.69352e-07
-0.00390581
6.2588e-07
-0.00442609
7.98509e-07
-0.00494643
9.82541e-07
-0.0054663
1.16941e-06
-0.00598632
1.36502e-06
-0.00650568
1.53812e-06
-0.00702528
1.72936e-06
-0.0075441
1.84536e-06
-0.00806314
2.02868e-06
-0.00858142
2.06323e-06
-0.00909973
2.11603e-06
-0.00961749
2.1041e-06
-0.0101348
2.00679e-06
-0.0106523
1.83668e-06
-0.0111681
1.5743e-06
-0.0116858
1.17799e-06
-0.0121995
7.05132e-07
-0.000260486
-0.000781499
1.19472e-08
-0.00130248
4.63127e-08
-0.00182346
1.03272e-07
-0.00234433
1.82297e-07
-0.00286521
2.81061e-07
-0.00338588
4.0003e-07
-0.00390657
5.33352e-07
-0.00442694
6.80903e-07
-0.00494737
8.3822e-07
-0.00546733
9.96465e-07
-0.00598742
1.16902e-06
-0.00650689
1.30738e-06
-0.00702654
1.49327e-06
-0.0075455
1.6228e-06
-0.00806452
1.70091e-06
-0.00858288
1.79465e-06
-0.00910125
1.81893e-06
-0.00961901
1.81796e-06
-0.0101364
1.73425e-06
-0.0106538
1.59277e-06
-0.0111697
1.36593e-06
-0.0116873
1.02508e-06
-0.012201
6.16321e-07
-0.000260545
-0.000781677
9.679e-09
-0.00130278
3.76991e-08
-0.00182387
8.39816e-08
-0.00234486
1.48617e-07
-0.00286586
2.29399e-07
-0.00338664
3.26564e-07
-0.00390745
4.34832e-07
-0.00442792
5.5555e-07
-0.00494846
6.85855e-07
-0.00546853
8.1039e-07
-0.00598869
9.66545e-07
-0.0065083
1.10167e-06
-0.00702796
1.20926e-06
-0.00754703
1.33175e-06
-0.00806615
1.40275e-06
-0.00858454
1.48458e-06
-0.009103
1.50063e-06
-0.00962079
1.50573e-06
-0.0101382
1.43396e-06
-0.0106557
1.32366e-06
-0.0111716
1.13395e-06
-0.0116893
8.5474e-07
-0.0122029
5.15452e-07
-0.000260611
-0.000781874
7.2969e-09
-0.0013031
2.86558e-08
-0.00182433
6.29455e-08
-0.00234545
1.12737e-07
-0.00286657
1.74137e-07