/*--------------------------------*- C++ -*----------------------------------*\
  =========                 |
  \\      /  F ield         | OpenFOAM: The Open Source CFD Toolbox
   \\    /   O peration     | Website:  https://openfoam.org
    \\  /    A nd           | Version:  10
     \\/     M anipulation  |
\*---------------------------------------------------------------------------*/
FoamFile
{
    format      ascii;
    class       volScalarField;
    location    "0.05";
    object      T;
}
// * * * * * * * * * * * * * * * * * * * * * * * * * * * * * * * * * * * * * //

dimensions      [0 0 0 1 0 0 0];

internalField   nonuniform List<scalar> 
4176
(
260.199
260.203
260.21
260.213
260.223
260.231
260.246
260.258
260.277
260.294
260.315
260.341
260.361
260.398
260.413
260.466
260.471
260.542
260.54
260.626
260.618
260.713
260.7
260.79
262.696
262.7
262.707
262.711
262.722
262.731
262.748
262.762
262.783
262.803
262.826
262.854
262.877
262.917
262.937
262.989
263.005
263.072
263.084
263.167
263.171
263.272
263.268
263.377
262.911
262.914
262.921
262.926
262.937
262.947
262.964
262.978
263
263.02
263.044
263.073
263.097
263.137
263.159
263.211
263.231
263.295
263.311
263.392
263.401
263.504
263.504
263.627
263.456
263.458
263.465
263.47
263.482
263.492
263.51
263.524
263.547
263.568
263.593
263.623
263.648
263.689
263.711
263.767
263.784
263.855
263.866
263.953
263.957
264.062
264.061
264.179
263.658
263.66
263.667
263.672
263.685
263.694
263.713
263.728
263.751
263.772
263.798
263.828
263.854
263.895
263.917
263.974
263.991
264.063
264.074
264.163
264.167
264.273
264.272
264.389
263.849
263.849
263.857
263.862
263.875
263.886
263.905
263.92
263.944
263.967
263.994
264.025
264.052
264.095
264.119
264.177
264.196
264.27
264.283
264.374
264.379
264.487
264.487
264.606
263.905
263.905
263.912
263.918
263.931
263.942
263.961
263.977
264.002
264.025
264.052
264.084
264.112
264.155
264.181
264.239
264.26
264.334
264.348
264.44
264.447
264.556
264.558
264.678
263.911
263.911
263.918
263.924
263.937
263.948
263.968
263.984
264.009
264.032
264.06
264.092
264.121
264.165
264.191
264.25
264.271
264.346
264.361
264.454
264.462
264.571
264.574
264.696
263.794
263.791
263.799
263.806
263.819
263.831
263.851
263.87
263.895
263.92
263.949
263.983
264.015
264.059
264.089
264.149
264.174
264.25
264.27
264.364
264.376
264.488
264.494
264.62
263.56
263.557
263.565
263.572
263.585
263.598
263.618
263.637
263.662
263.688
263.718
263.752
263.784
263.829
263.861
263.92
263.948
264.024
264.045
264.14
264.154
264.268
264.275
264.403
263.301
263.297
263.305
263.312
263.326
263.339
263.36
263.379
263.405
263.432
263.462
263.497
263.53
263.576
263.609
263.668
263.698
263.774
263.797
263.892
263.908
264.023
264.031
264.161
262.931
262.926
262.934
262.941
262.956
262.969
262.991
263.01
263.038
263.065
263.097
263.133
263.168
263.215
263.251
263.311
263.344
263.421
263.448
263.544
263.564
263.68
263.691
263.825
262.488
262.482
262.49
262.498
262.513
262.526
262.548
262.568
262.596
262.623
262.657
262.693
262.729
262.776
262.813
262.874
262.908
262.986
263.015
263.111
263.133
263.251
263.264
263.399
261.996
261.99
261.998
262.006
262.021
262.035
262.058
262.077
262.107
262.134
262.169
262.205
262.243
262.291
262.33
262.39
262.427
262.505
262.537
262.634
262.658
262.777
262.791
262.929
261.427
261.42
261.428
261.436
261.452
261.466
261.49
261.509
261.54
261.568
261.604
261.64
261.681
261.728
261.77
261.83
261.87
261.948
261.983
262.08
262.108
262.228
262.245
262.386
260.801
260.793
260.801
260.809
260.826
260.839
260.864
260.884
260.916
260.943
260.981
261.017
261.058
261.106
261.15
261.21
261.252
261.33
261.368
261.465
261.495
261.616
261.634
261.777
260.128
260.12
260.128
260.136
260.153
260.167
260.192
260.212
260.245
260.272
260.311
260.348
260.391
260.438
260.484
260.544
260.589
260.666
260.707
260.804
260.836
260.958
260.978
261.123
259.404
259.395
259.403
259.412
259.428
259.443
259.468
259.488
259.522
259.549
259.589
259.626
259.671
259.717
259.766
259.825
259.873
259.95
259.993
260.09
260.125
260.247
260.268
260.415
258.64
258.63
258.638
258.647
258.664
258.678
258.704
258.725
258.758
258.786
258.827
258.864
258.91
258.956
259.006
259.065
259.115
259.191
259.237
259.333
259.37
259.493
259.516
259.665
257.842
257.831
257.84
257.849
257.866
257.88
257.906
257.927
257.961
257.989
258.031
258.067
258.115
258.161
258.212
258.271
258.323
258.398
258.446
258.542
258.582
258.704
258.729
258.878
257.016
257.005
257.013
257.022
257.039
257.054
257.079
257.101
257.135
257.164
257.205
257.242
257.29
257.336
257.389
257.447
257.502
257.574
257.625
257.72
257.762
257.884
257.91
258.061
256.167
256.156
256.164
256.174
256.19
256.206
256.231
256.253
256.286
256.316
256.357
256.395
256.443
256.489
256.542
256.6
256.656
256.728
256.781
256.875
256.919
257.04
257.067
257.218
255.306
255.294
255.302
255.312
255.328
255.344
255.368
255.392
255.424
255.455
255.495
255.533
255.581
255.627
255.681
255.738
255.795
255.865
255.921
256.013
256.059
256.179
256.207
256.359
254.436
254.424
254.432
254.442
254.457
254.474
254.498
254.522
254.554
254.585
254.624
254.663
254.71
254.757
254.811
254.867
254.925
254.994
255.051
255.141
255.188
255.307
255.336
255.487
253.566
253.554
253.561
253.571
253.586
253.603
253.626
253.651
253.682
253.713
253.752
253.791
253.838
253.884
253.938
253.993
254.052
254.119
254.178
254.265
254.313
254.431
254.461
254.611
252.7
252.688
252.695
252.706
252.72
252.738
252.76
252.784
252.815
252.846
252.885
252.923
252.97
253.015
253.069
253.123
253.182
253.248
253.308
253.392
253.442
253.557
253.587
253.736
251.847
251.835
251.841
251.852
251.866
251.884
251.905
251.93
251.959
251.991
252.028
252.066
252.112
252.157
252.211
252.263
252.323
252.387
252.446
252.528
252.578
252.691
252.722
252.869
251.011
250.998
251.005
251.015
251.029
251.046
251.067
251.091
251.12
251.151
251.187
251.225
251.27
251.314
251.367
251.418
251.477
251.539
251.599
251.678
251.729
251.839
251.87
252.014
250.197
250.184
250.191
250.201
250.214
250.231
250.251
250.275
250.303
250.333
250.369
250.405
250.449
250.492
250.544
250.594
250.652
250.712
250.772
250.848
250.899
251.006
251.037
251.178
249.41
249.397
249.403
249.414
249.426
249.443
249.462
249.486
249.512
249.542
249.577
249.612
249.655
249.696
249.747
249.795
249.852
249.91
249.969
250.042
250.094
250.196
250.227
250.365
248.654
248.641
248.647
248.657
248.669
248.685
248.704
248.726
248.752
248.78
248.814
248.848
248.89
248.929
248.979
249.024
249.08
249.136
249.193
249.264
249.315
249.414
249.443
249.578
247.933
247.92
247.925
247.935
247.947
247.962
247.98
248.001
248.027
248.053
248.086
248.118
248.159
248.195
248.244
248.287
248.342
248.394
248.45
248.518
248.568
248.663
248.691
248.822
247.248
247.235
247.241
247.25
247.261
247.276
247.293
247.313
247.338
247.363
247.395
247.424
247.464
247.498
247.546
247.586
247.639
247.689
247.743
247.807
247.856
247.946
247.973
248.099
246.604
246.59
246.596
246.604
246.615
246.629
246.646
246.664
246.688
246.712
246.743
246.77
246.809
246.841
246.887
246.924
246.975
247.021
247.073
247.133
247.181
247.264
247.292
247.412
246.002
245.989
245.994
246.002
246.013
246.025
246.042
246.059
246.082
246.103
246.134
246.159
246.196
246.225
246.27
246.303
246.353
246.395
246.446
246.501
246.547
246.626
246.652
246.765
245.443
245.43
245.435
245.442
245.452
245.464
245.479
245.495
245.517
245.536
245.565
245.588
245.625
245.651
245.694
245.724
245.772
245.81
245.859
245.909
245.953
246.025
246.05
246.158
244.932
244.919
244.923
244.93
244.94
244.95
244.965
244.979
245
245.017
245.045
245.065
245.1
245.123
245.165
245.192
245.238
245.272
245.319
245.365
245.406
245.473
245.497
245.597
244.465
244.452
244.456
244.462
244.471
244.48
244.494
244.506
244.526
244.541
244.567
244.585
244.618
244.638
244.678
244.701
244.746
244.775
244.82
244.861
244.9
244.961
244.983
245.076
244.048
244.034
244.039
244.044
244.052
244.06
244.073
244.084
244.102
244.115
244.14
244.154
244.186
244.202
244.24
244.259
244.301
244.327
244.369
244.406
244.442
244.499
244.518
244.604
243.675
243.661
243.665
243.67
243.678
243.685
243.697
243.706
243.723
243.734
243.757
243.768
243.798
243.811
243.847
243.862
243.902
243.922
243.962
243.993
244.027
244.079
244.096
244.175
243.35
243.336
243.34
243.344
243.352
243.357
243.369
243.376
243.392
243.4
243.422
243.431
243.46
243.468
243.503
243.513
243.551
243.565
243.603
243.628
243.66
243.706
243.721
243.793
243.023
243.01
243.014
243.018
243.026
243.031
243.043
243.05
243.067
243.075
243.098
243.107
243.137
243.145
243.181
243.191
243.231
243.245
243.283
243.305
243.337
243.374
243.388
243.455
242.849
242.835
242.838
242.84
242.844
242.845
242.852
242.853
242.863
242.863
242.877
242.876
242.896
242.893
242.919
242.916
242.947
242.949
242.982
242.994
243.02
243.05
243.061
243.115
242.646
242.633
242.636
242.64
242.646
242.65
242.66
242.665
242.68
242.684
242.704
242.706
242.731
242.732
242.763
242.763
242.796
242.796
242.832
242.839
242.868
242.893
242.904
242.937
242.505
242.492
242.494
242.495
242.499
242.5
242.507
242.507
242.518
242.517
242.532
242.529
242.549
242.544
242.569
242.562
242.591
242.586
242.613
242.614
242.636
242.65
242.66
242.713
242.429
242.416
242.418
242.42
242.424
242.424
242.43
242.43
242.44
242.437
242.451
242.447
242.466
242.458
242.482
242.472
242.5
242.488
242.52
242.51
242.536
242.536
242.547
242.562
242.389
242.376
242.378
242.378
242.381
242.38
242.385
242.383
242.391
242.386
242.398
242.391
242.408
242.396
242.418
242.402
242.428
242.413
242.435
242.423
242.446
242.443
242.452
242.474
242.379
242.366
242.368
242.368
242.371
242.369
242.374
242.371
242.378
242.372
242.384
242.374
242.391
242.377
242.398
242.38
242.404
242.381
242.41
242.388
242.412
242.401
242.409
242.419
242.419
242.406
242.407
242.406
242.408
242.404
242.407
242.401
242.406
242.396
242.404
242.39
242.402
242.383
242.402
242.379
242.404
242.378
242.406
242.38
242.404
242.389
242.397
242.403
242.508
242.495
242.496
242.495
242.497
242.493
242.496
242.49
242.494
242.484
242.492
242.478
242.49
242.468
242.485
242.454
242.477
242.44
242.466
242.428
242.449
242.421
242.427
242.416
242.631
242.618
242.619
242.617
242.617
242.612
242.612
242.603
242.605
242.591
242.596
242.577
242.586
242.562
242.578
242.547
242.569
242.532
242.556
242.519
242.54
242.51
242.517
242.504
242.807
242.794
242.795
242.793
242.793
242.788
242.788
242.779
242.781
242.767
242.772
242.751
242.76
242.73
242.744
242.703
242.724
242.676
242.699
242.649
242.667
242.624
242.629
242.602
243.012
242.999
242.999
242.996
242.994
242.988
242.985
242.974
242.973
242.956
242.958
242.933
242.94
242.908
242.923
242.882
242.902
242.855
242.876
242.827
242.845
242.802
242.806
242.776
243.268
243.255
243.255
243.253
243.251
243.244
243.242
243.231
243.23
243.212
243.214
243.188
243.195
243.157
243.169
243.12
243.137
243.08
243.098
243.039
243.053
242.997
243
242.958
243.551
243.539
243.538
243.535
243.532
243.524
243.519
243.506
243.502
243.48
243.48
243.449
243.455
243.415
243.426
243.379
243.393
243.339
243.356
243.297
243.311
243.255
243.258
243.212
243.88
243.868
243.867
243.864
243.86
243.853
243.847
243.834
243.831
243.809
243.809
243.778
243.782
243.74
243.748
243.694
243.707
243.643
243.657
243.588
243.6
243.531
243.532
243.474
244.241
244.229
244.227
244.224
244.219
244.21
244.203
244.188
244.182
244.157
244.154
244.12
244.121
244.076
244.082
244.028
244.038
243.975
243.988
243.919
243.93
243.862
243.863
243.803
244.636
244.624
244.622
244.619
244.613
244.605
244.597
244.583
244.576
244.552
244.548
244.514
244.514
244.468
244.472
244.415
244.423
244.354
244.365
244.288
244.296
244.217
244.216
244.144
245.067
245.056
245.053
245.05
245.043
245.034
245.024
245.009
244.999
244.974
244.967
244.93
244.928
244.879
244.881
244.82
244.827
244.756
244.765
244.687
244.695
244.615
244.615
244.541
245.529
245.517
245.514
245.511
245.504
245.495
245.484
245.469
245.457
245.433
245.425
245.388
245.384
245.334
245.334
245.272
245.276
245.202
245.209
245.125
245.132
245.044
245.042
244.958
246.018
246.007
246.004
246
245.992
245.983
245.971
245.956
245.942
245.917
245.906
245.868
245.863
245.811
245.811
245.746
245.75
245.673
245.679
245.592
245.598
245.507
245.505
245.418
246.547
246.536
246.532
246.529
246.52
246.511
246.497
246.482
246.466
246.442
246.427
246.39
246.381
246.327
246.324
246.256
246.256
246.176
246.181
246.09
246.095
245.999
245.995
245.901
247.086
247.075
247.072
247.068
247.059
247.049
247.036
247.02
247.004
246.98
246.964
246.928
246.918
246.866
246.863
246.796
246.797
246.716
246.719
246.626
246.629
246.529
246.526
246.427
247.675
247.665
247.661
247.657
247.647
247.637
247.622
247.605
247.586
247.561
247.542
247.504
247.49
247.435
247.426
247.354
247.352
247.267
247.269
247.173
247.175
247.072
247.068
246.965
248.264
248.254
248.25
248.246
248.237
248.227
248.212
248.196
248.178
248.155
248.136
248.1
248.086
248.035
248.027
247.959
247.957
247.872
247.873
247.774
247.775
247.667
247.662
247.552
248.899
248.889
248.885
248.88
248.87
248.859
248.842
248.825
248.804
248.778
248.756
248.718
248.699
248.644
248.631
248.558
248.553
248.465
248.465
248.365
248.366
248.258
248.254
248.145
249.544
249.533
249.53
249.526
249.516
249.506
249.491
249.474
249.455
249.43
249.41
249.373
249.356
249.304
249.292
249.222
249.217
249.127
249.125
249.021
249.02
248.905
248.899
248.779
250.208
250.198
250.194
250.189
250.179
250.167
250.15
250.132
250.111
250.084
250.061
250.023
250.002
249.947
249.933
249.86
249.853
249.764
249.763
249.66
249.661
249.55
249.545
249.43
250.91
250.9
250.896
250.892
250.882
250.871
250.855
250.837
250.817
250.791
250.768
250.731
250.71
250.656
250.641
250.568
250.559
250.467
250.462
250.353
250.351
250.23
250.223
250.097
251.6
251.59
251.586
251.581
251.571
251.559
251.542
251.524
251.502
251.476
251.452
251.414
251.392
251.339
251.323
251.251
251.243
251.153
251.152
251.047
251.047
250.931
250.927
250.805
252.347
252.338
252.334
252.329
252.318
252.306
252.289
252.271
252.248
252.221
252.196
252.157
252.134
252.078
252.06
251.986
251.974
251.879
251.874
251.762
251.759
251.635
251.629
251.5
253.069
253.06
253.056
253.051
253.04
253.028
253.012
252.993
252.971
252.945
252.92
252.883
252.86
252.808
252.79
252.718
252.709
252.618
252.615
252.507
252.506
252.386
252.381
252.252
253.843
253.834
253.83
253.824
253.813
253.8
253.782
253.762
253.739
253.71
253.684
253.644
253.618
253.563
253.542
253.467
253.454
253.359
253.354
253.241
253.239
253.115
253.111
252.981
254.604
254.595
254.591
254.586
254.575
254.563
254.546
254.527
254.505
254.478
254.453
254.415
254.39
254.338
254.317
254.246
254.234
254.141
254.136
254.025
254.023
253.898
253.893
253.758
255.384
255.375
255.371
255.366
255.354
255.341
255.323
255.303
255.28
255.251
255.224
255.185
255.158
255.104
255.081
255.009
254.995
254.902
254.897
254.786
254.785
254.662
254.659
254.529
256.18
256.171
256.168
256.163
256.153
256.141
256.124
256.105
256.084
256.056
256.031
255.994
255.966
255.915
255.891
255.82
255.804
255.71
255.704
255.589
255.587
255.458
255.454
255.317
256.953
256.945
256.941
256.937
256.927
256.915
256.899
256.88
256.859
256.832
256.807
256.771
256.745
256.695
256.672
256.605
256.59
256.501
256.497
256.386
256.387
256.263
256.262
256.13
257.772
257.765
257.762
257.758
257.749
257.738
257.723
257.706
257.686
257.66
257.636
257.601
257.574
257.525
257.501
257.433
257.415
257.323
257.315
257.197
257.197
257.065
257.063
256.925
258.539
258.532
258.529
258.526
258.517
258.508
258.494
258.479
258.461
258.438
258.417
258.385
258.363
258.318
258.299
258.238
258.225
258.142
258.141
258.032
258.038
257.912
257.912
257.774
259.376
259.369
259.366
259.364
259.354
259.347
259.332
259.318
259.299
259.277
259.254
259.223
259.199
259.153
259.133
259.067
259.055
258.964
258.963
258.845
258.852
258.72
258.723
258.586
260.158
260.152
260.148
260.147
260.138
260.131
260.116
260.104
260.085
260.067
260.046
260.018
259.998
259.958
259.943
259.883
259.88
259.796
259.806
259.699
259.715
259.59
259.597
259.465
261.024
261.018
261.015
261.012
261.002
260.994
260.978
260.963
260.943
260.921
260.897
260.866
260.841
260.798
260.778
260.712
260.706
260.613
260.621
260.503
260.52
260.391
260.403
260.279
261.862
261.856
261.852
261.849
261.838
261.828
261.811
261.794
261.773
261.75
261.725
261.694
261.668
261.627
261.605
261.546
261.54
261.454
261.465
261.354
261.377
261.248
261.264
261.134
262.789
262.784
262.778
262.774
262.76
262.748
262.726
262.707
262.679
262.651
262.618
262.582
262.546
262.498
262.466
262.398
262.381
262.283
262.288
262.162
262.182
262.042
262.061
261.927
263.72
263.714
263.708
263.702
263.687
263.672
263.649
263.625
263.594
263.562
263.525
263.484
263.443
263.391
263.351
263.281
263.256
263.156
263.155
263.026
263.043
262.893
262.912
262.762
264.734
264.728
264.721
264.713
264.697
264.677
264.652
264.622
264.588
264.547
264.505
264.453
264.405
264.34
264.288
264.209
264.163
264.054
264.031
263.886
263.89
263.72
263.736
263.567
265.77
265.764
265.757
265.748
265.731
265.709
265.682
265.65
265.613
265.569
265.523
265.466
265.413
265.343
265.284
265.198
265.137
265.029
264.98
264.834
264.814
264.627
264.629
264.426
266.871
266.864
266.858
266.847
266.829
266.806
266.777
266.742
266.703
266.655
266.605
266.544
266.485
266.407
266.34
266.247
266.174
266.058
265.988
265.838
265.785
265.587
265.566
265.323
267.993
267.987
267.981
267.97
267.952
267.929
267.9
267.865
267.825
267.777
267.727
267.665
267.605
267.528
267.459
267.364
267.287
267.169
267.09
266.942
266.867
266.67
266.624
266.344
269.155
269.149
269.142
269.132
269.114
269.091
269.062
269.027
268.987
268.939
268.889
268.827
268.766
268.688
268.618
268.524
268.446
268.329
268.249
268.101
268.025
267.831
267.781
267.504
270.326
270.321
270.315
270.305
270.289
270.267
270.239
270.205
270.167
270.121
270.072
270.014
269.955
269.882
269.814
269.724
269.649
269.537
269.459
269.317
269.249
269.057
269.017
268.757
271.512
271.507
271.501
271.493
271.476
271.456
271.429
271.397
271.36
271.317
271.269
271.214
271.156
271.087
271.021
270.936
270.863
270.759
270.686
270.55
270.489
270.308
270.272
270.031
272.694
272.69
272.685
272.677
272.661
272.643
272.617
272.589
272.553
272.514
272.469
272.418
272.363
272.301
272.238
272.159
272.091
271.993
271.924
271.797
271.74
271.57
271.537
271.311
273.871
273.868
273.862
273.857
273.841
273.826
273.799
273.775
273.739
273.706
273.659
273.616
273.56
273.505
273.443
273.373
273.307
273.218
273.154
273.037
272.985
272.828
272.798
272.59
275.03
275.028
275.023
275.018
275.003
274.99
274.966
274.945
274.91
274.882
274.837
274.8
274.746
274.7
274.638
274.578
274.514
274.433
274.372
274.263
274.215
274.071
274.042
273.849
276.176
276.174
276.169
276.165
276.152
276.139
276.117
276.097
276.066
276.039
275.998
275.964
275.914
275.87
275.814
275.758
275.698
275.627
275.57
275.472
275.427
275.297
275.269
275.095
277.288
277.286
277.282
277.278
277.268
277.256
277.237
277.218
277.191
277.165
277.13
277.097
277.054
277.014
276.963
276.913
276.858
276.793
276.738
276.651
276.608
276.489
276.463
276.303
278.386
278.384
278.381
278.378
278.368
278.357
278.34
278.323
278.298
278.274
278.242
278.212
278.172
278.134
278.089
278.042
277.992
277.933
277.883
277.807
277.766
277.66
277.636
277.492
279.433
279.432
279.43
279.427
279.419
279.409
279.394
279.378
279.357
279.335
279.308
279.28
279.246
279.211
279.171
279.129
279.084
279.032
278.985
278.918
278.878
278.784
278.761
278.631
280.475
280.474
280.472
280.47
280.462
280.454
280.44
280.426
280.407
280.387
280.361
280.336
280.305
280.274
280.237
280.198
280.157
280.11
280.068
280.009
279.97
279.888
279.867
279.751
281.446
281.446
281.444
281.443
281.436
281.429
281.418
281.405
281.388
281.371
281.349
281.327
281.299
281.272
281.239
281.206
281.17
281.129
281.09
281.038
281.002
280.931
280.91
280.808
282.426
282.426
282.425
282.424
282.418
282.412
282.401
282.39
282.375
282.36
282.339
282.32
282.294
282.27
282.24
282.21
282.177
282.14
282.105
282.059
282.026
281.965
281.944
281.855
283.317
283.317
283.316
283.315
283.311
283.305
283.296
283.287
283.274
283.261
283.243
283.227
283.204
283.184
283.157
283.132
283.102
283.071
283.04
283.001
282.971
282.919
282.899
282.821
284.232
284.232
284.231
284.231
284.227
284.223
284.215
284.207
284.195
284.183
284.167
284.153
284.132
284.114
284.09
284.068
284.041
284.014
283.985
283.951
283.924
283.879
283.86
283.792
285.041
285.041
285.041
285.041
285.038
285.034
285.028
285.021
285.011
285.002
284.987
284.976
284.958
284.943
284.922
284.904
284.88
284.857
284.832
284.804
284.779
284.742
284.724
284.667
285.889
285.889
285.889
285.889
285.886
285.884
285.878
285.872
285.863
285.855
285.842
285.833
285.816
285.804
285.785
285.769
285.748
285.729
285.706
285.681
285.66
285.627
285.611
285.562
286.62
286.62
286.621
286.621
286.619
286.617
286.612
286.608
286.6
286.594
286.582
286.575
286.561
286.551
286.534
286.522
286.503
286.488
286.468
286.448
286.429
286.402
286.387
286.348
287.398
287.398
287.399
287.4
287.398
287.397
287.392
287.389
287.382
287.377
287.367
287.361
287.348
287.341
287.326
287.316
287.299
287.286
287.269
287.252
287.235
287.213
287.2
287.167
288.058
288.058
288.058
288.06
288.058
288.057
288.053
288.051
288.045
288.042
288.033
288.029
288.018
288.012
287.999
287.992
287.977
287.968
287.952
287.94
287.925
287.908
287.896
287.87
288.765
288.766
288.766
288.768
288.766
288.766
288.763
288.762
288.756
288.754
288.747
288.744
288.734
288.73
288.718
288.713
288.7
288.693
288.68
288.67
288.657
288.644
288.634
288.613
289.359
289.359
289.359
289.361
289.36
289.361
289.358
289.357
289.353
289.352
289.345
289.343
289.335
289.333
289.323
289.319
289.308
289.304
289.292
289.285
289.274
289.264
289.256
289.24
289.998
289.998
289.999
290.001
290
290.001
289.998
289.999
289.995
289.995
289.989
289.988
289.981
289.98
289.971
289.97
289.96
289.957
289.947
289.943
289.933
289.927
289.919
289.908
290.531
290.531
290.532
290.534
290.533
290.535
290.533
290.534
290.53
290.531
290.526
290.526
290.52
290.52
290.513
290.512
290.504
290.503
290.495
290.493
290.484
290.481
290.474
290.467
291.106
291.106
291.107
291.109
291.108
291.11
291.108
291.109
291.107
291.108
291.104
291.105
291.1
291.101
291.095
291.096
291.089
291.089
291.082
291.082
291.074
291.073
291.067
291.064
291.584
291.584
291.585
291.587
291.587
291.588
291.587
291.589
291.586
291.588
291.585
291.587
291.582
291.584
291.579
291.581
291.575
291.577
291.571
291.573
291.566
291.567
291.561
291.561
292.097
292.098
292.098
292.1
292.101
292.102
292.101
292.103
292.102
292.104
292.101
292.103
292.1
292.103
292.099
292.101
292.097
292.099
292.094
292.097
292.092
292.095
292.09
292.092
292.525
292.525
292.525
292.528
292.528
292.53
292.529
292.531
292.53
292.532
292.53
292.533
292.53
292.533
292.53
292.534
292.53
292.534
292.529
292.534
292.529
292.534
292.529
292.533
292.983
292.983
292.984
292.986
292.986
292.988
292.988
292.99
292.989
292.992
292.99
292.993
292.992
292.995
292.993
292.997
292.994
292.998
292.995
293
292.996
293.003
292.999
293.005
293.364
293.364
293.364
293.366
293.367
293.369
293.369
293.371
293.371
293.374
293.373
293.376
293.375
293.379
293.377
293.381
293.379
293.384
293.382
293.388
293.385
293.392
293.389
293.396
293.771
293.771
293.772
293.774
293.775
293.777
293.777
293.779
293.779
293.782
293.782
293.785
293.785
293.789
293.788
293.792
293.792
293.797
293.795
293.802
293.799
293.808
293.804
293.814
294.11
294.11
294.111
294.113
294.114
294.116
294.116
294.119
294.119
294.122
294.122
294.125
294.126
294.129
294.13
294.134
294.134
294.139
294.139
294.146
294.144
294.153
294.15
294.161
294.473
294.473
294.474
294.476
294.477
294.479
294.479
294.482
294.483
294.485
294.486
294.489
294.49
294.494
294.495
294.499
294.5
294.506
294.506
294.513
294.512
294.522
294.519
294.532
294.771
294.771
294.771
294.773
294.774
294.776
294.777
294.779
294.78
294.783
294.784
294.787
294.788
294.792
294.794
294.798
294.799
294.805
294.806
294.813
294.813
294.823
294.821
294.833
295.095
295.095
295.096
295.098
295.099
295.101
295.102
295.104
295.105
295.108
295.109
295.112
295.114
295.118
295.12
295.124
295.126
295.132
295.133
295.141
295.141
295.151
295.15
295.164
295.362
295.362
295.363
295.364
295.365
295.367
295.368
295.37
295.372
295.374
295.377
295.379
295.382
295.385
295.388
295.392
295.394
295.4
295.402
295.409
295.41
295.42
295.419
295.433
295.643
295.643
295.644
295.645
295.646
295.648
295.649
295.651
295.653
295.655
295.658
295.66
295.663
295.666
295.669
295.673
295.676
295.681
295.684
295.691
295.692
295.703
295.702
295.716
295.874
295.874
295.874
295.876
295.877
295.878
295.88
295.881
295.884
295.885
295.888
295.89
295.894
295.896
295.9
295.903
295.907
295.912
295.915
295.922
295.923
295.934
295.933
295.947
296.149
296.149
296.15
296.151
296.152
296.154
296.156
296.157
296.16
296.161
296.164
296.166
296.17
296.172
296.177
296.179
296.184
296.188
296.192
296.198
296.2
296.21
296.21
296.224
296.317
296.317
296.317
296.318
296.32
296.321
296.323
296.324
296.327
296.328
296.331
296.333
296.337
296.339
296.344
296.346
296.351
296.355
296.359
296.365
296.367
296.377
296.377
296.391
296.588
296.587
296.588
296.589
296.59
296.591
296.593
296.594
296.597
296.598
296.602
296.603
296.608
296.608
296.614
296.615
296.622
296.624
296.629
296.635
296.638
296.647
296.647
296.661
296.723
296.723
296.723
296.724
296.725
296.726
296.728
296.729
296.732
296.733
296.737
296.737
296.743
296.743
296.749
296.75
296.756
296.759
296.764
296.769
296.772
296.781
296.782
296.795
296.966
296.966
296.966
296.967
296.968
296.969
296.971
296.972
296.975
296.975
296.98
296.979
296.985
296.985
296.992
296.991
296.999
297
297.006
297.01
297.014
297.022
297.023
297.036
297.087
297.087
297.087
297.088
297.089
297.09
297.092
297.092
297.096
297.096
297.1
297.1
297.106
297.105
297.112
297.111
297.119
297.12
297.126
297.13
297.134
297.142
297.143
297.156
297.301
297.301
297.301
297.302
297.303
297.304
297.305
297.306
297.309
297.309
297.313
297.312
297.318
297.317
297.325
297.323
297.331
297.331
297.338
297.341
297.345
297.353
297.354
297.366
297.405
297.405
297.406
297.406
297.407
297.408
297.41
297.41
297.413
297.413
297.417
297.416
297.422
297.421
297.428
297.427
297.435
297.434
297.442
297.444
297.449
297.455
297.457
297.469
297.596
297.596
297.596
297.597
297.597
297.598
297.6
297.6
297.602
297.602
297.606
297.606
297.611
297.61
297.617
297.615
297.623
297.622
297.629
297.631
297.636
297.642
297.643
297.655
297.697
297.697
297.697
297.698
297.698
297.699
297.7
297.701
297.703
297.703
297.706
297.706
297.711
297.709
297.716
297.714
297.722
297.72
297.728
297.729
297.735
297.74
297.741
297.752
297.85
297.85
297.85
297.851
297.851
297.852
297.853
297.854
297.855
297.856
297.858
297.858
297.862
297.861
297.867
297.865
297.872
297.871
297.877
297.878
297.884
297.888
297.89
297.901
297.956
297.956
297.956
297.956
297.957
297.957
297.958
297.959
297.96
297.961
297.962
297.963
297.965
297.965
297.97
297.969
297.974
297.974
297.98
297.981
297.985
297.99
297.991
298.001
298.08
298.08
298.08
298.08
298.08
298.081
298.081
298.082
298.082
298.084
298.084
298.086
298.087
298.088
298.09
298.091
298.094
298.095
298.099
298.1
298.104
298.108
298.109
298.119
298.182
298.182
298.182
298.183
298.183
298.183
298.183
298.185
298.184
298.186
298.185
298.187
298.187
298.189
298.19
298.192
298.193
298.195
298.197
298.199
298.201
298.206
298.206
298.215
298.287
298.287
298.287
298.287
298.287
298.288
298.287
298.289
298.288
298.29
298.288
298.291
298.289
298.293
298.291
298.294
298.293
298.297
298.296
298.3
298.3
298.305
298.305
298.313
298.382
298.382
298.382
298.382
298.382
298.382
298.382
298.383
298.381
298.384
298.381
298.385
298.382
298.386
298.382
298.387
298.383
298.389
298.385
298.391
298.388
298.395
298.393
298.401
298.473
298.473
298.473
298.473
298.473
298.473
298.472
298.474
298.472
298.474
298.471
298.475
298.471
298.476
298.47
298.477
298.47
298.477
298.471
298.479
298.473
298.481
298.477
298.485
298.558
298.558
298.558
298.558
298.558
298.558
298.557
298.558
298.556
298.558
298.555
298.559
298.553
298.559
298.552
298.56
298.551
298.56
298.551
298.56
298.552
298.56
298.556
298.563
298.638
298.638
298.638
298.638
298.637
298.638
298.637
298.637
298.635
298.638
298.634
298.638
298.632
298.638
298.629
298.638
298.627
298.638
298.626
298.637
298.627
298.636
298.63
298.637
298.713
298.712
298.712
298.712
298.712
298.712
298.711
298.711
298.71
298.711
298.708
298.711
298.705
298.712
298.702
298.711
298.699
298.711
298.697
298.71
298.696
298.707
298.699
298.707
298.782
298.781
298.781
298.781
298.781
298.781
298.78
298.78
298.779
298.78
298.776
298.78
298.773
298.78
298.77
298.78
298.767
298.779
298.764
298.777
298.763
298.775
298.766
298.773
298.845
298.845
298.845
298.845
298.844
298.844
298.844
298.844
298.842
298.843
298.84
298.843
298.837
298.844
298.834
298.844
298.83
298.843
298.827
298.841
298.826
298.838
298.828
298.836
298.904
298.903
298.903
298.903
298.903
298.903
298.902
298.902
298.901
298.902
298.899
298.902
298.896
298.902
298.893
298.903
298.89
298.902
298.888
298.901
298.887
298.899
298.889
298.897
298.957
298.957
298.957
298.956
298.956
298.956
298.956
298.956
298.955
298.956
298.954
298.956
298.952
298.957
298.949
298.958
298.947
298.958
298.946
298.957
298.946
298.957
298.949
298.957
299.007
299.006
299.006
299.006
299.006
299.006
299.006
299.006
299.005
299.006
299.004
299.007
299.004
299.008
299.003
299.009
299.002
299.01
299.003
299.011
299.005
299.013
299.009
299.016
299.053
299.053
299.053
299.053
299.053
299.053
299.053
299.053
299.053
299.054
299.053
299.056
299.054
299.057
299.055
299.059
299.056
299.061
299.059
299.064
299.064
299.069
299.069
299.077
299.099
299.098
299.099
299.099
299.099
299.099
299.1
299.1
299.1
299.102
299.102
299.104
299.104
299.106
299.107
299.109
299.111
299.113
299.117
299.118
299.124
299.127
299.13
299.14
299.146
299.145
299.145
299.146
299.146
299.147
299.147
299.148
299.149
299.15
299.151
299.153
299.155
299.156
299.161
299.16
299.168
299.166
299.177
299.175
299.185
299.189
299.194
299.206
299.195