/*--------------------------------*- C++ -*----------------------------------*\
  =========                 |
  \\      /  F ield         | OpenFOAM: The Open Source CFD Toolbox
   \\    /   O peration     | Website:  https://openfoam.org
    \\  /    A nd           | Version:  10
     \\/     M anipulation  |
\*---------------------------------------------------------------------------*/
FoamFile
{
    format      ascii;
    class       volVectorField;
    location    "0.05";
    object      U;
}
// * * * * * * * * * * * * * * * * * * * * * * * * * * * * * * * * * * * * * //

dimensions      [0 1 -1 0 0 0 0];

internalField   nonuniform List<vector> 
4176
(
(337.941 0.0396509 6.17611e-11)
(337.945 -0.0204796 -8.26827e-12)
(337.928 0.106462 -1.66074e-11)
(337.908 -0.0103356 1.90533e-11)
(337.875 0.167206 -6.14901e-12)
(337.841 -0.00371035 1.80754e-11)
(337.791 0.230997 -3.93397e-12)
(337.744 -0.00339663 -3.73675e-12)
(337.675 0.296009 7.43206e-12)
(337.616 -0.00695742 -5.62312e-12)
(337.528 0.355386 -1.65763e-11)
(337.457 -0.00421072 -1.75094e-11)
(337.35 0.386361 4.35396e-12)
(337.263 0.0360147 -2.0124e-12)
(337.142 0.363525 1.3851e-12)
(337.03 0.120041 -4.6082e-13)
(336.909 0.290659 -1.4955e-12)
(336.756 0.240035 4.43068e-12)
(336.646 0.157924 6.89164e-12)
(336.442 0.422557 1.52079e-11)
(336.359 -0.0490463 9.11176e-12)
(336.095 0.675371 2.2479e-12)
(336.062 -0.309587 3.58665e-13)
(335.739 0.996967 3.92855e-12)
(332.285 0.0499691 6.742e-11)
(332.289 0.00526971 -8.53833e-12)
(332.27 0.146129 -1.56602e-11)
(332.247 0.0468473 1.85534e-11)
(332.212 0.23866 -5.42569e-12)
(332.175 0.085104 1.7561e-11)
(332.122 0.334804 -5.06288e-12)
(332.07 0.117153 -3.59742e-12)
(331.997 0.432933 8.16757e-12)
(331.932 0.145347 -5.39722e-12)
(331.838 0.526933 -1.73496e-11)
(331.761 0.179125 -1.73487e-11)
(331.646 0.596355 3.28393e-12)
(331.553 0.2476 -1.98754e-12)
(331.421 0.615576 1.89269e-12)
(331.305 0.357929 -6.12979e-13)
(331.166 0.584181 -1.90947e-12)
(331.013 0.511004 4.29554e-12)
(330.881 0.489452 6.30861e-12)
(330.675 0.722981 1.42978e-11)
(330.57 0.310589 9.4241e-12)
(330.287 0.994598 7.69496e-14)
(330.241 0.0437485 7.85023e-13)
(329.864 1.32557 3.47378e-12)
(332.362 0.0607124 6.84965e-11)
(332.365 0.031529 -8.05764e-12)
(332.346 0.18727 -1.82886e-11)
(332.322 0.105353 1.81814e-11)
(332.287 0.312613 -5.21994e-12)
(332.247 0.176306 1.63843e-11)
(332.193 0.442127 -2.1616e-12)
(332.14 0.241279 -2.96439e-12)
(332.066 0.574234 9.68332e-12)
(331.998 0.302576 -5.22097e-12)
(331.903 0.70338 -1.82788e-11)
(331.823 0.368654 -1.7661e-11)
(331.705 0.810423 4.67389e-12)
(331.611 0.469927 -1.49085e-12)
(331.473 0.867542 2.193e-12)
(331.361 0.612946 9.56937e-13)
(331.208 0.879059 -3.20009e-12)
(331.066 0.795749 2.60366e-12)
(330.916 0.83365 6.47269e-12)
(330.719 1.03742 1.37524e-11)
(330.598 0.710222 9.22744e-12)
(330.31 1.34383 1.82779e-12)
(330.251 0.495975 8.40665e-13)
(329.832 1.72685 3.98167e-12)
(332.067 0.0716054 8.22004e-11)
(332.069 0.0582376 -7.94661e-12)
(332.051 0.229501 -1.85572e-11)
(332.026 0.165158 1.85867e-11)
(331.99 0.388446 -5.37701e-12)
(331.95 0.26957 1.39945e-11)
(331.895 0.552025 -1.91531e-12)
(331.84 0.368154 -4.31576e-12)
(331.765 0.718681 4.16967e-12)
(331.696 0.46317 -3.40776e-12)
(331.599 0.883285 -1.78711e-11)
(331.518 0.562048 -1.83758e-11)
(331.398 1.02858 5.90431e-12)
(331.301 0.695691 -2.3086e-12)
(331.165 1.12352 -1.64947e-12)
(331.045 0.870988 -1.91945e-15)
(330.9 1.17804 -1.53481e-12)
(330.746 1.0822 2.19645e-12)
(330.606 1.18139 7.47354e-12)
(330.398 1.35282 1.30662e-11)
(330.287 1.11203 7.91665e-12)
(329.995 1.69986 1.01055e-12)
(329.939 0.959638 -3.06164e-13)
(329.529 2.13822 -2.55301e-12)
(332.196 0.0826912 8.84408e-11)
(332.198 0.0856055 -5.88421e-12)
(332.179 0.2723 -1.39321e-11)
(332.155 0.226243 1.79242e-11)
(332.118 0.465404 -1.95304e-12)
(332.078 0.364719 1.62015e-11)
(332.022 0.663666 -3.37226e-12)
(331.967 0.497358 -3.43542e-12)
(331.89 0.865506 7.98568e-12)
(331.821 0.626268 -4.71755e-12)
(331.722 1.06615 -1.80737e-11)
(331.64 0.758129 -1.66136e-11)
(331.519 1.25156 3.71084e-12)
(331.42 0.920786 -2.74937e-12)
(331.285 1.38782 2.452e-14)
(331.159 1.12543 -1.67487e-12)
(331.021 1.48377 -1.84322e-12)
(330.857 1.36818 2.71669e-12)
(330.726 1.52869 4.04837e-12)
(330.508 1.6696 1.70502e-11)
(330.406 1.50055 1.26463e-11)
(330.112 2.04987 2.9257e-12)
(330.062 1.38707 1.85965e-12)
(329.668 2.52282 4.34293e-12)
(332.628 0.093807 8.0559e-11)
(332.63 0.113198 -5.52311e-12)
(332.612 0.315464 -1.14826e-11)
(332.587 0.2881 1.57438e-11)
(332.55 0.5432 -1.05231e-11)
(332.509 0.461103 1.35417e-11)
(332.452 0.776574 -1.2658e-12)
(332.397 0.628148 -5.69874e-12)
(332.319 1.014 8.0975e-12)
(332.249 0.791189 -2.06465e-12)
(332.15 1.25107 -1.81557e-11)
(332.067 0.956183 -2.01122e-11)
(331.945 1.47678 2.01117e-12)
(331.846 1.14676 -8.70489e-13)
(331.709 1.65533 -1.28025e-12)
(331.584 1.38256 4.20791e-13)
(331.442 1.79093 4.72099e-12)
(331.278 1.65574 4.73203e-12)
(331.146 1.87806 9.66032e-12)
(330.927 1.98729 1.83045e-11)
(330.824 1.88886 1.02702e-11)
(330.529 2.39845 -4.71159e-12)
(330.479 1.80685 -2.56141e-13)
(330.082 2.90227 4.30043e-12)
(333.338 0.104991 8.89589e-11)
(333.34 0.140794 -5.51445e-12)
(333.321 0.359343 -2.46952e-11)
(333.296 0.350435 1.49911e-11)
(333.259 0.622133 1.36236e-12)
(333.218 0.55835 1.34651e-11)
(333.161 0.890977 -9.38654e-12)
(333.104 0.760225 -3.64656e-12)
(333.027 1.16425 1.23171e-11)
(332.956 0.957916 -5.07703e-12)
(332.856 1.43769 -2.02743e-11)
(332.772 1.15689 -1.35973e-11)
(332.648 1.70214 1.22048e-11)
(332.551 1.3771 5.85159e-13)
(332.409 1.92346 1.96916e-12)
(332.287 1.64219 2.96552e-12)
(332.14 2.10286 -5.33882e-13)
(331.978 1.94441 5.95958e-13)
(331.842 2.23101 6.01139e-12)
(331.624 2.30807 1.63069e-11)
(331.517 2.282 9.61423e-12)
(331.222 2.75219 -5.03519e-12)
(331.169 2.23913 1.097e-12)
(330.767 3.29147 7.41559e-12)
(334.27 0.116523 8.10033e-11)
(334.272 0.169007 -1.05846e-12)
(334.253 0.403749 -6.66299e-12)
(334.228 0.413589 1.54615e-11)
(334.19 0.701851 -7.89395e-12)
(334.149 0.656728 1.47251e-11)
(334.092 1.00655 2.67573e-12)
(334.035 0.893736 -4.95101e-12)
(333.957 1.31611 -5.27224e-13)
(333.886 1.12637 -6.46242e-12)
(333.785 1.62631 -1.35195e-11)
(333.701 1.35977 -1.72307e-11)
(333.576 1.92908 -4.47587e-12)
(333.479 1.60976 -4.62761e-12)
(333.335 2.19403 6.96372e-12)
(333.213 1.90413 -2.34095e-12)
(333.064 2.41728 2.11877e-12)
(332.903 2.23614 1.21655e-11)
(332.765 2.58655 7.97316e-12)
(332.548 2.6315 5.87455e-12)
(332.438 2.67839 9.71557e-12)
(332.143 3.10849 5.81741e-12)
(332.088 2.67521 -6.052e-13)
(331.685 3.68278 -8.47136e-12)
(335.411 0.127983 7.74231e-11)
(335.413 0.197462 -6.5493e-12)
(335.393 0.448065 -2.35275e-11)
(335.369 0.477292 8.46246e-12)
(335.33 0.781705 -7.61994e-12)
(335.29 0.755847 1.0125e-11)
(335.231 1.12258 -7.92674e-12)
(335.176 1.02805 -7.04269e-12)
(335.096 1.46879 3.55924e-12)
(335.026 1.29563 -8.52342e-12)
(334.923 1.81606 -2.18193e-11)
(334.84 1.56367 -1.84293e-11)
(334.713 2.15696 8.31908e-13)
(334.617 1.84398 -3.47875e-12)
(334.471 2.46585 3.33871e-12)
(334.35 2.1673 1.7633e-14)
(334.199 2.73239 -3.79375e-14)
(334.039 2.52933 4.30717e-12)
(333.897 2.94329 5.41493e-12)
(333.682 2.95589 1.03266e-11)
(333.57 3.07622 8.70857e-12)
(333.276 3.46545 -1.97813e-12)
(333.219 3.11287 4.48471e-13)
(332.816 4.07475 2.2438e-12)
(336.742 0.139287 1.02165e-10)
(336.744 0.226567 8.14578e-12)
(336.724 0.492214 -7.82515e-12)
(336.701 0.542075 1.95222e-11)
(336.66 0.861648 6.19736e-12)
(336.622 0.856237 1.93497e-11)
(336.56 1.23915 4.25319e-12)
(336.508 1.16363 2.24341e-12)
(336.424 1.6226 1.57398e-11)
(336.357 1.46604 9.50979e-13)
(336.251 2.00748 -1.01848e-11)
(336.169 1.76873 -8.88463e-12)
(336.041 2.38673 1.26255e-11)
(335.945 2.0808 4.95429e-12)
(335.796 2.73942 1.27386e-11)
(335.677 2.43252 7.52733e-12)
(335.522 3.04901 8.91808e-12)
(335.365 2.82476 1.18138e-11)
(335.219 3.30212 1.35808e-11)
(335.006 3.28213 1.80197e-11)
(334.89 3.47653 1.66643e-11)
(334.598 3.82393 6.18331e-12)
(334.539 3.55314 6.60054e-12)
(334.135 4.46774 8.13603e-12)
(338.247 0.150239 9.24186e-11)
(338.249 0.256609 3.10694e-12)
(338.228 0.535928 -1.39838e-11)
(338.206 0.60813 1.46062e-11)
(338.164 0.941332 1.70449e-12)
(338.128 0.958044 1.4694e-11)
(338.064 1.35578 8.87697e-13)
(338.013 1.30052 7.04377e-13)
(337.926 1.77708 1.40846e-11)
(337.862 1.63733 -4.33696e-13)
(337.752 2.20033 -1.04633e-11)
(337.673 1.9744 -7.63246e-12)
(337.542 2.61787 1.40081e-11)
(337.447 2.31965 6.42374e-12)
(337.296 3.0143 1.64394e-11)
(337.179 2.69936 1.19053e-11)
(337.02 3.36683 1.41039e-11)
(336.866 3.12165 1.60608e-11)
(336.716 3.66239 1.9675e-11)
(336.506 3.60952 2.5156e-11)
(336.386 3.87862 9.40229e-12)
(336.096 4.18323 -1.73044e-11)
(336.034 3.99553 -1.265e-11)
(335.631 4.86139 -1.34421e-11)
(339.909 0.160938 9.46564e-11)
(339.911 0.287328 4.78897e-12)
(339.891 0.579471 -1.51665e-11)
(339.869 0.675209 1.06979e-11)
(339.826 1.02104 -1.80239e-12)
(339.791 1.06119 1.13752e-11)
(339.725 1.47258 -4.44874e-12)
(339.677 1.4391 -5.68524e-12)
(339.587 1.93186 6.9154e-12)
(339.525 1.8104 -6.51206e-12)
(339.411 2.3942 -1.79258e-11)
(339.336 2.18078 -1.36073e-11)
(339.2 2.85091 6.38092e-12)
(339.108 2.55992 5.68464e-13)
(338.954 3.2903 7.67303e-12)
(338.839 2.96799 3.07347e-12)
(338.677 3.68591 3.81466e-12)
(338.525 3.4202 6.77122e-12)
(338.372 4.02442 7.47973e-12)
(338.164 3.93839 1.20503e-11)
(338.041 4.28289 1.28003e-11)
(337.752 4.54363 2.74417e-12)
(337.688 4.44027 4.4103e-12)
(337.285 5.25562 4.41742e-12)
(341.713 0.171534 9.70505e-11)
(341.715 0.318568 4.8721e-12)
(341.694 0.62294 -1.86164e-11)
(341.673 0.743117 6.50163e-12)
(341.629 1.10081 -7.66404e-12)
(341.595 1.16541 4.39363e-12)
(341.527 1.58954 -1.42855e-11)
(341.48 1.57893 -1.61172e-11)
(341.388 2.08696 -5.23743e-12)
(341.329 1.98493 -1.84558e-11)
(341.212 2.58846 -3.60934e-11)
(341.139 2.38875 -3.0346e-11)
(341 3.08566 -1.57983e-11)
(340.911 2.80048 -2.72474e-12)
(340.753 3.56645 2.39358e-11)
(340.641 3.23822 1.51709e-11)
(340.475 4.00604 1.60666e-11)
(340.327 3.72001 1.52836e-11)
(340.169 4.38778 1.49423e-11)
(339.964 4.26831 1.8908e-11)
(339.837 4.68888 1.82842e-11)
(339.551 4.90471 6.23158e-12)
(339.484 4.88705 7.85477e-12)
(339.081 5.65009 6.30764e-12)
(343.642 0.182039 1.07e-10)
(343.644 0.350249 1.77428e-11)
(343.623 0.66636 -1.84407e-11)
(343.602 0.811751 -5.16594e-12)
(343.558 1.18065 -9.79934e-12)
(343.525 1.27058 9.75131e-12)
(343.456 1.70668 5.368e-13)
(343.41 1.71992 5.9353e-12)
(343.316 2.24231 7.49832e-12)
(343.259 2.16082 -1.86311e-11)
(343.139 2.78319 -2.78718e-11)
(343.069 2.59834 -1.60285e-11)
(342.926 3.32097 1.17766e-11)
(342.84 3.04212 1.01198e-11)
(342.678 3.84314 2.87839e-12)
(342.57 3.50923 -1.20496e-11)
(342.399 4.32714 -6.80183e-12)
(342.255 4.02103 2.35955e-12)
(342.092 4.75239 1.06765e-11)
(341.892 4.59918 2.25776e-11)
(341.76 5.09642 1.03046e-11)
(341.477 5.26626 -1.39624e-11)
(341.407 5.33565 -3.47079e-12)
(341.006 6.04446 4.04439e-12)
(345.682 0.192454 9.7816e-11)
(345.683 0.382299 -3.20063e-12)
(345.662 0.709713 -1.0885e-11)
(345.642 0.881003 2.6788e-11)
(345.597 1.26052 8.18028e-12)
(345.565 1.37657 1.16144e-11)
(345.495 1.82392 -1.32543e-11)
(345.45 1.86189 -2.2574e-11)
(345.354 2.39778 5.19092e-12)
(345.299 2.33781 6.89966e-12)
(345.177 2.97804 -1.43127e-11)
(345.109 2.80913 -2.02071e-11)
(344.962 3.55666 -1.19631e-11)
(344.88 3.28518 -3.76655e-12)
(344.714 4.12043 1.96601e-11)
(344.61 3.78088 8.00914e-12)
(344.435 4.64882 5.25135e-13)
(344.295 4.3231 -5.49008e-12)
(344.127 5.11797 -1.64807e-11)
(343.93 4.93071 1.81247e-12)
(343.794 5.50515 1.90872e-11)
(343.515 5.62791 2.98812e-12)
(343.442 5.78573 -3.44711e-12)
(343.042 6.43832 -1.40039e-11)
(347.815 0.202784 1.12003e-10)
(347.816 0.414661 2.46622e-11)
(347.795 0.752951 -1.47697e-11)
(347.775 0.950747 -9.39034e-12)
(347.73 1.34032 -1.12632e-11)
(347.698 1.48323 1.14856e-11)
(347.627 1.94112 6.65546e-12)
(347.584 2.00469 9.90495e-12)
(347.486 2.55321 7.47549e-12)
(347.433 2.51569 -1.93795e-11)
(347.308 3.17277 -2.46346e-11)
(347.244 3.02079 -1.17305e-11)
(347.094 3.79223 1.74392e-11)
(347.015 3.52892 -5.66576e-12)
(346.845 4.39852 -1.74287e-11)
(346.745 4.05385 -8.76878e-12)
(346.565 4.97061 9.85285e-13)
(346.429 4.62575 1.19813e-11)
(346.256 5.48402 1.97738e-11)
(346.064 5.26237 6.03372e-12)
(345.924 5.91444 -6.77985e-12)
(345.648 5.9891 -6.343e-12)
(345.572 6.23673 5.55497e-12)
(345.175 6.83113 1.22573e-11)
(350.025 0.213013 1.01664e-10)
(350.026 0.447277 3.49257e-12)
(350.005 0.796022 -2.69962e-11)
(349.986 1.02087 -1.27312e-11)
(349.94 1.41997 -3.97834e-12)
(349.909 1.59041 2.79892e-11)
(349.837 2.05818 9.60637e-12)
(349.795 2.14815 -2.1518e-12)
(349.696 2.70847 4.85475e-12)
(349.644 2.69434 -1.26763e-11)
(349.518 3.36721 -3.29247e-11)
(349.456 3.23318 -3.2756e-11)
(349.303 4.0273 3.45443e-12)
(349.228 3.77333 1.49141e-11)
(349.053 4.67612 1.7495e-11)
(348.958 4.328 7.5356e-12)
(348.773 5.29331 4.09506e-12)
(348.641 4.92837 4.98159e-13)
(348.465 5.8499 -8.86903e-12)
(348.277 5.59363 -1.07906e-11)
(348.133 6.32368 -1.44538e-11)
(347.862 6.34932 -4.05417e-12)
(347.782 6.68812 1.78141e-11)
(347.388 7.22232 9.70928e-12)
(352.296 0.223111 1.0922e-10)
(352.297 0.480088 1.89916e-11)
(352.275 0.838861 -1.39549e-12)
(352.257 1.09123 1.9192e-11)
(352.211 1.49933 1.25063e-11)
(352.181 1.69793 2.54446e-11)
(352.108 2.17493 1.529e-11)
(352.067 2.29208 1.26582e-11)
(351.967 2.86336 3.27326e-11)
(351.917 2.87357 -5.58524e-12)
(351.788 3.56118 -4.46874e-11)
(351.729 3.44618 -3.56446e-11)
(351.573 4.26165 -1.98743e-11)
(351.502 4.01821 -1.94549e-11)
(351.323 4.9527 -1.05236e-11)
(351.233 4.60246 -9.42868e-12)
(351.043 5.6165 -6.74141e-12)
(350.916 5.23068 -1.87476e-12)
(350.735 6.21487 -6.90268e-13)
(350.553 5.92402 9.17399e-12)
(350.405 6.73232 1.54219e-11)
(350.138 6.70811 6.23196e-12)
(350.055 7.13934 1.00516e-11)
(349.665 7.61127 1.23658e-11)
(354.609 0.233056 1.05549e-10)
(354.61 0.513003 1.11126e-11)
(354.589 0.881393 -1.58266e-11)
(354.571 1.1617 1.78442e-12)
(354.524 1.57827 -1.11855e-11)
(354.495 1.8056 -1.45521e-12)
(354.422 2.29115 -1.70561e-11)
(354.383 2.43621 -1.99461e-11)
(354.281 3.01761 -8.87181e-12)
(354.233 3.05309 -2.20456e-11)
(354.102 3.75439 -3.62364e-11)
(354.046 3.65957 -3.3353e-11)
(353.887 4.49505 -2.35919e-11)
(353.82 4.26336 -2.47479e-11)
(353.637 5.22861 -2.232e-11)
(353.551 4.87613 -2.49868e-11)
(353.358 5.9382 2.65285e-12)
(353.237 5.53225 2.72711e-11)
(353.052 6.57859 2.58523e-11)
(352.875 6.25323 2.78716e-11)
(352.722 7.1399 2.99544e-11)
(352.461 7.06505 1.4445e-11)
(352.374 7.5898 1.57454e-11)
(351.989 7.99733 1.52462e-11)
(356.949 0.242901 9.41477e-11)
(356.949 0.545856 1.86495e-11)
(356.928 0.923609 6.23129e-12)
(356.91 1.23212 3.76761e-12)
(356.864 1.65668 7.09328e-12)
(356.835 1.91319 3.04314e-11)
(356.762 2.40658 -1.46929e-12)
(356.724 2.58026 -2.31733e-11)
(356.622 3.17085 3.11464e-12)
(356.575 3.23248 2.97546e-12)
(356.443 3.94644 -2.72231e-11)
(356.389 3.87289 -1.38599e-11)
(356.228 4.72719 1.0667e-11)
(356.164 4.50816 -1.08693e-11)
(355.979 5.50316 9.78271e-12)
(355.898 5.14949 1.69113e-11)
(355.7 6.25761 -6.49968e-14)
(355.586 5.83164 -1.73003e-11)
(355.396 6.94065 -8.77419e-12)
(355.225 6.58109 8.05124e-12)
(355.068 7.54595 -6.87707e-12)
(354.813 7.41969 -5.87163e-12)
(354.722 8.03884 6.97713e-12)
(354.342 8.37976 -1.17139e-11)
(359.297 0.252912 1.10075e-10)
(359.296 0.578309 2.6534e-11)
(359.276 0.965817 6.49602e-12)
(359.258 1.30214 2.49608e-11)
(359.213 1.73451 2.02358e-11)
(359.184 2.02047 5.93594e-12)
(359.111 2.52088 -3.44706e-11)
(359.073 2.72389 -2.96073e-11)
(358.971 3.32269 -1.06e-11)
(358.926 3.41132 -1.84158e-11)
(358.794 4.13691 -2.76521e-11)
(358.741 4.08526 -1.71189e-11)
(358.58 4.95772 3.40819e-12)
(358.518 4.75198 6.96285e-12)
(358.332 5.77545 2.35009e-11)
(358.254 5.42266 2.00539e-11)
(358.053 6.57376 2.72635e-11)
(357.946 6.12806 4.319e-13)
(357.751 7.30081 -2.89443e-11)
(357.587 6.90735 -1.60075e-11)
(357.425 7.94978 -6.96896e-12)
(357.177 7.7713 -1.51715e-11)
(357.082 8.4856 -1.19313e-11)
(356.709 8.75775 -5.38019e-12)
(361.635 0.263059 9.53966e-11)
(361.635 0.610194 -2.86324e-12)
(361.615 1.00806 -1.05116e-11)
(361.596 1.37132 2.41551e-11)
(361.553 1.81202 2.93497e-12)
(361.523 2.12677 6.03825e-12)
(361.452 2.63438 -1.73764e-11)
(361.413 2.86647 -9.11866e-13)
(361.313 3.47306 3.4325e-11)
(361.267 3.58887 6.67986e-12)
(361.137 4.32534 -1.75938e-11)
(361.085 4.29619 -2.68308e-11)
(360.924 5.18563 -2.88978e-11)
(360.865 4.99444 -8.57027e-12)
(360.678 6.0444 2.03675e-11)
(360.604 5.69465 4.78954e-12)
(360.4 6.88557 -3.9511e-12)
(360.299 6.42223 -1.50805e-11)
(360.1 7.65897 2.24197e-12)
(359.943 7.231 2.46438e-11)
(359.776 8.3502 1.7022e-11)
(359.537 8.1189 -8.8562e-12)
(359.438 8.9291 -2.19983e-11)
(359.072 9.13042 -2.00738e-12)
(363.949 0.273303 9.09172e-11)
(363.947 0.641478 -1.78196e-12)
(363.928 1.05019 -1.05115e-11)
(363.909 1.43957 2.68323e-11)
(363.867 1.88898 1.00958e-11)
(363.836 2.23184 1.00563e-11)
(363.767 2.74677 -1.74077e-11)
(363.728 3.00757 -3.50509e-11)
(363.63 3.6217 -2.20973e-12)
(363.584 3.76473 9.72452e-12)
(363.455 4.51131 -1.06353e-11)
(363.404 4.50514 -2.0497e-11)
(363.244 5.41026 -2.23021e-11)
(363.187 5.23462 -2.07797e-12)
(363 6.30923 2.81994e-11)
(362.93 5.96397 8.31427e-12)
(362.725 7.19275 1.64579e-13)
(362.63 6.71483 -8.4622e-12)
(362.426 8.0135 9.36893e-12)
(362.277 7.55046 3.12871e-11)
(362.107 8.74606 2.43131e-11)
(361.876 8.46148 -2.196e-12)
(361.773 9.36833 -1.15479e-11)
(361.415 9.49692 -2.25323e-11)
(366.22 0.28359 8.41196e-11)
(366.218 0.672121 2.47004e-11)
(366.199 1.09204 8.83916e-12)
(366.181 1.50672 -3.77273e-12)
(366.139 1.96514 -3.1391e-11)
(366.109 2.33544 -6.90533e-13)
(366.041 2.85776 1.41128e-12)
(366.002 3.14685 -2.46272e-11)
(365.905 3.76823 9.88472e-13)
(365.86 3.93845 2.31109e-12)
(365.732 4.69438 -2.99632e-11)
(365.683 4.71163 -1.0269e-11)
(365.524 5.6311 1.9381e-11)
(365.469 5.47192 -5.531e-12)
(365.282 6.5693 -2.16469e-11)
(365.216 6.22996 -8.69908e-12)
(365.01 7.49401 1.22436e-11)
(364.922 7.00538 -4.91577e-12)
(364.714 8.36309 5.32306e-12)
(364.574 7.86356 2.09314e-11)
(364.4 9.13614 5.38048e-12)
(364.178 8.79817 8.36476e-12)
(364.072 9.80224 2.5579e-11)
(363.723 9.85631 2.72226e-12)
(368.434 0.293863 1.07402e-10)
(368.432 0.70207 4.11503e-11)
(368.414 1.13343 2.06141e-11)
(368.395 1.57262 2.53388e-12)
(368.355 2.04022 -2.80315e-11)
(368.324 2.43727 -8.22131e-13)
(368.258 2.96697 -2.45243e-12)
(368.219 3.2839 5.17353e-12)
(368.124 3.91221 2.83868e-11)
(368.079 4.10952 -1.26449e-11)
(367.954 4.87404 -5.03693e-11)
(367.905 4.91509 -3.24286e-11)
(367.748 5.84764 -9.28144e-12)
(367.696 5.70575 1.63932e-12)
(367.51 6.82409 2.30444e-11)
(367.448 6.49186 2.73753e-11)
(367.241 7.78865 4.6904e-12)
(367.159 7.29241 -1.90525e-11)
(366.948 8.70628 -1.50883e-11)
(366.818 8.16926 -7.12619e-13)
(366.641 9.5187 1.72595e-11)
(366.43 9.12794 1.58072e-11)
(366.319 10.2295 2.96662e-11)
(365.981 10.2074 2.87365e-12)
(370.578 0.304054 1.10648e-10)
(370.575 0.731262 2.11265e-11)
(370.557 1.17413 -2.46259e-11)
(370.539 1.63706 9.59212e-12)
(370.499 2.11387 -8.56739e-12)
(370.469 2.53697 -4.69322e-12)
(370.405 3.07396 9.86779e-12)
(370.366 3.41821 -1.04676e-11)
(370.273 4.05312 -1.7262e-11)
(370.229 4.27735 -1.39643e-12)
(370.106 5.04975 -2.17609e-11)
(370.059 5.11489 -3.27539e-11)
(369.903 6.05929 6.81111e-12)
(369.853 5.9355 -5.90442e-12)
(369.668 7.07304 -1.46519e-11)
(369.611 6.74911 5.16441e-12)
(369.404 8.07658 -3.10251e-12)
(369.329 7.57391 -1.15207e-11)
(369.116 9.04046 5.78561e-12)
(368.996 8.46775 -4.61016e-12)
(368.816 9.89326 -1.19454e-11)
(368.615 9.44942 7.5658e-13)
(368.501 10.6482 -1.48876e-11)
(368.174 10.5487 -2.41471e-11)
(372.637 0.314101 6.1516e-11)
(372.633 0.759617 4.23174e-12)
(372.616 1.21394 -2.48834e-11)
(372.598 1.69984 -1.20122e-11)
(372.56 2.18576 -8.86489e-12)
(372.53 2.63418 1.18518e-11)
(372.468 3.17827 1.5354e-12)
(372.429 3.54926 1.99802e-12)
(372.339 4.19039 1.64744e-11)
(372.296 4.44125 6.42178e-12)
(372.175 5.22084 3.87934e-12)
(372.13 5.3102 -2.89714e-11)
(371.977 6.26533 -1.54309e-11)
(371.93 6.16032 -1.01946e-11)
(371.746 7.31541 2.94683e-12)
(371.693 7.00102 1.38946e-12)
(371.487 8.35698 1.04311e-11)
(371.418 7.84939 1.58578e-11)
(371.204 9.36435 1.44472e-11)
(371.095 8.75807 1.85888e-11)
(370.911 10.2596 -1.22343e-11)
(370.721 9.7621 -1.8846e-11)
(370.603 11.0567 -1.48226e-11)
(370.289 10.8788 -1.1916e-11)
(374.601 0.323949 9.28139e-11)
(374.597 0.787043 4.09043e-11)
(374.58 1.25266 1.92909e-11)
(374.563 1.7607 -4.31723e-12)
(374.525 2.25555 -3.53314e-11)
(374.496 2.7285 -9.32263e-12)
(374.435 3.27946 -1.14226e-11)
(374.398 3.6765 -2.30393e-12)
(374.31 4.32348 1.58289e-11)
(374.269 4.60047 1.4514e-11)
(374.15 5.38667 -2.30687e-11)
(374.107 5.5001 -4.60412e-11)
(373.957 6.46502 -2.51017e-11)
(373.913 6.37916 -1.44472e-11)
(373.732 7.55034 7.5606e-12)
(373.683 7.24655 1.35561e-11)
(373.478 8.62884 3.35289e-11)
(373.416 8.11846 4.43851e-11)
(373.201 9.67678 5.46321e-12)
(373.103 9.03968 -2.1768e-11)
(372.915 10.6178 -3.29276e-12)
(372.737 10.0658 -2.44589e-12)
(372.615 11.4548 1.17094e-11)
(372.315 11.1974 2.57543e-11)
(376.459 0.333524 1.01929e-10)
(376.454 0.813447 1.84118e-11)
(376.439 1.29005 -3.95289e-11)
(376.421 1.81945 -1.00895e-11)
(376.386 2.32292 1.83493e-11)
(376.357 2.81962 1.76164e-11)
(376.298 3.37708 -2.0516e-11)
(376.262 3.79945 -2.13128e-12)
(376.177 4.45181 -1.20751e-11)
(376.137 4.7544 -4.25874e-11)
(376.022 5.54651 -2.33438e-11)
(375.981 5.68376 5.37985e-12)
(375.834 6.65751 -7.03572e-12)
(375.793 6.59095 -2.31174e-11)
(375.615 7.77685 1.23687e-11)
(375.571 7.48443 3.06118e-11)
(375.368 8.89111 1.53182e-11)
(375.312 8.37975 -5.39972e-12)
(375.098 9.97754 1.50223e-11)
(375.01 9.31311 -1.07509e-12)
(374.818 10.9657 -1.75143e-11)
(374.653 10.359 -6.59282e-12)
(374.528 11.8419 2.09486e-11)
(374.242 11.5036 4.62467e-12)
(378.203 0.342754 5.44685e-11)
(378.198 0.838732 -1.18014e-12)
(378.183 1.32594 -3.03264e-11)
(378.166 1.87589 -2.04532e-11)
(378.132 2.38756 -1.92229e-11)
(378.105 2.90721 -4.52346e-13)
(378.048 3.47072 -1.12547e-11)
(378.013 3.91771 -1.10758e-11)
(377.93 4.57486 -3.10955e-12)
(377.892 4.90249 -1.61432e-11)
(377.78 5.69972 -1.89468e-11)
(377.742 5.86049 -8.08483e-12)
(377.598 6.84199 2.18997e-12)
(377.561 6.79478 3.22904e-12)
(377.386 7.99399 1.74233e-11)
(377.347 7.71342 1.34178e-11)
(377.147 9.14262 2.07651e-11)
(377.098 8.63134 2.09077e-11)
(376.886 10.2664 2.00206e-11)
(376.808 9.57881 2.48387e-11)
(376.612 11.3011 3.55674e-11)
(376.462 10.6399 -2.3927e-11)
(376.333 12.2166 -2.6666e-11)
(376.062 11.7964 -1.73294e-11)
(379.826 0.351644 1.14769e-10)
(379.821 0.862876 4.42217e-11)
(379.806 1.36018 2.51478e-12)
(379.79 1.92986 7.71362e-12)
(379.757 2.4492 4.23454e-12)
(379.731 2.99101 1.89183e-11)
(379.676 3.55999 3.3299e-12)
(379.643 4.0309 -1.37693e-12)
(379.563 4.69213 1.39756e-12)
(379.527 5.04425 -1.67349e-11)
(379.418 5.8457 -2.41199e-11)
(379.383 6.02968 -2.22363e-11)
(379.243 7.01778 -1.80199e-11)
(379.21 6.98992 -1.52164e-11)
(379.038 8.20097 -1.23062e-11)
(379.005 7.93257 -2.26251e-11)
(378.808 9.38242 -1.91175e-11)
(378.766 8.87212 3.02051e-11)
(378.556 10.5416 2.03459e-11)
(378.488 9.83531 1.62317e-11)
(378.29 11.6228 2.58761e-11)
(378.155 10.9068 7.41301e-12)
(378.024 12.577 2.85639e-12)
(377.769 12.0747 5.63458e-12)
(381.323 0.360084 1.00617e-10)
(381.317 0.885798 2.31996e-11)
(381.303 1.39264 -2.74144e-11)
(381.288 1.98117 6.3846e-12)
(381.256 2.50759 -5.81143e-12)
(381.231 3.0707 -7.63785e-13)
(381.178 3.64452 1.34224e-11)
(381.147 4.1386 -5.92885e-12)
(381.069 4.80321 -1.4206e-11)
(381.036 5.17924 2.09197e-12)
(380.93 5.98394 -1.93127e-11)
(380.899 6.19082 -2.73002e-11)
(380.762 7.18431 1.20447e-11)
(380.733 7.17574 -1.26877e-12)
(380.566 8.39713 -7.26003e-12)
(380.538 8.14116 1.44976e-11)
(380.344 9.60977 6.88624e-12)
(380.31 9.10109 -6.27191e-12)
(380.102 10.8024 2.05321e-11)
(380.045 10.0807 7.09386e-12)
(379.847 11.9292 -5.04032e-12)
(379.727 11.1584 1.69387e-11)
(379.593 12.9209 3.16726e-12)
(379.355 12.3376 -1.26281e-11)
(382.688 0.368342 5.62914e-11)
(382.682 0.907654 2.19811e-11)
(382.668 1.42322 2.70471e-12)
(382.654 2.02964 -2.4958e-11)
(382.624 2.56247 -1.29909e-12)
(382.6 3.14605 3.53903e-11)
(382.549 3.72406 -1.70891e-11)
(382.52 4.24064 -5.50258e-13)
(382.445 4.9077 2.13115e-11)
(382.415 5.30697 -2.82221e-11)
(382.312 6.11402 -1.44555e-11)
(382.284 6.34342 1.17034e-11)
(382.151 7.34103 -1.43412e-11)
(382.127 7.35165 3.47236e-12)
(381.964 8.58184 3.50271e-11)
(381.942 8.33855 -9.40341e-12)
(381.752 9.8241 1.24979e-11)
(381.725 9.31761 3.18751e-11)
(381.521 11.0485 -5.97195e-12)
(381.473 10.3126 1.18316e-11)
(381.276 12.2174 3.73356e-11)
(381.172 11.3945 -6.49082e-12)
(381.036 13.2474 8.54406e-12)
(380.816 12.5838 2.59104e-11)
(383.918 0.375775 8.66394e-11)
(383.912 0.927815 4.92505e-11)
(383.899 1.45155 2.84633e-11)
(383.885 2.075 7.24507e-13)
(383.857 2.61358 -3.23949e-11)
(383.834 3.21683 4.20351e-12)
(383.786 3.79832 9.1605e-12)
(383.759 4.33634 2.0597e-11)
(383.687 5.00515 4.20892e-11)
(383.66 5.4272 -3.18134e-12)
(383.561 6.23543 -4.66692e-11)
(383.537 6.48683 -2.33945e-11)
(383.408 7.48724 6.7606e-12)
(383.389 7.51694 2.34074e-11)
(383.229 8.7544 5.13879e-11)
(383.214 8.52406 5.15613e-12)
(383.028 10.0247 -2.54868e-11)
(383.009 9.52105 -1.87602e-12)
(382.807 11.2792 5.0183e-12)
(382.77 10.5303 2.17209e-11)
(382.575 12.4855 5.38106e-11)
(382.487 11.6147 3.13573e-12)
(382.348 13.5562 -3.46332e-11)
(382.147 12.8121 -1.29434e-11)
(385.012 0.382781 3.72328e-11)
(385.005 0.946694 -7.77312e-12)
(384.993 1.47779 -4.05909e-11)
(384.98 2.11724 -3.76635e-11)
(384.953 2.66074 -3.30556e-11)
(384.932 3.28252 -1.16818e-11)
(384.886 3.8666 -2.82186e-11)
(384.861 4.42547 -3.1872e-11)
(384.793 5.09517 -2.84665e-11)
(384.768 5.53912 -4.05831e-11)
(384.673 6.34755 -4.69591e-11)
(384.653 6.62059 -3.90924e-11)
(384.528 7.62255 -3.18632e-11)
(384.514 7.67116 -2.78506e-11)
(384.359 8.91432 -2.02906e-11)
(384.35 8.69708 -2.5219e-11)
(384.168 10.2111 -1.9771e-11)
(384.158 9.71079 -1.66749e-11)
(383.96 11.4941 -2.83941e-11)
(383.933 10.7335 -2.26626e-11)
(383.74 12.7335 -1.86545e-11)
(383.667 11.8183 -2.65404e-11)
(383.526 13.8457 -2.91817e-11)
(383.344 13.0218 -2.27547e-11)
(385.966 0.389144 9.25812e-11)
(385.959 0.964048 2.09881e-11)
(385.948 1.50173 -3.05322e-11)
(385.936 2.15618 1.1184e-11)
(385.911 2.70381 -9.98214e-13)
(385.891 3.34321 4.94187e-12)
(385.848 3.92907 2.65532e-11)
(385.825 4.50776 6.64771e-12)
(385.76 5.17735 -7.05961e-12)
(385.739 5.64254 1.79522e-11)
(385.648 6.45005 -2.59925e-12)
(385.632 6.74418 -1.80408e-11)
(385.511 7.7463 2.94108e-11)
(385.503 7.81361 1.36084e-11)
(385.352 9.06085 7.94086e-12)
(385.35 8.85678 -1.50107e-11)
(385.173 10.3823 -2.53199e-11)
(385.171 9.88582 1.41062e-11)
(384.977 11.6922 -1.11512e-11)
(384.96 10.9213 -2.26269e-11)
(384.77 12.9619 2.12304e-11)
(384.712 12.0058 -6.36041e-12)
(384.569 14.1152 -2.92394e-11)
(384.406 13.2127 1.32453e-11)
(386.782 0.39488 9.92698e-11)
(386.775 0.979873 2.61468e-11)
(386.765 1.5233 -2.58251e-11)
(386.753 2.19171 1.63925e-11)
(386.729 2.7426 4.1242e-12)
(386.712 3.39859 1.05315e-11)
(386.671 3.98534 3.2438e-11)
(386.651 4.5829 1.27866e-11)
(386.589 5.25146 -2.16327e-12)
(386.571 5.73707 -3.17366e-11)
(386.484 6.54256 -5.36616e-11)
(386.472 6.85725 -7.17675e-12)
(386.357 7.85814 -1.6405e-11)
(386.353 7.94391 -2.91763e-11)
(386.208 9.19353 1.94684e-11)
(386.212 9.00267 -4.74275e-12)
(386.04 10.5378 -1.38593e-11)
(386.047 10.0454 2.49013e-11)
(385.857 11.8728 7.79371e-13)
(385.851 11.092 -1.22628e-11)
(385.665 13.1713 3.27177e-11)
(385.62 12.1783 3.82816e-12)
(385.475 14.364 -1.20789e-11)
(385.332 13.3844 2.93524e-11)
(387.459 0.399968 8.44359e-11)
(387.452 0.994139 6.16422e-11)
(387.442 1.54245 -3.34585e-12)
(387.432 2.22374 -3.04731e-11)
(387.41 2.777 3.32978e-12)
(387.394 3.44851 5.6606e-11)
(387.356 4.03521 1.00193e-11)
(387.338 4.65066 -2.60539e-11)
(387.28 5.31717 2.99945e-12)
(387.265 5.82238 1.8045e-11)
(387.182 6.62471 -1.32986e-11)
(387.175 6.9594 -3.49748e-11)
(387.064 7.95766 6.88135e-13)
(387.066 8.06166 3.05542e-11)
(386.926 9.31191 8.00529e-12)
(386.937 9.13436 -2.64295e-11)
(386.77 10.6771 9.85146e-12)
(386.785 10.189 3.59553e-11)
(386.6 12.0352 1.21016e-12)
(386.605 11.2452 -2.2673e-11)
(386.423 13.36 8.86501e-12)
(386.392 12.335 1.96963e-11)
(386.246 14.5922 -6.0531e-12)
(386.123 13.5368 -2.82704e-11)
(387.999 0.404391 6.21155e-11)
(387.991 1.00683 5.54641e-12)
(387.982 1.55913 -3.18144e-11)
(387.973 2.25222 -4.31882e-11)
(387.952 2.80693 -4.87894e-11)
(387.938 3.49287 -3.0325e-11)
(387.902 4.07856 4.20901e-12)
(387.887 4.71088 4.94745e-11)
(387.833 5.37431 4.34226e-11)
(387.821 5.89825 2.35147e-11)
(387.743 6.69623 1.02685e-11)
(387.74 7.05033 4.20172e-12)
(387.634 8.04452 6.56784e-12)
(387.642 8.16651 2.87635e-12)
(387.506 9.41559 2.11803e-12)
(387.525 9.25151 -1.57021e-11)
(387.363 10.7997 -1.39505e-11)
(387.387 10.3165 -1.78621e-11)
(387.207 12.1791 -4.08317e-11)
(387.223 11.3804 -3.8801e-11)
(387.044 13.5278 1.45701e-11)
(387.027 12.4743 4.67765e-11)
(386.882 14.7982 4.25325e-11)
(386.779 13.6692 3.61789e-11)
(388.402 0.408133 3.9494e-11)
(388.394 1.01791 1.07424e-11)
(388.386 1.5733 -3.66358e-12)
(388.377 2.27708 -4.98557e-11)
(388.359 2.83232 -3.25977e-11)
(388.346 3.53161 1.13851e-11)
(388.313 4.1153 1.00064e-11)
(388.301 4.76346 2.12726e-11)
(388.25 5.42272 -2.76091e-11)
(388.242 5.96452 -2.30276e-11)
(388.168 6.75694 -7.34396e-12)
(388.169 7.12982 -4.72694e-11)
(388.068 8.11846 -2.36454e-11)
(388.082 8.2582 -2.8922e-12)
(387.952 9.50423 2.02602e-11)
(387.978 9.35383 2.30716e-11)
(387.82 10.9053 -7.63571e-12)
(387.854 10.4275 9.7606e-12)
(387.678 12.3044 1.43383e-11)
(387.706 11.4977 -2.81466e-11)
(387.53 13.6753 -1.04194e-11)
(387.527 12.5938 -1.6968e-12)
(387.384 14.9787 1.20394e-11)
(387.301 13.7812 2.56021e-11)
(388.673 0.411182 1.03921e-10)
(388.665 1.02736 2.88575e-11)
(388.658 1.58493 -2.15196e-11)
(388.65 2.29829 -3.85571e-11)
(388.633 2.85314 -4.49967e-11)