/*--------------------------------*- C++ -*----------------------------------*\
  =========                 |
  \\      /  F ield         | OpenFOAM: The Open Source CFD Toolbox
   \\    /   O peration     | Website:  https://openfoam.org
    \\  /    A nd           | Version:  10
     \\/     M anipulation  |
\*---------------------------------------------------------------------------*/
FoamFile
{
    format      ascii;
    class       surfaceScalarField;
    location    "0.48";
    object      phi;
}
// * * * * * * * * * * * * * * * * * * * * * * * * * * * * * * * * * * * * * //

dimensions      [1 0 -1 0 0 0 0];

internalField   nonuniform List<scalar> 
8154
(
-5.7419e-09
-2.18033e-08
-5.64077e-08
-9.14186e-08
-1.71256e-07
-2.2583e-07
-3.69661e-07
-4.53748e-07
-6.73963e-07
-8.13561e-07
-1.10427e-06
-1.3371e-06
-1.66735e-06
-2.0266e-06
-2.3598e-06
-2.86766e-06
-3.25786e-06
-3.98719e-06
-4.56506e-06
-5.50649e-06
-6.81715e-06
-7.27091e-06
-6.84503e-06
-0.000277438
-0.000832369
2.41051e-08
-0.00138746
9.64977e-08
-0.00194289
2.13784e-07
-0.00249867
3.78457e-07
-0.00305503
5.77545e-07
-0.00361201
8.23651e-07
-0.00416973
1.08874e-06
-0.00472845
1.39806e-06
-0.00528791
1.71138e-06
-0.00584877
2.05629e-06
-0.00641057
2.40269e-06
-0.00697377
2.74815e-06
-0.00753864
3.12108e-06
-0.00810412
3.43763e-06
-0.00867313
3.85112e-06
-0.00924021
4.12533e-06
-0.00981491
4.57257e-06
-0.0103832
4.9241e-06
-0.0109646
5.13865e-06
-0.0115338
5.27965e-06
-0.0121235
5.11723e-06
-0.0126948
4.02979e-06
-0.013293
2.44971e-06
-0.000277462
-0.000832441
2.6412e-08
-0.00138758
1.05013e-07
-0.00194305
2.35158e-07
-0.00249887
4.10522e-07
-0.00305528
6.35486e-07
-0.00361228
8.89701e-07
-0.00417004
1.19492e-06
-0.00472876
1.50133e-06
-0.00528825
1.8671e-06
-0.00584911
2.19066e-06
-0.00641092
2.59299e-06
-0.00697414
2.89258e-06
-0.00753896
3.29962e-06
-0.00810453
3.5406e-06
-0.0086734
3.906e-06
-0.00924065
4.10462e-06
-0.00981526
4.38956e-06
-0.0103835
5.00162e-06
-0.0109647
4.66623e-06
-0.0115336
5.23177e-06
-0.0121224
5.33286e-06
-0.0126932
5.04344e-06
-0.0132905
4.22922e-06
-0.000277488
-0.000832519
2.13395e-08
-0.00138771
8.50969e-08
-0.00194323
1.88449e-07
-0.00249909
3.30828e-07
-0.00305553
5.02141e-07
-0.00361258
7.0746e-07
-0.00417035
9.22893e-07
-0.00472913
1.16657e-06
-0.00528858
1.39406e-06
-0.00584951
1.64168e-06
-0.00641122
1.84582e-06
-0.00697454
2.04944e-06
-0.0075392
2.19792e-06
-0.0081049
2.28515e-06
-0.00867361
2.35556e-06
-0.00924094
2.20663e-06
-0.00981587
2.34349e-06
-0.0103831
1.89975e-06
-0.0109653
1.78398e-06
-0.0115337
1.39276e-06
-0.0121221
1.15624e-06
-0.0126924
7.22217e-07
-0.0132863
5.15749e-07
-0.00027751
-0.000832583
2.5564e-08
-0.00138781
1.02023e-07
-0.00194337
2.26365e-07
-0.00249926
3.98063e-07
-0.00305574
6.05853e-07
-0.0036128
8.5576e-07
-0.00417059
1.11969e-06
-0.00472936
1.42063e-06
-0.00528882
1.70234e-06
-0.00584972
2.0166e-06
-0.00641142
2.27156e-06
-0.00697469
2.54796e-06
-0.00753929
2.73417e-06
-0.00810497
2.89627e-06
-0.00867346
2.98694e-06
-0.00924107
2.89769e-06
-0.00981542
2.97427e-06
-0.010383
2.28437e-06
-0.0109649
2.52125e-06
-0.0115335
1.72654e-06
-0.0121217
1.20678e-06
-0.0126922
3.82584e-07
-0.0132858
-1.69281e-07
-0.000277535
-0.000832659
3.36674e-08
-0.00138793
1.34353e-07
-0.00194354
2.99456e-07
-0.00249947
5.26664e-07
-0.00305599
8.08158e-07
-0.00361306
1.14177e-06
-0.00417089
1.51215e-06
-0.00472964
1.91911e-06
-0.00528914
2.3388e-06
-0.00584997
2.77295e-06
-0.0064117
3.19363e-06
-0.00697487
3.59563e-06
-0.00753946
3.96478e-06
-0.00810506
4.25986e-06
-0.00867337
4.52335e-06
-0.00924114
4.61461e-06
-0.00981473
4.73003e-06
-0.0103832
4.40187e-06
-0.0109641
4.3708e-06
-0.011533
3.67491e-06
-0.0121209
3.2117e-06
-0.0126916
2.27435e-06
-0.0132859
1.35394e-06
-0.000277569
-0.00083276
3.75813e-08
-0.0013881
1.49991e-07
-0.00194377
3.3461e-07
-0.00249975
5.88645e-07
-0.00305632
9.04568e-07
-0.00361343
1.27844e-06
-0.0041713
1.69635e-06
-0.00473006
2.15382e-06
-0.00528957
2.63065e-06
-0.00585039
3.12052e-06
-0.0064121
3.60192e-06
-0.00697524
4.05798e-06
-0.00753975
4.48252e-06
-0.00810533
4.82275e-06
-0.00867347
5.12496e-06
-0.00924126
5.24869e-06
-0.0098144
5.36817e-06
-0.0103832
5.08316e-06
-0.0109634
4.97268e-06
-0.0115325
4.21916e-06
-0.0121199
3.67632e-06
-0.0126907
2.64463e-06
-0.0132846
1.62065e-06
-0.000277606
-0.000832872
4.14086e-08
-0.00138828
1.65286e-07
-0.00194402
3.68857e-07
-0.00250007
6.49088e-07
-0.0030567
9.98024e-07
-0.00361385
1.41129e-06
-0.00417176
1.87417e-06
-0.00473053
2.38168e-06
-0.00529006
2.91198e-06
-0.00585087
3.4585e-06
-0.00641255
3.99607e-06
-0.00697566
4.50897e-06
-0.00754009
4.98355e-06
-0.00810563
5.37224e-06
-0.00867359
5.70809e-06
-0.00924138
5.86128e-06
-0.00981411
5.9956e-06
-0.0103831
5.7187e-06
-0.0109627
5.60367e-06
-0.011532
4.81256e-06
-0.0121189
4.20164e-06
-0.0126897
2.99457e-06
-0.0132829
1.80458e-06
-0.000277648
-0.000832996
4.51007e-08
-0.00138849
1.80018e-07
-0.0019443
4.01796e-07
-0.00250042
7.07008e-07
-0.00305711
1.08741e-06
-0.00361431
1.53774e-06
-0.00417227
2.04321e-06
-0.00473106
2.59724e-06
-0.00529061
3.17831e-06
-0.00585141
3.77711e-06
-0.00641307
4.36885e-06
-0.00697614
4.934e-06
-0.00754048
5.4579e-06
-0.00810597
5.89034e-06
-0.00867374
6.259e-06
-0.00924151
6.44033e-06
-0.00981383
6.57997e-06
-0.010383
6.32852e-06
-0.0109619
6.18334e-06
-0.0115314
5.37319e-06
-0.0121177
4.82773e-06
-0.0126885
3.3631e-06
-0.0132811
2.02479e-06
-0.000277693
-0.000833131
4.87457e-08
-0.00138871
1.94549e-07
-0.00194461
4.34225e-07
-0.0025008
7.63918e-07
-0.00305756
1.17494e-06
-0.00361482
1.66123e-06
-0.00417282
2.20759e-06
-0.00473164
2.80624e-06
-0.00529121
3.43542e-06
-0.005852
4.08415e-06
-0.00641363
4.72707e-06
-0.00697666
5.34261e-06
-0.00754091
5.9137e-06
-0.00810634
6.38887e-06
-0.00867393
6.78901e-06
-0.00924165
6.99604e-06
-0.00981357
7.13662e-06
-0.0103828
6.9044e-06
-0.0109611
6.73368e-06
-0.0115306
5.91855e-06
-0.0121164
4.85216e-06
-0.0126872
3.71902e-06
-0.0132791
2.21534e-06
-0.000277742
-0.000833276
5.23416e-08
-0.00138895
2.08879e-07
-0.00194494
4.66179e-07
-0.00250121
8.19936e-07
-0.00305805
1.26094e-06
-0.00361537
1.78228e-06
-0.00417342
2.36819e-06
-0.00473227
3.0097e-06
-0.00529186
3.68462e-06
-0.00585265
4.38052e-06
-0.00641424
5.07144e-06
-0.00697723
5.73434e-06
-0.00754139
6.35007e-06
-0.00810675
6.86625e-06
-0.00867413
7.29727e-06
-0.00924179
7.52782e-06
-0.00981333
7.66773e-06
-0.0103826
7.45034e-06
-0.0109602
7.24831e-06
-0.01153
6.39298e-06
-0.0121148
5.60477e-06
-0.0126857
4.0313e-06
-0.0132769
2.39581e-06
-0.000277794
-0.000833433
5.59023e-08
-0.00138921
2.23071e-07
-0.00194529
4.97834e-07
-0.00250165
8.75447e-07
-0.00305857
1.34614e-06
-0.00361595
1.90214e-06
-0.00417406
2.52693e-06
-0.00473295
3.21034e-06
-0.00529255
3.92939e-06
-0.00585334
4.67035e-06
-0.00641491
5.40638e-06
-0.00697784
6.11358e-06
-0.00754191
6.77074e-06
-0.00810719
7.3256e-06
-0.00867436
7.7867e-06
-0.00924193
8.04188e-06
-0.00981311
8.18747e-06
-0.0103824
7.97189e-06
-0.0109594
7.74455e-06
-0.0115293
6.86353e-06
-0.0121132
6.01092e-06
-0.0126841
4.35647e-06
-0.0132745
2.5836e-06
-0.00027785
-0.0008336
5.94191e-08
-0.00138948
2.37095e-07
-0.00194567
5.29145e-07
-0.00250212
9.30427e-07
-0.00305913
1.43061e-06
-0.00361658
2.02108e-06
-0.00417475
2.68447e-06
-0.00473367
3.40931e-06
-0.0052933
4.17157e-06
-0.00585407
4.95614e-06
-0.00641561
5.73495e-06
-0.0069785
6.48344e-06
-0.00754246
7.17839e-06
-0.00810765
7.76838e-06
-0.00867462
8.25669e-06
-0.00924207
8.53495e-06
-0.00981289
8.68717e-06
-0.0103822
8.46967e-06
-0.0109585
8.20742e-06
-0.0115284
7.28789e-06
-0.0121116
6.37752e-06
-0.0126823
4.65135e-06
-0.0132719
2.7531e-06
-0.000277909
-0.000833778
6.28907e-08
-0.00138977
2.50946e-07
-0.00194607
5.60098e-07
-0.00250262
9.84855e-07
-0.00305972
1.51436e-06
-0.00361724
2.13921e-06
-0.00417547
2.8411e-06
-0.00473443
3.6073e-06
-0.00529408
4.41248e-06
-0.00585485
5.23999e-06
-0.00641636
6.06018e-06
-0.00697919
6.84774e-06
-0.00754305
7.57724e-06
-0.00810815
8.19857e-06
-0.00867489
8.71041e-06
-0.00924222
9.00851e-06
-0.00981267
9.16469e-06
-0.010382
8.94775e-06
-0.0109576
8.64572e-06
-0.0115275
7.68172e-06
-0.0121099
6.71034e-06
-0.0126804
4.89509e-06
-0.0132692
2.89941e-06
-0.000277972
-0.000833966
6.63182e-08
-0.00139008
2.64621e-07
-0.0019465
5.90671e-07
-0.00250315
1.03866e-06
-0.00306034
1.59723e-06
-0.00361794
2.25623e-06
-0.00417624
2.99648e-06
-0.00473523
3.80399e-06
-0.00529491
4.65205e-06
-0.00585567
5.52239e-06
-0.00641715
6.38345e-06
-0.00697992
7.20886e-06
-0.00754367
7.97067e-06
-0.00810866
8.61997e-06
-0.00867519
9.15124e-06
-0.00924238
9.46509e-06
-0.00981244
9.6236e-06
-0.0103817
9.40935e-06
-0.0109566
9.06548e-06
-0.0115265
8.05678e-06
-0.012108
7.01599e-06
-0.0126784
5.05394e-06
-0.0132663
3.0241e-06
-0.000278038
-0.000834164
6.97084e-08
-0.00139041
2.7814e-07
-0.00194694
6.20881e-07
-0.00250371
1.0918e-06
-0.003061
1.67904e-06
-0.00361868
2.37177e-06
-0.00417705
3.14996e-06
-0.00473608
3.99847e-06
-0.00529578
4.88926e-06
-0.00585653
5.80245e-06
-0.00641797
6.70446e-06
-0.00698068
7.56752e-06
-0.00754432
8.36083e-06
-0.0081092
9.03611e-06
-0.0086755
9.58335e-06
-0.00924254
9.90799e-06
-0.00981222
1.00648e-05
-0.0103813
9.85067e-06
-0.0109556
9.46617e-06
-0.0115255
8.41932e-06
-0.0121061
7.31578e-06
-0.0126764
5.27406e-06
-0.0132632
3.15497e-06
-0.000278108
-0.000834372
7.30641e-08
-0.00139075
2.91515e-07
-0.00194741
6.50729e-07
-0.00250429
1.14422e-06
-0.0030617
1.75961e-06
-0.00361946
2.48538e-06
-0.0041779
3.3007e-06
-0.00473697
4.18944e-06
-0.00529669
5.12231e-06
-0.00585743
6.07804e-06
-0.00641883
7.02107e-06
-0.00698147
7.92214e-06
-0.00754499
8.74738e-06
-0.00810975
9.44849e-06
-0.00867583
1.00105e-05
-0.0092427
1.03426e-05
-0.009812
1.04911e-05
-0.0103809
1.02643e-05
-0.0109546
9.84622e-06
-0.0115243
8.76212e-06
-0.0121041
7.59707e-06
-0.0126743
5.49195e-06
-0.0132601
3.27705e-06
-0.000278181
-0.000834591
7.63763e-08
-0.00139111
3.04704e-07
-0.00194791
6.80114e-07
-0.00250491
1.19572e-06
-0.00306242
1.83855e-06
-0.00362028
2.59641e-06
-0.00417879
3.44765e-06
-0.0047379
4.37529e-06
-0.00529765
5.34893e-06
-0.00585838
6.34618e-06
-0.00641973
7.32971e-06
-0.0069823
8.26889e-06
-0.00754569
9.12691e-06
-0.00811032
9.85495e-06
-0.00867616
1.04331e-05
-0.00924286
1.07728e-05
-0.00981177
1.09119e-05
-0.0103805
1.06687e-05
-0.0109535
1.02161e-05
-0.0115232
9.09518e-06
-0.012102
7.86769e-06
-0.0126721
5.69214e-06
-0.0132568
3.3919e-06
-0.000278258
-0.000834819
7.96197e-08
-0.00139149
3.17608e-07
-0.00194842
7.08821e-07
-0.00250555
1.24593e-06
-0.00306318
1.91534e-06
-0.00362113
2.70412e-06
-0.00417971
3.58977e-06
-0.00473888
4.55454e-06
-0.00529865
5.56703e-06
-0.00585936
6.60397e-06
-0.00642067
7.62658e-06
-0.00698316
8.60318e-06
-0.00754641
9.49432e-06
-0.0081109
1.02505e-05
-0.0086765
1.08471e-05
-0.009243
1.11967e-05
-0.00981152
1.13285e-05
-0.0103801
1.10707e-05
-0.0109523
1.05793e-05
-0.011522
9.42459e-06
-0.0120998
8.13434e-06
-0.0126698
5.88665e-06
-0.0132534
3.50278e-06
-0.000278337
-0.000835058
8.27375e-08
-0.00139188
3.30006e-07
-0.00194896
7.36396e-07
-0.00250622
1.29413e-06
-0.00306397
1.98896e-06
-0.00362201
2.8072e-06
-0.00418068
3.72548e-06
-0.00473989
4.72525e-06
-0.00529968
5.77415e-06
-0.00586038
6.84823e-06
-0.00642165
7.90753e-06
-0.00698405
8.91966e-06
-0.00754717
9.84307e-06
-0.00811149
1.06279e-05
-0.00867685
1.1245e-05
-0.00924314
1.16076e-05
-0.00981125
1.17362e-05
-0.0103796
1.14665e-05
-0.0109512
1.09356e-05
-0.0115207
9.75378e-06
-0.0120976
8.40257e-06
-0.0126674
6.08117e-06
-0.0132498
3.61307e-06
-0.00027842
-0.000835305
8.56536e-08
-0.00139228
3.41609e-07
-0.00194952
7.6222e-07
-0.00250692
1.33932e-06
-0.00306479
2.05803e-06
-0.00362293
2.90395e-06
-0.00418168
3.8528e-06
-0.00474094
4.8852e-06
-0.00530076
5.96779e-06
-0.00586144
7.07599e-06
-0.00642266
8.16879e-06
-0.00698497
9.21343e-06
-0.00754795
1.01668e-05
-0.00811211
1.09789e-05
-0.00867721
1.16175e-05
-0.00924327
1.19959e-05
-0.00981098
1.21265e-05
-0.0103791
1.18494e-05
-0.01095
1.12828e-05
-0.0115193
1.00818e-05
-0.0120952
8.67546e-06
-0.012665
6.28167e-06
-0.0132462
3.72649e-06
-0.000278506
-0.000835561
8.82803e-08
-0.0013927
3.52073e-07
-0.0019501
7.85563e-07
-0.00250764
1.38028e-06
-0.00306564
2.12084e-06
-0.00362388
2.99218e-06
-0.00418271
3.96915e-06
-0.00474202
5.03152e-06
-0.00530186
6.14488e-06
-0.00586254
7.28394e-06
-0.0064237
8.40666e-06
-0.00698593
9.48003e-06
-0.00754876
1.04597e-05
-0.00811275
1.12961e-05
-0.00867759
1.19547e-05
-0.00924341
1.23495e-05
-0.0098107
1.24865e-05
-0.0103785
1.22093e-05
-0.0109488
1.1621e-05
-0.0115179
1.04014e-05
-0.0120928
8.94502e-06
-0.0126624
6.48926e-06
-0.0132425
3.84471e-06
-0.000278594
-0.000835825
9.05327e-08
-0.00139314
3.61062e-07
-0.00195069
8.05683e-07
-0.00250838
1.41575e-06
-0.00306651
2.1755e-06
-0.00362486
3.06937e-06
-0.00418377
4.07144e-06
-0.00474313
5.1607e-06
-0.005303
6.30161e-06
-0.00586366
7.46812e-06
-0.00642478
8.61702e-06
-0.00698691
9.71502e-06
-0.0075496
1.07167e-05
-0.0081134
1.15731e-05
-0.00867799
1.2248e-05
-0.00924355
1.26567e-05
-0.00981042
1.28003e-05
-0.0103779
1.25268e-05
-0.0109476
1.19279e-05
-0.0115164
1.06912e-05
-0.0120904
9.19382e-06
-0.0126598
6.69345e-06
-0.0132386
3.96218e-06
-0.000278685
-0.000836096
9.23414e-08
-0.00139358
3.68297e-07
-0.0019513
8.21935e-07
-0.00250914
1.44456e-06
-0.0030674
2.22017e-06
-0.00362586
3.13293e-06
-0.00418486
4.15631e-06
-0.00474427
5.26864e-06
-0.00530417
6.43334e-06
-0.00586481
7.62356e-06
-0.00642588
8.79481e-06
-0.00698791
9.9133e-06
-0.00755045
1.09325e-05
-0.00811407
1.18039e-05
-0.0086784
1.24904e-05
-0.00924369
1.29086e-05
-0.00981015
1.30557e-05
-0.0103773
1.27841e-05
-0.0109463
1.21742e-05
-0.0115149
1.09284e-05
-0.0120879
9.3969e-06
-0.0126571
6.86837e-06
-0.0132346
4.06031e-06
-0.000278777
-0.000836372
9.36591e-08
-0.00139404
3.73578e-07
-0.00195192
8.33841e-07
-0.00250991
1.46577e-06
-0.00306831
2.2533e-06
-0.00362688
3.18047e-06
-0.00418598
4.22038e-06
-0.00474544
5.35098e-06
-0.00530536
6.53482e-06
-0.00586598
7.74432e-06
-0.00642699
8.93371e-06
-0.00698893
1.00685e-05
-0.00755132
1.11009e-05
-0.00811475
1.19826e-05
-0.00867882
1.26754e-05
-0.00924384
1.30977e-05
-0.00980988
1.32437e-05
-0.0103767
1.29704e-05
-0.0109451
1.23484e-05
-0.0115134
1.10976e-05
-0.0120854
9.52866e-06
-0.0126543
6.97034e-06
-0.0132306
4.10458e-06
-0.000278871
-0.000836653
9.44746e-08
-0.0013945
3.7685e-07
-0.00195256
8.41236e-07
-0.0025107
1.47902e-06
-0.00306924
2.27412e-06
-0.00362792
3.21064e-06
-0.00418711
4.26153e-06
-0.00474662
5.40468e-06
-0.00530657
6.60198e-06
-0.00586717
7.82567e-06
-0.00642813
9.0284e-06
-0.00698997
1.01756e-05
-0.0075522
1.12171e-05
-0.00811544
1.21056e-05
-0.00867925
1.27998e-05
-0.00924399
1.3222e-05
-0.00980961
1.33608e-05
-0.0103761
1.3082e-05
-0.0109438
1.24462e-05
-0.0115118
1.11931e-05
-0.0120828
9.57811e-06
-0.0126514
6.96323e-06
-0.0132264
4.07083e-06
-0.000278966
-0.000836935
9.51677e-08
-0.00139496
3.79625e-07
-0.00195319
8.47487e-07
-0.00251149
1.49019e-06
-0.00307018
2.29168e-06
-0.00362897
3.2362e-06
-0.00418825
4.29672e-06
-0.00474782
5.45136e-06
-0.00530779
6.66178e-06
-0.00586838
7.90025e-06
-0.00642928
9.11858e-06
-0.00699101
1.02817e-05
-0.00755309
1.1338e-05
-0.00811613
1.22397e-05
-0.00867967
1.29436e-05
-0.00924413
1.33729e-05
-0.00980933
1.35132e-05
-0.0103754
1.32357e-05
-0.0109425
1.25943e-05
-0.0115102
1.13433e-05
-0.0120802
9.70677e-06
-0.0126486
7.05411e-06
-0.0132224
4.17082e-06
-0.000279061
-0.00083722
9.54703e-08
-0.00139543
3.80831e-07
-0.00195384
8.50184e-07
-0.0025123
1.49499e-06
-0.00307112
2.29922e-06
-0.00363003
3.24727e-06
-0.0041894
4.31227e-06
-0.00474903
5.4727e-06
-0.00530903
6.69043e-06
-0.0058696
7.93805e-06
-0.00643044
9.16727e-06
-0.00699207
1.03427e-05
-0.00755399
1.14121e-05
-0.00811683
1.23263e-05
-0.00868011
1.30412e-05
-0.00924427
1.34788e-05
-0.00980906
1.36228e-05
-0.0103748
1.33474e-05
-0.0109413
1.27005e-05
-0.0115086
1.14478e-05
-0.0120776
9.80893e-06
-0.0126457
7.13841e-06
-0.0132182
4.33861e-06
-0.000279157
-0.000837506
9.52708e-08
-0.0013959
3.80028e-07
-0.00195448
8.48354e-07
-0.0025131
1.49173e-06
-0.00307207
2.29413e-06
-0.0036311
3.24013e-06
-0.00419056
4.30298e-06
-0.00475025
5.46171e-06
-0.00531027
6.67851e-06
-0.00587083
7.92673e-06
-0.00643161
9.15839e-06
-0.00699314
1.03385e-05
-0.00755491
1.14147e-05
-0.00811753
1.23371e-05
-0.00868055
1.30605e-05
-0.00924441
1.35055e-05
-0.00980879
1.36532e-05
-0.0103742
1.33795e-05
-0.01094
1.27274e-05
-0.0115069
1.14737e-05
-0.0120749
9.82733e-06
-0.0126426
7.20037e-06
-0.0132141
3.9213e-06
-0.000279252
-0.000837791
9.46049e-08
-0.00139637
3.77366e-07
-0.00195513
8.42377e-07
-0.0025139
1.48117e-06
-0.00307302
2.27774e-06
-0.00363216
3.21684e-06
-0.00419172
4.27187e-06
-0.00475146
5.42238e-06
-0.00531152
6.63098e-06
-0.00587206
7.8719e-06
-0.00643279
9.09777e-06
-0.00699421
1.02746e-05
-0.00755583
1.13506e-05
-0.00811825
1.22762e-05
-0.00868099
1.30056e-05
-0.00924456
1.34585e-05
-0.00980852
1.36125e-05
-0.0103735
1.33437e-05
-0.0109388
1.2689e-05
-0.0115053
1.14332e-05
-0.0120723
9.75845e-06
-0.0126397
7.17099e-06
-0.0132099
3.89136e-06
-0.000279347
-0.000838074
9.34973e-08
-0.00139684
3.72955e-07
-0.00195576
8.32532e-07
-0.0025147
1.46389e-06
-0.00307395
2.25109e-06
-0.00363322
3.17917e-06
-0.00419287
4.22168e-06
-0.00475267
5.35866e-06
-0.00531276
6.55308e-06
-0.00587328
7.78006e-06
-0.00643397
8.99289e-06
-0.00699529
1.01589e-05
-0.00755676
1.12271e-05
-0.00811898
1.21496e-05
-0.00868145
1.28811e-05
-0.00924471
1.33413e-05
-0.00980825
1.35055e-05
-0.0103728
1.32482e-05
-0.0109375
1.25997e-05
-0.0115036
1.13471e-05
-0.0120697
9.64762e-06
-0.0126369
7.08512e-06
-0.0132055
4.208e-06
-0.00027944
-0.000838354
9.19741e-08
-0.0013973
3.66902e-07
-0.0019564
8.1908e-07
-0.00251549
1.44038e-06
-0.00307488
2.21509e-06
-0.00363426
3.12858e-06
-0.00419401
4.15468e-06
-0.00475387
5.27395e-06
-0.00531399
6.44968e-06
-0.0058745
7.65773e-06
-0.00643514
8.85188e-06
-0.00699636
1.00007e-05
-0.00755768
1.10542e-05
-0.0081197
1.19667e-05
-0.00868191
1.26941e-05
-0.00924487
1.31581e-05
-0.00980799
1.33334e-05
-0.0103722
1.30942e-05
-0.0109363
1.24662e-05
-0.0115019
1.12353e-05
-0.0120671
9.54543e-06
-0.012634
7.01889e-06
-0.0132013
4.16378e-06
-0.000279532
-0.000838629
9.00737e-08
-0.00139775
3.5936e-07
-0.00195702
8.02354e-07
-0.00251626
1.41124e-06
-0.0030758
2.17065e-06
-0.00363529
3.06642e-06
-0.00419513
4.07283e-06
-0.00475504
5.17106e-06
-0.0053152
6.32476e-06
-0.00587569
7.51048e-06
-0.00643629
8.68227e-06
-0.00699741
9.80963e-06
-0.00755859
1.08434e-05
-0.00812043
1.17397e-05
-0.00868237
1.2456e-05
-0.00924504
1.29176e-05
-0.00980776
1.31e-05
-0.0103715
1.28797e-05
-0.010935
1.2281e-05
-0.0115002
1.1089e-05
-0.0120646
9.4357e-06
-0.0126311
6.93878e-06
-0.0131972
4.11832e-06
-0.000279623
-0.000838898
8.78543e-08
-0.00139819
3.50553e-07
-0.00195763
7.82829e-07
-0.00251702
1.37725e-06
-0.00307669
2.11888e-06
-0.00363629
2.99418e-06
-0.00419622
3.978e-06
-0.0047562
5.05236e-06
-0.00531638
6.18146e-06
-0.00587686
7.34254e-06
-0.00643741
8.48993e-06
-0.00699845
9.59379e-06
-0.00755949
1.06051e-05
-0.00812114
1.14816e-05
-0.00868284
1.21814e-05
-0.00924522
1.26339e-05
-0.00980754
1.28163e-05
-0.0103709
1.26095e-05
-0.0109339
1.20404e-05
-0.0114986
1.08947e-05
-0.0120621
9.29192e-06
-0.0126283
6.85878e-06
-0.013193
4.06388e-06
-0.000279711
-0.000839161
8.53901e-08
-0.00139862
3.40771e-07
-0.00195822
7.61121e-07
-0.00251776
1.33941e-06
-0.00307757
2.0612e-06
-0.00363728
2.91363e-06
-0.0041973
3.8723e-06
-0.00475733
4.92018e-06
-0.00531754
6.02237e-06
-0.00587801
7.15693e-06
-0.00643852
8.2787e-06
-0.00699946
9.35844e-06
-0.00756037
1.0347e-05
-0.00812184
1.1203e-05
-0.00868329
1.18844e-05
-0.0092454
1.23237e-05
-0.00980734
1.2499e-05
-0.0103704
1.22972e-05
-0.0109327
1.17502e-05
-0.011497
1.06488e-05
-0.0120597
9.10994e-06
-0.0126255
6.77625e-06
-0.013189
4.00467e-06
-0.000279796
-0.000839417
8.27645e-08
-0.00139904
3.30336e-07
-0.0019588
7.37927e-07
-0.00251848
1.29889e-06
-0.00307842
1.99927e-06
-0.00363824
2.82691e-06
-0.00419835
3.75821e-06
-0.00475843
4.77722e-06
-0.00531868
5.85013e-06
-0.00587913
6.95615e-06
-0.0064396
8.05097e-06
-0.00700044
9.10625e-06
-0.00756122
1.00728e-05
-0.00812252
1.091e-05
-0.00868373
1.15744e-05
-0.00924558
1.20009e-05
-0.00980715
1.21668e-05
-0.0103698
1.19636e-05
-0.0109316
1.14264e-05
-0.0114954
1.03554e-05
-0.0120573
8.87523e-06
-0.0126227
6.6497e-06
-0.013185
3.928e-06
-0.000279879
-0.000839665
8.00543e-08
-0.00139945
3.19553e-07
-0.00195936
7.13908e-07
-0.00251918
1.25681e-06
-0.00307925
1.93475e-06
-0.00363917
2.73623e-06
-0.00419937
3.63842e-06
-0.0047595
4.62648e-06
-0.00531978
5.66772e-06
-0.00588023
6.74284e-06
-0.00644065
7.80875e-06
-0.00700141
8.83837e-06
-0.00756206
9.7831e-06
-0.00812318
1.06029e-05
-0.00868415
1.1254e-05
-0.00924574
1.16718e-05
-0.00980695
1.18324e-05
-0.0103692
1.16288e-05
-0.0109306
1.10958e-05
-0.0114939
1.00412e-05
-0.0120551
8.59263e-06
-0.01262
6.42149e-06
-0.013181
3.81762e-06
-0.000279959
-0.000839904
7.73185e-08
-0.00139985
3.08653e-07
-0.0019599
6.89585e-07
-0.00251986
1.21409e-06
-0.00308005
1.86904e-06
-0.00364007
2.64356e-06
-0.00420035
3.51545e-06
-0.00476054
4.47092e-06
-0.00532086
5.47839e-06
-0.00588129
6.52006e-06
-0.00644168
7.55444e-06
-0.00700235
8.5559e-06
-0.00756289
9.47705e-06
-0.00812383
1.02794e-05
-0.00868457
1.09192e-05
-0.0092459
1.13329e-05
-0.00980676
1.14961e-05
-0.0103687
1.13002e-05
-0.0109295
1.07777e-05
-0.0114925
9.74023e-06
-0.0120529
8.31344e-06
-0.0126174
6.18815e-06
-0.0131772
3.67499e-06
-0.000280037
-0.000840136
7.4589e-08
-0.00140023
2.97768e-07
-0.00196043
6.65256e-07
-0.00252052
1.17127e-06
-0.00308082
1.80303e-06
-0.00364094
2.55018e-06
-0.00420131
3.39111e-06
-0.00476155
4.31288e-06
-0.0053219
5.28493e-06
-0.00588233
6.29086e-06
-0.00644268
7.2908e-06
-0.00700328
8.2607e-06
-0.00756369
9.15461e-06
-0.00812447
9.93641e-06
-0.00868498
1.05639e-05
-0.00924607
1.09748e-05
-0.00980657
1.11468e-05
-0.0103682
1.09682e-05
-0.0109285
1.04696e-05
-0.0114911
9.45933e-06
-0.0120508
8.05912e-06
-0.0126149
5.97027e-06
-0.0131736
3.48905e-06
-0.000280111
-0.000840359
7.18659e-08
-0.00140059
2.86898e-07
-0.00196093
6.40932e-07
-0.00252115
1.1284e-06
-0.00308157
1.73685e-06
-0.00364179
2.4564e-06
-0.00420223
3.26594e-06
-0.00476252
4.15327e-06
-0.0053229
5.08868e-06
-0.00588332
6.05701e-06
-0.00644365
7.01982e-06
-0.00700417
7.95448e-06
-0.00756447
8.81651e-06
-0.0081251
9.57253e-06
-0.00868539
1.01829e-05
-0.00924624
1.05872e-05
-0.00980639
1.07683e-05
-0.0103677
1.06113e-05
-0.0109275
1.01503e-05
-0.0114897
9.18395e-06
-0.0120487
7.83696e-06
-0.0126124
5.7891e-06
-0.0131701
3.31562e-06
-0.000280183
-0.000840574
6.91259e-08
-0.00140095
2.75956e-07
-0.00196142
6.16426e-07
-0.00252176
1.08517e-06
-0.00308229
1.67006e-06
-0.0036426
2.36168e-06
-0.00420312
3.13938e-06
-0.00476346
3.99156e-06
-0.00532387
4.88933e-06
-0.00588429
5.81854e-06
-0.00644459
6.74202e-06
-0.00700503
7.63812e-06
-0.00756523
8.46375e-06
-0.00812571
9.18798e-06
-0.0086858
9.77426e-06
-0.00924642
1.0164e-05
-0.00980623
1.03472e-05
-0.0103672
1.02064e-05
-0.0109265
9.78609e-06
-0.0114883
8.87155e-06
-0.0120467
7.61049e-06
-0.0126099
5.64321e-06
-0.0131668
3.29081e-06
-0.000280252
-0.000840781
6.63189e-08
-0.00140129
2.64743e-07
-0.00196189
5.913e-07
-0.00252234
1.04081e-06
-0.00308298
1.60151e-06
-0.00364337
2.26443e-06
-0.00420397
3.00937e-06
-0.00476436
3.82528e-06
-0.0053248
4.6841e-06
-0.00588521
5.57248e-06
-0.00644548
6.45457e-06
-0.00700586
7.30917e-06
-0.00756596
8.09457e-06
-0.0081263
8.78157e-06
-0.00868618
9.33693e-06
-0.0092466
9.7029e-06
-0.00980608
9.87665e-06
-0.0103668
9.73912e-06
-0.0109256
9.34916e-06
-0.0114871
8.47642e-06
-0.0120447
7.30677e-06
-0.0126076
5.43313e-06
-0.0131635
3.22498e-06
-0.000280319
-0.00084098
6.33745e-08
-0.00140162
2.52969e-07
-0.00196234
5.64913e-07
-0.0025229
9.94211e-07
-0.00308364
1.52946e-06
-0.00364412
2.16221e-06
-0.00420479
2.87264e-06
-0.00476522
3.65034e-06
-0.00532569
4.4679e-06
-0.00588609
5.31316e-06
-0.00644633
6.15086e-06
-0.00700665
6.96127e-06
-0.00756665
7.70216e-06
-0.00812686
8.34846e-06
-0.00868655
8.86559e-06
-0.00924677
9.20185e-06
-0.00980593
9.35132e-06
-0.0103664
9.20611e-06
-0.0109247
8.82341e-06
-0.0114859
7.97995e-06
-0.0120428
6.87963e-06
-0.0126054
5.10236e-06
-0.0131602
3.04166e-06
-0.000280382
-0.000841169
6.05454e-08
-0.00140193
2.41641e-07
-0.00196276
5.39529e-07
-0.00252344
9.49415e-07
-0.00308428
1.46029e-06
-0.00364483
2.06421e-06
-0.00420557
2.74173e-06
-0.00476604
3.48324e-06
-0.00532653
4.26172e-06
-0.00588692
5.06666e-06
-0.00644714
5.86279e-06
-0.00700739
6.63297e-06
-0.00756729
7.333e-06
-0.00812737
7.94415e-06
-0.00868689
8.42663e-06
-0.00924692
8.73921e-06
-0.00980577
8.86349e-06
-0.010366
8.71314e-06
-0.0109239
8.32701e-06
-0.0114848
7.51129e-06
-0.0120411
6.45555e-06
-0.0126033
4.766e-06
-0.0131572
2.81372e-06
-0.000280443
-0.00084135
5.80388e-08
-0.00140223
2.31614e-07
-0.00196317
5.17092e-07
-0.00252395
9.09891e-07
-0.00308488
1.39943e-06
-0.00364551
1.97828e-06
-0.00420631
2.62747e-06
-0.00476682
3.33801e-06
-0.00532734
4.08377e-06
-0.00588772
4.85504e-06
-0.00644791
5.61807e-06
-0.00700809
6.35608e-06
-0.00756791
7.02714e-06
-0.00812786
7.6129e-06
-0.0086872
8.07707e-06
-0.00924705
8.3761e-06
-0.00980561
8.49605e-06
-0.0103656
8.34668e-06
-0.0109231
7.97901e-06
-0.0114837
7.18841e-06
-0.0120394
6.19525e-06
-0.0126014
4.56825e-06
-0.0131544
2.7353e-06
-0.000280501
-0.000841524
5.53222e-08
-0.00140251
2.2075e-07
-0.00196357
4.92805e-07
-0.00252444
8.67137e-07
-0.00308546
1.33362e-06
-0.00364616
1.8854e-06
-0.00420702
2.50402e-06
-0.00476756
3.18112e-06
-0.00532811
3.89154e-06
-0.00588848
4.62632e-06
-0.00644865
5.35332e-06
-0.00700876
6.05612e-06
-0.00756849
6.69597e-06
-0.00812832
7.25398e-06
-0.0086875
7.69859e-06
-0.00924717
7.98259e-06
-0.00980545
8.10025e-06
-0.0103653
7.95235e-06
-0.0109223
7.60591e-06
-0.0114828
6.83904e-06
-0.0120377
5.89413e-06
-0.0125995
4.32196e-06
-0.0131516
2.65161e-06
-0.000280556
-0.000841689
5.23673e-08
-0.00140278
2.0894e-07
-0.00196394
4.66433e-07
-0.0025249
8.20749e-07
-0.00308601
1.26227e-06
-0.00364678
1.78476e-06
-0.0042077
2.37036e-06
-0.00476827
3.01139e-06
-0.00532884
3.68373e-06
-0.0058892
4.3791e-06
-0.00644935
5.06701e-06
-0.0070094
5.73152e-06
-0.00756905
6.33766e-06
-0.00812877
6.86537e-06
-0.00868779
7.28792e-06
-0.00924729
7.55444e-06
-0.0098053
7.67112e-06
-0.0103649
7.52787e-06
-0.0109215
7.21173e-06
-0.0114818
6.47691e-06
-0.0120362
5.5662e-06
-0.0125979
4.03547e-06
-0.013149
2.44689e-06
-0.000280609
-0.000841846
4.9152e-08
-0.00140304
1.96103e-07
-0.00196429
4.37796e-07
-0.00252535
7.70425e-07
-0.00308653
1.1849e-06
-0.00364736
1.67571e-06
-0.00420834
2.22569e-06
-0.00476895
2.82789e-06
-0.00532954
3.45938e-06
-0.00588989
4.11233e-06
-0.00645001
4.75824e-06
-0.00701001
5.38139e-06
-0.00756958
5.95183e-06
-0.00812919
6.44659e-06
-0.00868806
6.84464e-06
-0.00924741
7.08962e-06
-0.00980516
7.20554e-06
-0.0103646
7.06706e-06
-0.0109208
6.78932e-06
-0.0114809
6.10026e-06
-0.0120347
5.24782e-06
-0.0125962
4.08826e-06
-0.0131465
2.27897e-06
-0.000280658
-0.000841993
4.56583e-08
-0.00140328
1.8217e-07
-0.00196463
4.06746e-07
-0.00252576
7.15897e-07
-0.00308702
1.10111e-06
-0.00364791
1.55766e-06
-0.00420894
2.06921e-06
-0.00476958
2.62963e-06
-0.00533019
3.21733e-06
-0.00589053
3.82469e-06
-0.00645064
4.42571e-06
-0.00701058
5.00445e-06
-0.00757008
5.53757e-06
-0.00812958
5.9971e-06
-0.00868832
6.36886e-06
-0.00924752
6.58849e-06
-0.00980502
6.70539e-06
-0.0103644
6.56902e-06
-0.0109201
6.32323e-06
-0.01148
5.68019e-06
-0.0120331
4.96708e-06
-0.0125948
3.60539e-06
-0.0131442
2.15995e-06
-0.000280704
-0.00084213
4.18793e-08
-0.00140351
1.67115e-07
-0.00196494
3.73202e-07
-0.00252615
6.57e-07
-0.00308748
1.0106e-06
-0.00364843
1.43018e-06
-0.0042095
1.90032e-06
-0.00477017
2.4158e-06
-0.0053308
2.95655e-06
-0.00589114
3.51485e-06
-0.00645122
4.06803e-06
-0.00701111
4.59907e-06
-0.00757054
5.0935e-06
-0.00812995
5.51553e-06
-0.00868855
5.85991e-06
-0.00924763
6.05095e-06
-0.00980488
6.17546e-06
-0.0103641
6.0413e-06
-0.0109194
5.81239e-06
-0.0114793
5.18752e-06
-0.0120317
4.59454e-06
-0.0125934
3.30756e-06
-0.0131421
1.98409e-06
-0.000280746
-0.000842255
3.78255e-08
-0.00140371
1.50964e-07
-0.00196522
3.37185e-07
-0.0025265
5.93717e-07
-0.00308789
9.13317e-07
-0.0036489
1.29312e-06
-0.00421002
1.71878e-06
-0.00477071
2.18603e-06
-0.00533135
2.67647e-06
-0.00589169
3.18185e-06
-0.00645175
3.68412e-06
-0.00701161
4.16389e-06
-0.00757096
4.61843e-06
-0.0081303
5.00027e-06
-0.00868875
5.31702e-06
-0.00924775
5.47554e-06
-0.00980475
5.61517e-06
-0.0103639
5.48623e-06
-0.0109188
5.29281e-06
-0.0114787
5.09803e-06
-0.0120305
4.06019e-06
-0.0125921
3.00727e-06
-0.0131401
1.79499e-06
-0.000280783
-0.000842368
3.35229e-08
-0.0014039
1.33795e-07
-0.00196548
2.98815e-07
-0.00252682
5.26221e-07
-0.00308827
8.09413e-07
-0.00364932
1.14671e-06
-0.00421048
1.52488e-06
-0.0047712
1.94059e-06
-0.00533186
2.37724e-06
-0.00589219
2.82545e-06
-0.00645223
3.27385e-06
-0.00701206
3.69836e-06
-0.00757133
4.11224e-06
-0.00813063
4.44989e-06
-0.00868892
4.74203e-06
-0.00924787
4.86448e-06
-0.00980463
5.02036e-06
-0.0103637
4.89594e-06
-0.0109182
4.81518e-06
-0.0114781
4.32596e-06
-0.0120294
3.66841e-06
-0.0125908
2.73258e-06
-0.0131383
1.61577e-06
-0.000280817
-0.000842469
2.89863e-08
-0.00140406
1.15674e-07
-0.0019657
2.58251e-07
-0.0025271
4.5478e-07
-0.00308861
6.99276e-07
-0.0036497
9.91528e-07
-0.0042109
1.31944e-06
-0.00477164
1.68049e-06
-0.00533231
2.05997e-06
-0.00589264
2.44646e-06
-0.00645265
2.83871e-06
-0.00701247
3.20324e-06
-0.00757167
3.57748e-06
-0.00813093
3.86316e-06
-0.00868906
4.14028e-06
-0.00924801
4.22437e-06
-0.00980453
4.39717e-06
-0.0103636
4.63096e-06
-0.0109176
4.11743e-06
-0.0114776
3.74194e-06
-0.0120285
3.20592e-06
-0.0125897
2.39774e-06
-0.0131367
1.41816e-06
-0.000280846
-0.000842556
2.41791e-08
-0.00140421
9.66039e-08
-0.0019659
2.1564e-07
-0.00252735
3.7981e-07
-0.0030889
5.83656e-07
-0.00365003
8.28615e-07
-0.00421126