/*--------------------------------*- C++ -*----------------------------------*\
  =========                 |
  \\      /  F ield         | OpenFOAM: The Open Source CFD Toolbox
   \\    /   O peration     | Website:  https://openfoam.org
    \\  /    A nd           | Version:  10
     \\/     M anipulation  |
\*---------------------------------------------------------------------------*/
FoamFile
{
    format      ascii;
    class       volScalarField;
    location    "0.48";
    object      rho;
}
// * * * * * * * * * * * * * * * * * * * * * * * * * * * * * * * * * * * * * //

dimensions      [1 -3 0 0 0 0 0];

internalField   nonuniform List<scalar> 
4176
(
0.0308487
0.0308517
0.0308579
0.0308683
0.0308814
0.0308977
0.0309186
0.0309401
0.0309693
0.0309955
0.0310322
0.0310648
0.0311069
0.0311475
0.0311924
0.031244
0.031287
0.0313549
0.0313933
0.031479
0.0315107
0.031616
0.0316362
0.0317505
0.0308567
0.0308596
0.0308648
0.0308748
0.0308858
0.0309015
0.0309192
0.0309399
0.0309649
0.0309899
0.031022
0.0310523
0.0310899
0.031127
0.031168
0.0312143
0.031254
0.0313145
0.0313499
0.0314266
0.0314538
0.0315541
0.0315748
0.0317037
0.030876
0.0308789
0.0308844
0.0308947
0.0309062
0.0309223
0.0309409
0.0309621
0.0309885
0.031014
0.0310477
0.0310787
0.0311182
0.0311562
0.0311994
0.0312469
0.031289
0.031352
0.0313876
0.0314681
0.0314955
0.0315945
0.0316133
0.0317344
0.0309047
0.0309076
0.0309129
0.0309229
0.0309341
0.0309498
0.0309679
0.0309884
0.0310142
0.0310387
0.0310719
0.0311016
0.0311408
0.031177
0.0312199
0.0312656
0.0313073
0.0313704
0.0314014
0.0314842
0.0315092
0.0316069
0.0316245
0.0317367
0.0309441
0.030947
0.0309523
0.0309624
0.0309735
0.0309893
0.0310072
0.0310279
0.0310535
0.0310784
0.0311112
0.0311413
0.0311801
0.0312165
0.0312595
0.0313046
0.0313483
0.0314082
0.0314429
0.0315236
0.0315503
0.0316475
0.0316666
0.0317804
0.0309936
0.0309965
0.0310017
0.0310117
0.0310225
0.0310382
0.0310558
0.0310764
0.0311013
0.0311261
0.0311583
0.0311881
0.0312263
0.0312623
0.0313049
0.031349
0.031393
0.03145
0.031488
0.0315648
0.0315924
0.0316883
0.0317084
0.0318237
0.0310535
0.0310564
0.0310615
0.0310714
0.0310822
0.0310978
0.0311151
0.0311356
0.0311603
0.0311849
0.0312167
0.0312463
0.0312842
0.0313197
0.0313622
0.0314055
0.0314498
0.0315052
0.0315441
0.0316189
0.0316478
0.0317421
0.0317625
0.0318758
0.0311237
0.0311265
0.0311315
0.0311414
0.031152
0.0311675
0.0311845
0.0312048
0.0312292
0.0312534
0.0312849
0.031314
0.0313515
0.0313865
0.0314287
0.0314711
0.0315154
0.0315689
0.031609
0.0316812
0.0317112
0.031804
0.0318248
0.0319367
0.0312041
0.031207
0.031212
0.0312217
0.0312321
0.0312475
0.0312643
0.0312844
0.0313084
0.0313324
0.0313635
0.0313922
0.0314293
0.0314637
0.0315056
0.0315471
0.0315914
0.0316433
0.0316842
0.031754
0.031785
0.0318758
0.0318971
0.0320072
0.031295
0.0312978
0.0313027
0.0313124
0.0313226
0.0313379
0.0313544
0.0313742
0.0313979
0.0314216
0.0314522
0.0314805
0.0315171
0.0315509
0.0315925
0.031633
0.0316772
0.0317274
0.031769
0.0318364
0.0318681
0.031957
0.0319787
0.0320869
0.0313963
0.0313991
0.0314039
0.0314135
0.0314235
0.0314386
0.0314548
0.0314745
0.0314977
0.0315211
0.0315513
0.0315791
0.0316152
0.0316484
0.0316895
0.0317291
0.0317731
0.0318218
0.0318639
0.0319289
0.0319618
0.0320474
0.0320699
0.0321762
0.031508
0.0315108
0.0315155
0.031525
0.0315348
0.0315497
0.0315657
0.031585
0.0316079
0.0316309
0.0316607
0.031688
0.0317236
0.031756
0.0317967
0.0318352
0.0318789
0.0319262
0.0319686
0.0320313
0.0320648
0.032148
0.0321707
0.0322749
0.0316303
0.0316331
0.0316377
0.0316471
0.0316567
0.0316714
0.031687
0.0317061
0.0317286
0.0317511
0.0317804
0.0318072
0.0318423
0.031874
0.0319141
0.0319516
0.0319949
0.0320407
0.0320834
0.0321437
0.0321776
0.0322586
0.0322813
0.0323832
0.0317632
0.0317659
0.0317704
0.0317797
0.0317891
0.0318036
0.0318189
0.0318376
0.0318597
0.0318818
0.0319106
0.0319368
0.0319713
0.0320022
0.0320418
0.0320783
0.0321211
0.0321653
0.0322083
0.0322661
0.0323007
0.0323788
0.0324016
0.0325012
0.0319068
0.0319095
0.0319139
0.0319231
0.0319322
0.0319465
0.0319614
0.0319798
0.0320013
0.032023
0.0320512
0.0320768
0.0321107
0.0321409
0.0321798
0.0322152
0.0322575
0.0323002
0.0323432
0.0323986
0.0324336
0.0325093
0.0325319
0.032629
0.0320612
0.0320639
0.0320682
0.0320772
0.0320861
0.0321001
0.0321146
0.0321326
0.0321537
0.0321748
0.0322024
0.0322274
0.0322606
0.0322899
0.0323283
0.0323625
0.0324043
0.0324455
0.0324882
0.0325412
0.0325767
0.0326492
0.0326725
0.0327667
0.0322265
0.0322292
0.0322333
0.0322422
0.0322508
0.0322645
0.0322786
0.0322963
0.0323168
0.0323374
0.0323643
0.0323886
0.0324211
0.0324495
0.0324871
0.0325203
0.0325614
0.032601
0.0326435
0.032694
0.0327298
0.0327996
0.0328231
0.0329144
0.0324028
0.0324054
0.0324094
0.0324181
0.0324265
0.0324399
0.0324536
0.0324708
0.0324907
0.0325107
0.032537
0.0325605
0.0325922
0.0326197
0.0326566
0.0326885
0.0327289
0.032767
0.032809
0.0328571
0.0328933
0.0329599
0.032984
0.0330721
0.0325901
0.0325927
0.0325966
0.0326051
0.0326132
0.0326263
0.0326395
0.0326562
0.0326756
0.032695
0.0327205
0.0327432
0.0327742
0.0328006
0.0328366
0.0328673
0.032907
0.0329435
0.032985
0.0330307
0.033067
0.0331307
0.033155
0.03324
0.0327887
0.0327913
0.032795
0.0328033
0.032811
0.0328238
0.0328366
0.0328528
0.0328715
0.0328902
0.032915
0.0329368
0.0329669
0.0329923
0.0330274
0.0330569
0.0330956
0.0331305
0.0331714
0.0332147
0.0332512
0.0333117
0.0333364
0.033418
0.0329986
0.0330011
0.0330047
0.0330128
0.0330202
0.0330326
0.0330448
0.0330605
0.0330786
0.0330966
0.0331206
0.0331415
0.0331707
0.033195
0.0332291
0.0332572
0.033295
0.0333282
0.0333684
0.0334093
0.0334458
0.0335032
0.0335281
0.0336064
0.0332199
0.0332224
0.0332257
0.0332336
0.0332406
0.0332527
0.0332643
0.0332795
0.0332968
0.0333141
0.0333373
0.0333573
0.0333855
0.0334087
0.0334417
0.0334685
0.0335052
0.0335367
0.0335761
0.0336146
0.033651
0.0337051
0.0337304
0.0338052
0.0334527
0.0334551
0.0334583
0.033466
0.0334726
0.0334842
0.0334953
0.0335098
0.0335265
0.033543
0.0335653
0.0335843
0.0336116
0.0336336
0.0336655
0.0336908
0.0337265
0.0337562
0.0337946
0.0338308
0.0338669
0.0339178
0.0339432
0.0340144
0.0336971
0.0336995
0.0337025
0.0337099
0.0337161
0.0337273
0.0337378
0.0337517
0.0337675
0.0337832
0.0338046
0.0338227
0.0338489
0.0338697
0.0339004
0.0339244
0.0339589
0.0339868
0.0340241
0.034058
0.0340938
0.0341412
0.0341667
0.0342342
0.0339531
0.0339555
0.0339583
0.0339655
0.0339713
0.033982
0.0339919
0.0340051
0.0340202
0.034035
0.0340555
0.0340724
0.0340976
0.0341171
0.0341467
0.0341692
0.0342025
0.0342285
0.0342648
0.0342962
0.0343316
0.0343757
0.0344011
0.0344646
0.034221
0.0342233
0.0342259
0.0342328
0.0342382
0.0342485
0.0342577
0.0342703
0.0342845
0.0342985
0.0343179
0.0343338
0.0343578
0.034376
0.0344044
0.0344254
0.0344574
0.0344816
0.0345167
0.0345458
0.0345806
0.0346211
0.0346465
0.0347062
0.0345007
0.0345029
0.0345053
0.034512
0.0345169
0.0345268
0.0345354
0.0345473
0.0345606
0.0345737
0.0345921
0.0346069
0.0346297
0.0346466
0.0346737
0.0346931
0.0347238
0.0347462
0.03478
0.0348067
0.0348406
0.0348779
0.0349031
0.034959
0.0347923
0.0347945
0.0347967
0.0348031
0.0348076
0.034817
0.0348249
0.0348361
0.0348486
0.0348608
0.0348782
0.0348917
0.0349134
0.0349289
0.0349546
0.0349724
0.0350018
0.0350223
0.0350549
0.0350791
0.0351123
0.0351457
0.0351711
0.0352229
0.0350959
0.0350981
0.0351001
0.0351062
0.0351103
0.0351192
0.0351265
0.035137
0.0351486
0.0351598
0.0351762
0.0351886
0.035209
0.035223
0.0352474
0.0352636
0.0352916
0.03531
0.0353413
0.0353632
0.0353952
0.0354253
0.03545
0.0354986
0.0354117
0.0354138
0.0354156
0.0354215
0.0354251
0.0354335
0.0354401
0.0354499
0.0354607
0.0354709
0.0354862
0.0354974
0.0355166
0.0355292
0.0355522
0.0355667
0.0355932
0.0356097
0.0356395
0.035659
0.03569
0.0357164
0.0357412
0.0357852
0.0357397
0.0357417
0.0357433
0.0357489
0.0357521
0.03576
0.0357659
0.035775
0.0357849
0.0357942
0.0358084
0.0358185
0.0358364
0.0358476
0.0358692
0.0358819
0.0359069
0.0359213
0.0359497
0.0359667
0.0359965
0.0360197
0.0360445
0.0360832
0.03608
0.036082
0.0360834
0.0360887
0.0360914
0.0360988
0.036104
0.0361124
0.0361214
0.0361298
0.0361429
0.0361517
0.0361685
0.0361781
0.0361984
0.0362093
0.0362328
0.0362451
0.0362719
0.0362865
0.0363151
0.0363349
0.0363592
0.0363938
0.0364327
0.0364346
0.0364358
0.0364408
0.0364431
0.03645
0.0364545
0.0364622
0.0364703
0.0364777
0.0364897
0.0364974
0.0365129
0.0365211
0.0365399
0.0365491
0.0365711
0.0365813
0.0366065
0.0366186
0.0366457
0.0366623
0.0366864
0.0367162
0.0367978
0.0367997
0.0368007
0.0368054
0.0368072
0.0368136
0.0368175
0.0368244
0.0368316
0.0368381
0.036849
0.0368555
0.0368697
0.0368765
0.0368939
0.0369014
0.0369219
0.03693
0.0369536
0.0369631
0.0369888
0.0370021
0.0370258
0.0370509
0.0371755
0.0371774
0.0371781
0.0371826
0.0371839
0.0371899
0.037193
0.0371993
0.0372056
0.037211
0.0372209
0.0372262
0.0372391
0.0372444
0.0372605
0.0372662
0.0372853
0.0372912
0.0373133
0.0373203
0.0373444
0.0373544
0.0373776
0.037398
0.0375659
0.0375677
0.0375682
0.0375724
0.0375733
0.0375788
0.0375813
0.0375868
0.0375922
0.0375967
0.0376056
0.0376096
0.0376213
0.0376251
0.0376398
0.0376437
0.0376613
0.0376652
0.0376857
0.0376902
0.0377128
0.0377196
0.0377418
0.0377575
0.037969
0.0379707
0.037971
0.0379751
0.0379755
0.0379805
0.0379823
0.0379872
0.0379917
0.0379953
0.038003
0.0380058
0.0380163
0.0380186
0.0380318
0.038034
0.0380501
0.0380519
0.0380709
0.0380729
0.0380941
0.0380978
0.0381188
0.0381297
0.0383849
0.0383866
0.0383868
0.0383905
0.0383905
0.0383951
0.0383963
0.0384004
0.0384041
0.0384067
0.0384134
0.038415
0.0384242
0.038425
0.0384369
0.0384372
0.0384518
0.0384514
0.0384689
0.0384684
0.0384882
0.0384887
0.0385088
0.0385148
0.0388139
0.0388155
0.0388155
0.038819
0.0388186
0.0388227
0.0388232
0.0388267
0.0388295
0.0388312
0.0388368
0.0388373
0.0388452
0.0388446
0.038855
0.0388534
0.0388666
0.038864
0.0388799
0.0388768
0.0388952
0.0388927
0.0389117
0.0389131
0.0392559
0.0392575
0.0392573
0.0392606
0.0392597
0.0392634
0.0392632
0.0392661
0.039268
0.0392688
0.0392734
0.0392727
0.0392794
0.0392773
0.0392863
0.0392829
0.0392946
0.0392897
0.0393042
0.0392983
0.0393154
0.0393095
0.0393276
0.0393247
0.0397112
0.0397128
0.0397123
0.0397154
0.0397141
0.0397173
0.0397165
0.0397187
0.0397198
0.0397197
0.0397232
0.0397213
0.0397268
0.0397233
0.039731
0.0397257
0.039736
0.0397288
0.0397418
0.0397331
0.0397488
0.0397396
0.0397564
0.0397499
0.0401798
0.0401814
0.0401807
0.0401835
0.0401818
0.0401846
0.0401831
0.0401846
0.0401849
0.0401839
0.0401864
0.0401833
0.0401876
0.0401826
0.0401889
0.0401818
0.0401908
0.0401812
0.040193
0.0401814
0.0401958
0.040183
0.0401988
0.0401879
0.040662
0.0406635
0.0406626
0.0406652
0.040663
0.0406654
0.0406632
0.0406641
0.0406634
0.0406615
0.0406629
0.0406587
0.0406618
0.0406553
0.0406604
0.0406514
0.040659
0.0406471
0.0406577
0.0406431
0.0406564
0.04064
0.0406549
0.0406392
0.0411577
0.0411592
0.0411581
0.0411604
0.0411578
0.0411597
0.0411569
0.041157
0.0411555
0.0411527
0.0411531
0.0411476
0.0411495
0.0411415
0.0411453
0.0411345
0.0411408
0.0411266
0.041136
0.0411184
0.0411309
0.0411107
0.0411248
0.0411045
0.0416671
0.0416685
0.0416672
0.0416693
0.0416662
0.0416677
0.0416642
0.0416637
0.0416612
0.0416575
0.0416568
0.0416502
0.0416509
0.0416414
0.0416438
0.0416312
0.0416361
0.0416196
0.0416278
0.0416074
0.0416188
0.0415951
0.0416086
0.0415838
0.0421902
0.0421916
0.0421901
0.042192
0.0421884
0.0421894
0.0421852
0.0421841
0.0421807
0.042176
0.0421743
0.0421665
0.0421659
0.042155
0.042156
0.0421416
0.0421451
0.0421263
0.0421333
0.0421099
0.0421206
0.042093
0.0421061
0.0420765
0.0427272
0.0427285
0.0427268
0.0427284
0.0427244
0.042725
0.0427201
0.0427182
0.042714
0.0427084
0.0427056
0.0426965
0.0426947
0.0426823
0.042682
0.0426658
0.042668
0.0426467
0.0426526
0.0426261
0.0426361
0.0426046
0.0426178
0.0425828
0.043278
0.0432793
0.0432774
0.0432787
0.0432743
0.0432744
0.0432688
0.0432662
0.0432611
0.0432546
0.0432507
0.0432404
0.0432374
0.0432234
0.0432219
0.0432038
0.0432047
0.0431809
0.0431859
0.043156
0.0431654
0.0431299
0.0431431
0.0431032
0.0438426
0.0438439
0.0438418
0.0438429
0.043838
0.0438376
0.0438313
0.0438281
0.0438221
0.0438146
0.0438097
0.0437982
0.043794
0.0437785
0.0437756
0.0437556
0.0437553
0.043729
0.0437332
0.0436999
0.0437088
0.0436684
0.0436829
0.0436376
0.044421
0.0444223
0.04442
0.0444209
0.0444155
0.0444147
0.0444077
0.0444038
0.044397
0.0443885
0.0443825
0.0443698
0.0443644
0.0443474
0.0443433
0.0443213
0.0443199
0.044291
0.0442944
0.0442578
0.0442664
0.0442214
0.0442362
0.044186
0.0450132
0.0450145
0.045012
0.0450126
0.0450068
0.0450056
0.0449979
0.0449933
0.0449856
0.0449762
0.0449692
0.0449553
0.0449488
0.0449301
0.044925
0.0449008
0.0448985
0.0448669
0.0448697
0.0448296
0.0448383
0.0447887
0.0448031
0.0447486
0.0456191
0.0456203
0.0456176
0.045618
0.0456117
0.0456101
0.0456018
0.0455966
0.0455881
0.0455777
0.0455698
0.0455545
0.0455471
0.0455267
0.0455206
0.0454942
0.0454913
0.0454568
0.0454592
0.0454145
0.0454244
0.0453704
0.0453845
0.0453254
0.0462385
0.0462397
0.0462368
0.046237
0.0462303
0.0462283
0.0462194
0.0462135
0.0462042
0.0461929
0.0461841
0.0461675
0.0461593
0.0461371
0.0461303
0.0461013
0.0460982
0.0460606
0.046063
0.0460141
0.0460239
0.0459664
0.0459797
0.0459165
0.0468714
0.0468725
0.0468695
0.0468695
0.0468623
0.04686
0.0468504
0.0468439
0.0468339
0.0468216
0.0468121
0.0467941
0.0467853
0.046761
0.046754
0.046722
0.0467194
0.0466772
0.046681
0.0466287
0.0466369
0.0465765
0.0465893
0.0465219
0.0475175
0.0475186
0.0475154
0.0475152
0.0475076
0.047505
0.0474948
0.0474877
0.047477
0.0474638
0.0474537
0.0474341
0.0474251
0.0473984
0.0473917
0.0473561
0.0473546
0.0473089
0.0473118
0.0472571
0.0472645
0.047201
0.0472129
0.0471416
0.0481765
0.0481777
0.0481743
0.048174
0.048166
0.0481631
0.0481523
0.0481447
0.0481334
0.0481191
0.0481089
0.0480873
0.0480788
0.0480492
0.0480431
0.0480048
0.0480022
0.0479552
0.0479563
0.0478999
0.0479057
0.0478396
0.0478507
0.0477757
0.0488484
0.0488497
0.048846
0.0488457
0.0488373
0.0488342
0.0488228
0.0488146
0.0488032
0.0487873
0.0487776
0.0487535
0.0487457
0.0487136
0.0487073
0.0486675
0.0486636
0.0486147
0.048615
0.0485563
0.0485612
0.0484923
0.0485026
0.0484239
0.0495329
0.0495343
0.0495303
0.0495302
0.0495212
0.0495181
0.0495061
0.0494973
0.0494859
0.0494685
0.0494589
0.0494336
0.0494248
0.049392
0.0493845
0.0493435
0.0493386
0.0492884
0.0492869
0.0492268
0.0492302
0.049159
0.0491685
0.0490864
0.0502298
0.0502313
0.050227
0.0502271
0.0502174
0.0502146
0.0502019
0.0501928
0.0501808
0.0501631
0.0501526
0.0501268
0.0501171
0.0500835
0.0500747
0.050033
0.0500268
0.0499751
0.0499729
0.0499107
0.0499133
0.0498396
0.0498484
0.049763
0.0509389
0.0509405
0.0509361
0.050936
0.0509263
0.0509231
0.0509097
0.0509014
0.050888
0.0508702
0.0508589
0.0508326
0.0508221
0.0507878
0.0507781
0.0507355
0.0507283
0.0506755
0.0506718
0.0506083
0.0506097
0.0505339
0.0505419
0.0504535
0.05166
0.0516616
0.0516573
0.051657
0.0516472
0.0516438
0.0516301
0.0516219
0.051607
0.0515902
0.0515774
0.051551
0.0515397
0.0515049
0.051494
0.051451
0.0514425
0.0513887
0.0513842
0.051319
0.0513195
0.0512417
0.0512489
0.0511576
0.052393
0.0523946
0.0523902
0.0523899
0.05238
0.0523765
0.0523625
0.0523543
0.0523384
0.0523223
0.0523078
0.0522821
0.0522694
0.0522344
0.0522227
0.052179
0.0521696
0.0521149
0.0521093
0.0520428
0.0520423
0.0519627
0.0519693
0.0518753
0.0531377
0.0531393
0.053135
0.0531346
0.0531245
0.0531211
0.0531068
0.0530985
0.053082
0.0530662
0.0530505
0.0530254
0.0530109
0.0529765
0.0529636
0.0529195
0.052909
0.0528535
0.052847
0.0527792
0.0527779
0.0526967
0.0527024
0.0526061
0.0538941
0.0538958
0.0538914
0.053891
0.0538808
0.0538774
0.0538628
0.0538545
0.0538375
0.0538219
0.0538051
0.0537804
0.053765
0.0537302
0.0537165
0.0536718
0.0536605
0.0536043
0.0535969
0.0535281
0.0535259
0.0534431
0.0534483
0.0533497
0.0546622
0.0546639
0.0546594
0.0546591
0.0546488
0.0546453
0.0546304
0.0546222
0.0546047
0.0545893
0.0545716
0.0545471
0.0545306
0.0544958
0.0544811
0.0544359
0.0544238
0.054367
0.0543587
0.0542889
0.0542859
0.0542018
0.0542061
0.0541057
0.0554419
0.0554437
0.0554392
0.0554389
0.0554284
0.0554249
0.0554097
0.0554014
0.0553834
0.0553681
0.0553496
0.0553251
0.0553076
0.0552729
0.0552575
0.0552113
0.0551986
0.0551411
0.0551319
0.0550615
0.0550574
0.0549721
0.0549759
0.0548736
0.0562333
0.0562352
0.0562305
0.0562304
0.0562195
0.056216
0.0562005
0.056192
0.0561735
0.0561582
0.0561387
0.0561143
0.056096
0.0560608
0.0560449
0.0559978
0.0559845
0.0559262
0.0559163
0.055845
0.0558402
0.0557539
0.0557569
0.0556532
0.0570364
0.0570384
0.0570335
0.0570334
0.0570222
0.0570186
0.0570026
0.0569939
0.0569748
0.0569593
0.0569388
0.0569145
0.0568948
0.0568597
0.0568429
0.0567949
0.0567812
0.0567223
0.0567111
0.0566396
0.0566337
0.0565465
0.0565489
0.0564439
0.0578509
0.057853
0.0578479
0.0578477
0.0578361
0.0578322
0.0578157
0.0578066
0.0577869
0.057771
0.0577494
0.0577252
0.0577042
0.0576689
0.0576512
0.0576024
0.0575883
0.0575283
0.0575166
0.0574444
0.0574377
0.0573499
0.0573515
0.0572456
0.0586763
0.0586783
0.058673
0.0586726
0.0586606
0.0586564
0.0586393
0.0586297
0.0586093
0.0585929
0.0585701
0.0585461
0.0585232
0.0584885
0.0584689
0.0584205
0.0584055
0.0583446
0.0583319
0.0582596
0.0582519
0.0581635
0.0581646
0.0580578
0.0595114
0.0595135
0.059508
0.0595073
0.059495
0.0594903
0.0594726
0.0594625
0.0594413
0.0594243
0.0594006
0.0593765
0.0593519
0.0593178
0.0592957
0.0592487
0.0592321
0.0591703
0.0591575
0.0590847
0.0590762
0.0589876
0.0589879
0.0588806
0.0603548
0.0603568
0.0603513
0.0603503
0.0603378
0.0603327
0.0603146
0.0603039
0.0602822
0.0602647
0.0602402
0.060216
0.0601897
0.0601564
0.0601322
0.0600861
0.0600679
0.0600061
0.0599929
0.0599197
0.0599105
0.0598218
0.0598216
0.0597139
0.0612042
0.0612063
0.0612008
0.0611998
0.0611872
0.0611819
0.0611637
0.0611529
0.0611308
0.0611131
0.0610881
0.0610639
0.0610365
0.061004
0.0609777
0.0609332
0.0609118
0.060853
0.0608381
0.0607644
0.0607549
0.0606665
0.0606658
0.0605581
0.0620576
0.0620597
0.0620545
0.0620536
0.0620413
0.0620363
0.0620184
0.0620078
0.061986
0.0619686
0.0619436
0.0619198
0.0618919
0.0618602
0.0618326
0.0617896
0.0617662
0.0617091
0.0616931
0.0616193
0.0616097
0.0615216
0.0615208
0.0614132
0.062913
0.0629153
0.0629104
0.0629101
0.0628983
0.0628941
0.0628769
0.0628674
0.0628464
0.0628299
0.0628058
0.0627829
0.0627554
0.062725
0.0626967
0.0626557
0.0626308
0.0625751
0.0625583
0.0624849
0.0624755
0.0623875
0.0623867
0.0622795
0.0637695
0.063772
0.0637677
0.0637682
0.0637573
0.0637544
0.0637385
0.0637304
0.0637109
0.0636962
0.0636735
0.0636524
0.0636262
0.0635977
0.06357
0.0635311
0.0635054
0.0634525
0.0634331
0.0633631
0.0633525
0.0632646
0.063264
0.0631571
0.0646281
0.0646309
0.0646271
0.0646286
0.0646188
0.0646174
0.0646031
0.064597
0.0645795
0.0645669
0.0645465
0.0645278
0.0645037
0.0644776
0.0644516
0.0644155
0.0643906
0.06434
0.0643207
0.0642523
0.0642416
0.0641536
0.0641531
0.0640462
0.0654919
0.065495
0.0654918
0.0654943
0.0654855
0.0654856
0.0654728
0.0654687
0.0654532
0.065443
0.0654249
0.065409
0.0653873
0.0653642
0.0653408
0.0653075
0.0652846
0.0652376
0.0652195
0.065153
0.0651433
0.0650555
0.0650552
0.0649473
0.0663666
0.0663703
0.0663671
0.0663706
0.0663621
0.0663637
0.0663516
0.0663493
0.066335
0.066327
0.0663106
0.0662972
0.0662777
0.0662572
0.0662371
0.0662056
0.0661875
0.066141
0.0661281
0.0660628
0.0660573
0.0659703
0.0659712
0.0658628
0.06726
0.0672645
0.0672603
0.0672653
0.0672555
0.067259
0.0672453
0.0672452
0.0672297
0.067224
0.0672072
0.0671958
0.0671772
0.0671582
0.0671423
0.0671081
0.0670997
0.0670479
0.0670454
0.0669772
0.0669789
0.0668943
0.0668989
0.0667961
0.0681814
0.0681854
0.0681821
0.0681851
0.0681764
0.0681771
0.0681647
0.0681615
0.068147
0.0681387
0.0681223
0.0681098
0.0680904
0.0680733
0.0680546
0.0680233
0.0680148
0.067965
0.0679633
0.067898
0.067903
0.0678201
0.0678294
0.0677344
0.0691391
0.0691428
0.0691389
0.069141
0.0691307
0.0691298
0.0691151
0.0691098
0.0690925
0.0690815
0.0690624
0.0690471
0.069025
0.0690061
0.0689826
0.0689548
0.0689383
0.0688931
0.0688882
0.0688226
0.0688297
0.0687453
0.0687579
0.0686632
0.0701396
0.070143
0.0701382
0.070139
0.0701267
0.0701234
0.0701056
0.0700969
0.0700757
0.0700604
0.0700367
0.0700165
0.0699894
0.0699656
0.0699362
0.0699053
0.0698817
0.0698353
0.0698259
0.0697566
0.0697639
0.0696743
0.0696893
0.0695905
0.0711861
0.0711898
0.0711836
0.0711834
0.0711685
0.071163
0.0711415
0.0711293
0.071103
0.0710832
0.0710531
0.0710272
0.0709927
0.0709621
0.0709245
0.0708864
0.0708548
0.0708008
0.0707851
0.0707072
0.0707118
0.0706136
0.0706292
0.0705221
0.0722789
0.072283
0.0722751
0.0722745
0.072257
0.0722498
0.0722242
0.0722097
0.0721774
0.0721548
0.0721163
0.0720866
0.0720423
0.0720051
0.071958
0.0719102
0.0718701
0.0718012
0.0717783
0.0716865
0.0716839
0.0715722
0.0715854
0.0714646
0.0734146
0.0734181
0.0734107
0.0734078
0.0733902
0.0733799
0.0733536
0.0733343
0.0733011
0.0732714
0.0732317
0.0731931
0.0731453
0.0730993
0.0730435
0.0729896
0.0729318
0.072858
0.072818
0.0727131
0.0726959
0.0725656
0.0725704
0.0724278
0.0745864
0.0745898
0.0745823
0.0745788
0.0745604
0.0745491
0.0745214
0.0745006
0.0744652
0.0744332
0.0743905
0.0743484
0.0742966
0.0742455
0.0741841
0.0741234
0.0740544
0.0739801
0.0739117
0.0738094
0.0737657
0.0736177
0.0736061
0.0734303
0.0757865
0.0757897
0.0757824
0.0757788
0.0757602
0.0757487
0.0757205
0.0756992
0.0756632
0.0756303
0.0755865
0.0755431
0.0754897
0.0754366
0.0753726
0.0753088
0.0752357
0.0751572
0.0750788
0.0749781
0.0749047
0.0747599
0.074721
0.0745077
0.0770062
0.0770095
0.0770022
0.076999
0.0769806
0.0769696
0.0769417
0.0769208
0.0768852
0.0768527
0.0768094
0.0767664
0.0767136
0.0766607
0.0765972
0.0765338
0.076461
0.0763828
0.0763034
0.0762048
0.0761253
0.0759885
0.0759322
0.0757071
0.0782366
0.0782402
0.0782333
0.0782307
0.0782128
0.0782027
0.0781755
0.0781559
0.0781213
0.0780903
0.0780484
0.0780072
0.077956
0.0779054
0.0778441
0.0777833
0.0777129
0.0776379
0.0775636
0.0774659
0.0773985
0.0772601
0.0772203
0.0770226
0.0794701
0.079474
0.0794674
0.0794656
0.0794484
0.0794395
0.0794134
0.0793954
0.0793624
0.0793334
0.0792936
0.0792549
0.0792063
0.0791586
0.0791005
0.0790433
0.0789768
0.0789064
0.0788365
0.0787449
0.0786831
0.0785524
0.0785153
0.0783323
0.0806995
0.0807036
0.0806975
0.0806965
0.0806801
0.0806726
0.0806478
0.0806317
0.0806004
0.0805739
0.0805364
0.0805007
0.0804549
0.0804109
0.0803563
0.0803034
0.080241
0.080176
0.0801109
0.0800256
0.0799683
0.0798476
0.0798128
0.0796436
0.0819185
0.0819232
0.0819172
0.0819174
0.0819016
0.0818958
0.0818722
0.0818583
0.0818288
0.0818051
0.0817698
0.0817376
0.0816946
0.0816547
0.0816036
0.0815553
0.0814973
0.081438
0.0813772
0.0812981
0.0812467
0.0811352
0.0811026
0.0809472
0.0831225
0.0831275
0.0831214
0.0831232
0.0831076
0.083104
0.0830811
0.0830701
0.0830415
0.0830218
0.0829876
0.0829603
0.0829187
0.0828846
0.0828354
0.0827931
0.0827386
0.0826853
0.0826302
0.0825563
0.0825094
0.0824081
0.0823777
0.0822359
0.0843068
0.0843122
0.0843063
0.0843093
0.0842941
0.0842927
0.0842703
0.0842624
0.0842346
0.084219
0.0841855
0.0841636
0.0841227
0.0840953
0.084047
0.0840124
0.0839597
0.0839128
0.0838616
0.0837958
0.0837523
0.0836607
0.0836326
0.0835042
0.0854681
0.0854737
0.0854686
0.0854716
0.0854585
0.0854569
0.0854378
0.0854298
0.0854062
0.0853908
0.0853624
0.0853412
0.0853057
0.08528
0.0852371
0.0852058
0.0851578
0.0851172
0.0850687
0.0850109
0.0849704
0.084889
0.0848633
0.0847475
0.0866035
0.0866093
0.0866049
0.0866082
0.0865964
0.0865957
0.0865786
0.0865718
0.086551
0.0865369
0.0865124
0.0864925
0.086462
0.0864379
0.0864007
0.0863718
0.0863293
0.0862931
0.0862485
0.0861997
0.0861612
0.0860892
0.0860657
0.0859623
0.0877111
0.0877166
0.0877128
0.0877166
0.0877059
0.0877062
0.0876907
0.0876854
0.0876669
0.0876546
0.0876332
0.0876154
0.0875888
0.0875672
0.0875345
0.0875088
0.087471
0.0874395
0.0873986
0.0873578
0.0873219
0.0872587
0.0872373
0.0871458
0.0887885
0.0887939
0.0887905
0.088795
0.0887851
0.0887865
0.0887724
0.0887687
0.0887522
0.0887419
0.088723
0.0887077
0.0886844
0.0886656
0.0886369
0.0886147
0.0885812
0.088554
0.0885174
0.0884826
0.0884492
0.0883958
0.0883759
0.0882961
0.0898341
0.0898397
0.0898367
0.0898416
0.0898327
0.089835
0.0898223
0.08982
0.0898054
0.089797
0.0897806
0.0897676
0.0897474
0.0897313
0.0897063
0.0896873
0.0896581
0.089635
0.089603
0.0895739
0.089542
0.0894989
0.0894795
0.0894113
0.0908474
0.0908529
0.0908501
0.0908557
0.0908472
0.090851
0.0908389
0.0908385
0.0908254
0.0908189
0.0908048
0.090794
0.0907766
0.0907633
0.0907416
0.0907259
0.0907003
0.0906814
0.090653
0.090629
0.090601
0.0905652
0.0905481
0.09049
0.0918271
0.0918325
0.0918304
0.0918357
0.0918289
0.0918323
0.0918227
0.0918226
0.0918117
0.0918066
0.0917948
0.0917861
0.0917714
0.0917606
0.0917421
0.0917293
0.0917075
0.0916918
0.0916677
0.0916481
0.0916236
0.0915952
0.09158
0.0915312
0.0927729
0.0927785
0.0927757
0.0927832
0.0927746
0.0927817
0.0927703
0.0927737
0.0927628
0.0927603
0.0927499
0.0927434
0.0927311
0.0927227
0.0927072
0.0926973
0.0926787
0.0926669
0.092646
0.0926307
0.0926098
0.0925881
0.0925735
0.0925341
0.0936845
0.0936895
0.0936886
0.0936933
0.0936898
0.0936924
0.0936871
0.0936874
0.0936809
0.093678
0.0936705
0.0936654
0.0936555
0.0936494
0.0936366
0.0936294
0.0936139
0.093605
0.0935878
0.0935767
0.0935591
0.0935424
0.0935296
0.0934989
0.0945618
0.0945674
0.0945643
0.0945738
0.0945644
0.0945753
0.0945633
0.0945712
0.0945611
0.0945628
0.0945551
0.0945527
0.0945445
0.0945406
0.0945303
0.0945255
0.0945129
0.0945073
0.094493
0.0944853
0.0944712
0.0944591
0.0944479
0.0944255
0.0954049
0.0954094
0.09541
0.0954132
0.0954136
0.0954142
0.095414
0.0954133
0.0954116
0.0954098
0.0954065
0.0954042
0.0953986
0.0953964
0.0953885
0.0953861
0.0953759
0.095373
0.0953616
0.0953575
0.0953459
0.0953382
0.0953294
0.095314
0.0962141
0.0962195
0.0962167
0.0962268
0.096218
0.0962307
0.0962194
0.0962302
0.0962213
0.0962265
0.096221
0.0962222
0.0962174
0.0962173
0.0962115
0.096211
0.0962036
0.0962031
0.0961944
0.0961932
0.0961845
0.0961806
0.0961738
0.0961649
0.0969899
0.0969939
0.0969953
0.0969983
0.0970001
0.0970011
0.0970033
0.097003
0.0970047
0.0970041
0.0970042
0.0970044
0.0970024
0.0970035
0.0969997
0.0970014
0.0969958
0.096998
0.0969916
0.0969934
0.096987
0.0969869
0.0969827
0.0969786
0.0977326
0.0977376
0.0977359
0.0977445
0.0977392
0.0977497
0.0977427
0.0977527
0.097747
0.0977536
0.0977508
0.0977546
0.0977528
0.0977559
0.0977538
0.0977571
0.0977539
0.097758
0.0977538
0.0977583
0.0977543
0.0977576
0.0977552
0.097756
0.0984434
0.0984471
0.0984484
0.0984525
0.0984535
0.0984572
0.0984587
0.0984612
0.0984637
0.0984654
0.0984675
0.0984702
0.0984709
0.0984748
0.0984744
0.0984794
0.0984778
0.098484
0.0984818
0.0984888
0.0984864
0.0984931
0.0984924
0.0984975
0.0991222
0.0991265
0.0991265
0.0991326
0.0991317
0.0991383
0.0991371
0.0991438
0.0991433
0.0991491
0.0991496
0.0991549
0.0991559
0.0991615
0.0991624
0.0991688
0.0991689
0.0991769
0.0991762
0.0991853
0.0991849
0.0991944
0.0991947
0.0992042
0.0997708
0.0997742
0.0997755
0.0997802
0.0997808
0.0997865
0.0997872
0.0997927
0.0997946
0.0997994
0.099802
0.0998074
0.0998099
0.0998164
0.0998185
0.0998263
0.0998277
0.0998371
0.0998383
0.0998494
0.0998501
0.0998623
0.0998637
0.0998768
0.100389
0.100393
0.100394
0.100399
0.1004
0.100405
0.100407
0.100412
0.100415
0.10042
0.100424
0.10043
0.100433
0.100441
0.100444
0.100453
0.100455
0.100467
0.100468
0.100482
0.100484
0.100498
0.1005
0.100517
0.100979
0.100982
0.100984
0.100988
0.10099
0.100995
0.100997
0.101003
0.101006
0.101012
0.101016
0.101023
0.101027
0.101035
0.10104
0.101049
0.101053
0.101065
0.101069
0.101083
0.101086
0.101103
0.101106
0.101125
0.101541
0.101544
0.101545
0.10155
0.101551
0.101557
0.10156
0.101565
0.10157
0.101575
0.10158
0.101587
0.101592
0.101601
0.101606
0.101617
0.101622
0.101635
0.101639
0.101655
0.101659
0.101678
0.101681
0.101703
0.102076
0.102078
0.102081
0.102083
0.102088
0.10209
0.102096
0.1021
0.102105
0.102112
0.102117
0.102125
0.10213
0.10214
0.102146
0.102157
0.102163
0.102177
0.102182
0.102199
0.102204
0.102224
0.102227
0.102252
0.102585
0.102587
0.102589
0.102593
0.102595
0.102601
0.102604
0.10261
0.102615
0.102622
0.102627
0.102636
0.102642
0.102652
0.102658
0.102671
0.102677
0.102692
0.102698
0.102716
0.102721
0.102743
0.102747
0.102773
0.103069
0.103071
0.103073
0.103076
0.10308
0.103084
0.103089
0.103094
0.1031
0.103106
0.103113
0.103121
0.103128
0.103139
0.103146
0.103158
0.103165
0.103181
0.103187
0.103206
0.103212
0.103235
0.103241
0.103266
0.103529
0.103531
0.103534
0.103536
0.103541
0.103544
0.103549
0.103555
0.10356
0.103568
0.103573
0.103583
0.10359
0.103601
0.103608
0.103622
0.103629
0.103645
0.103653
0.103672
0.103678
0.103702
0.103708
0.103736
0.103966
0.103969
0.10397
0.103975
0.103976
0.103983
0.103985
0.103993
0.103998
0.104005
0.104012
0.104021
0.104028
0.10404
0.104048
0.104062
0.104069
0.104086
0.104094
0.104114
0.104121
0.104146
0.104152
0.10418
0.104382
0.104383
0.104387
0.104387
0.104394
0.104395
0.104403
0.104406
0.104414
0.104421
0.104428
0.104437
0.104445
0.104457
0.104465
0.104479
0.104487
0.104505
0.104513
0.104533
0.10454
0.104566
0.104572
0.104603
0.104776
0.104778
0.104779
0.104785
0.104785
0.104793
0.104794
0.104804
0.104806
0.104817
0.104822
0.104833
0.10484
0.104852
0.104861
0.104875
0.104883
0.104901
0.10491
0.104931
0.104938
0.104964
0.104971
0.105002
0.105151
0.105152
0.105155
0.105156
0.105163
0.105163
0.105172
0.105174
0.105184
0.105189
0.105198
0.105207
0.105215
0.105227
0.105236
0.105251
0.105259
0.105277
0.105286
0.105308
0.105315
0.105342
0.105348
0.105381
0.105506
0.105508
0.105508
0.105514
0.105514
0.105523
0.105523
0.105534
0.105535
0.105547
0.105552
0.105563
0.10557
0.105583
0.105592
0.105607
0.105615
0.105634
0.105642
0.105664
0.105673
0.105699
0.105706
0.105739
0.105843
0.105844
0.105848
0.105847
0.105855
0.105855
0.105865
0.105866
0.105876
0.105881
0.10589
0.1059
0.105908
0.10592
0.105929
0.105944
0.105953
0.105972
0.10598
0.106003