/*--------------------------------*- C++ -*----------------------------------*\
  =========                 |
  \\      /  F ield         | OpenFOAM: The Open Source CFD Toolbox
   \\    /   O peration     | Website:  https://openfoam.org
    \\  /    A nd           | Version:  10
     \\/     M anipulation  |
\*---------------------------------------------------------------------------*/
FoamFile
{
    format      ascii;
    class       volScalarField;
    location    "0.48";
    object      T;
}
// * * * * * * * * * * * * * * * * * * * * * * * * * * * * * * * * * * * * * //

dimensions      [0 0 0 1 0 0 0];

internalField   nonuniform List<scalar> 
4176
(
180.347
180.351
180.373
180.382
180.426
180.445
180.507
180.538
180.613
180.66
180.75
180.809
180.913
180.986
181.101
181.191
181.307
181.429
181.534
181.702
181.778
182.011
182.025
182.326
180.356
180.36
180.382
180.392
180.436
180.457
180.519
180.552
180.628
180.677
180.767
180.829
180.935
181.01
181.128
181.22
181.34
181.464
181.572
181.743
181.819
182.062
182.08
182.41
180.384
180.389
180.41
180.42
180.462
180.483
180.543
180.576
180.649
180.698
180.785
180.846
180.95
181.023
181.139
181.228
181.347
181.467
181.573
181.739
181.811
182.049
182.067
182.408
180.436
180.44
180.461
180.471
180.514
180.534
180.594
180.627
180.7
180.749
180.837
180.897
181.001
181.073
181.191
181.279
181.399
181.522
181.622
181.794
181.863
182.097
182.113
182.439
180.511
180.515
180.536
180.546
180.588
180.608
180.667
180.699
180.772
180.82
180.907
180.966
181.07
181.14
181.258
181.343
181.465
181.585
181.684
181.856
181.924
182.156
182.172
182.487
180.61
180.614
180.635
180.645
180.687
180.706
180.765
180.797
180.869
180.917
181.003
181.062
181.164
181.234
181.351
181.435
181.559
181.673
181.777
181.944
182.014
182.244
182.262
182.578
180.733
180.737
180.758
180.767
180.809
180.828
180.886
180.918
180.989
181.036
181.121
181.18
181.281
181.35
181.466
181.548
181.672
181.781
181.89
182.051
182.123
182.349
182.37
182.684
180.88
180.884
180.904
180.914
180.955
180.974
181.031
181.063
181.133
181.18
181.263
181.321
181.421
181.489
181.604
181.685
181.809
181.914
182.025
182.18
182.255
182.477
182.499
182.809
181.051
181.055
181.075
181.084
181.125
181.143
181.2
181.231
181.3
181.347
181.429
181.486
181.585
181.652
181.765
181.844
181.968
182.069
182.182
182.332
182.409
182.626
182.65
182.955
181.245
181.249
181.269
181.278
181.318
181.336
181.393
181.423
181.491
181.537
181.618
181.674
181.772
181.837
181.949
182.027
182.149
182.248
182.361
182.506
182.586
182.796
182.822
183.122
181.463
181.467
181.487
181.496
181.536
181.553
181.609
181.638
181.706
181.751
181.83
181.886
181.982
182.046
182.156
182.232
182.354
182.449
182.563
182.703
182.783
182.99
183.015
183.311
181.705
181.709
181.729
181.737
181.776
181.794
181.848
181.877
181.944
181.988
182.066
182.121
182.215
182.278
182.387
182.461
182.581
182.673
182.787
182.921
183.003
183.204
183.231
183.52
181.971
181.975
181.994
182.002
182.041
182.058
182.112
182.14
182.205
182.248
182.325
182.379
182.471
182.533
182.64
182.712
182.83
182.92
183.034
183.163
183.246
183.44
183.468
183.751
182.26
182.264
182.283
182.291
182.329
182.345
182.399
182.426
182.49
182.532
182.608
182.66
182.751
182.811
182.916
182.986
183.103
183.189
183.303
183.427
183.51
183.699
183.726
184.004
182.573
182.577
182.596
182.603
182.641
182.656
182.709
182.735
182.798
182.839
182.914
182.964
183.054
183.112
183.215
183.283
183.398
183.481
183.594
183.713
183.797
183.979
184.007
184.278
182.91
182.914
182.932
182.939
182.977
182.991
183.043
183.068
183.13
183.17
183.243
183.292
183.379
183.436
183.537
183.603
183.715
183.796
183.907
184.021
184.105
184.282
184.309
184.574
183.271
183.274
183.293
183.299
183.336
183.349
183.4
183.425
183.485
183.523
183.595
183.642
183.728
183.782
183.881
183.945
184.055
184.133
184.242
184.352
184.436
184.605
184.634
184.892
183.655
183.659
183.676
183.683
183.719
183.732
183.781
183.804
183.864
183.901
183.97
184.016
184.099
184.152
184.248
184.31
184.418
184.493
184.6
184.705
184.788
184.952
184.98
185.231
184.063
184.067
184.084
184.09
184.125
184.137
184.186
184.208
184.266
184.301
184.369
184.413
184.494
184.545
184.638
184.698
184.803
184.875
184.98
185.08
185.163
185.319
185.348
185.592
184.495
184.498
184.515
184.52
184.555
184.566
184.614
184.635
184.691
184.725
184.791
184.833
184.912
184.96
185.051
185.108
185.211
185.279
185.382
185.477
185.559
185.71
185.738
185.974
184.95
184.953
184.97
184.975
185.009
185.019
185.066
185.085
185.14
185.172
185.236
185.276
185.352
185.398
185.487
185.541
185.641
185.706
185.806
185.896
185.978
186.121
186.149
186.379
185.429
185.432
185.449
185.453
185.486
185.495
185.541
185.558
185.612
185.642
185.704
185.742
185.816
185.859
185.945
185.996
186.093
186.155
186.252
186.338
186.418
186.555
186.583
186.804
185.932
185.935
185.951
185.954
185.987
185.995
186.039
186.055
186.107
186.135
186.195
186.231
186.302
186.343
186.427
186.474
186.568
186.627
186.72
186.802
186.88
187.01
187.038
187.252
186.458
186.461
186.477
186.479
186.511
186.518
186.561
186.576
186.625
186.652
186.709
186.743
186.812
186.85
186.931
186.975
187.066
187.12
187.211
187.288
187.365
187.488
187.514
187.721
187.008
187.011
187.026
187.028
187.058
187.064
187.106
187.119
187.167
187.192
187.247
187.278
187.344
187.38
187.457
187.498
187.586
187.637
187.724
187.797
187.871
187.987
188.012
188.211
187.581
187.583
187.598
187.6
187.629
187.634
187.674
187.686
187.732
187.754
187.807
187.836
187.899
187.932
188.007
188.044
188.128
188.176
188.26
188.328
188.399
188.509
188.532
188.723
188.177
188.179
188.194
188.194
188.223
188.226
188.265
188.275
188.319
188.34
188.39
188.416
188.477
188.507
188.579
188.613
188.693
188.737
188.818
188.881
188.95
189.052
189.074
189.257
188.796
188.798
188.812
188.812
188.84
188.842
188.879
188.888
188.93
188.948
188.996
189.02
189.078
189.105
189.173
189.204
189.281
189.32
189.398
189.456
189.521
189.618
189.639
189.813
189.438
189.44
189.453
189.453
189.479
189.481
189.516
189.523
189.563
189.579
189.625
189.646
189.701
189.725
189.79
189.817
189.891
189.926
190
190.053
190.116
190.205
190.226
190.389
190.102
190.104
190.117
190.116
190.142
190.142
190.176
190.181
190.219
190.233
190.276
190.295
190.347
190.368
190.43
190.453
190.523
190.554
190.624
190.673
190.732
190.815
190.834
190.988
190.789
190.791
190.804
190.802
190.826
190.825
190.858
190.861
190.898
190.909
190.95
190.966
191.015
191.033
191.092
191.111
191.177
191.204
191.271
191.315
191.371
191.446
191.462
191.611
191.498
191.5
191.512
191.51
191.533
191.531
191.562
191.564
191.599
191.608
191.646
191.659
191.706
191.72
191.776
191.791
191.854
191.877
191.94
191.979
192.03
192.1
192.116
192.253
192.23
192.231
192.243
192.24
192.262
192.259
192.289
192.289
192.321
192.329
192.365
192.375
192.419
192.43
192.482
192.494
192.553
192.572
192.631
192.664
192.713
192.775
192.789
192.918
192.983
192.984
192.996
192.992
193.013
193.008
193.037
193.035
193.066
193.071
193.105
193.113
193.154
193.162
193.211
193.219
193.275
193.289
193.344
193.372
193.417
193.473
193.486
193.605
193.758
193.759
193.77
193.765
193.786
193.78
193.807
193.804
193.833
193.836
193.867
193.872
193.91
193.915
193.961
193.966
194.018
194.028
194.08
194.102
194.143
194.193
194.204
194.313
194.554
194.555
194.566
194.56
194.58
194.573
194.599
194.594
194.621
194.622
194.651
194.653
194.689
194.69
194.734
194.734
194.783
194.788
194.837
194.854
194.892
194.936
194.943
195.044
195.371
195.373
195.382
195.377
195.396
195.387
195.412
195.405
195.431
195.43
195.456
195.456
195.489
195.487
195.527
195.524
195.57
195.571
195.616
195.628
195.662
195.7
195.705
195.796
196.21
196.211
196.22
196.214
196.232
196.223
196.246
196.238
196.262
196.258
196.283
196.28
196.31
196.306
196.343
196.336
196.379
196.375
196.417
196.424
196.454
196.486
196.487
196.57
197.069
197.07
197.079
197.072
197.09
197.079
197.101
197.092
197.113
197.108
197.13
197.125
197.153
197.145
197.179
197.169
197.208
197.2
197.239
197.241
197.268
197.294
197.292
197.365
197.949
197.95
197.959
197.951
197.968
197.956
197.977
197.966
197.986
197.979
197.999
197.992
198.016
198.006
198.037
198.023
198.059
198.047
198.082
198.079
198.102
198.123
198.118
198.183
198.849
198.85
198.859
198.85
198.867
198.854
198.873
198.861
198.879
198.871
198.888
198.878
198.901
198.887
198.916
198.898
198.931
198.914
198.947
198.938
198.958
198.972
198.965
199.022
199.77
199.771
199.779
199.77
199.785
199.772
199.79
199.776
199.793
199.782
199.798
199.786
199.806
199.789
199.815
199.794
199.824
199.803
199.832
199.818
199.835
199.843
199.832
199.882
200.711
200.712
200.719
200.71
200.724
200.71
200.727
200.712
200.727
200.714
200.728
200.713
200.731
200.711
200.735
200.71
200.737
200.712
200.738
200.719
200.733
200.734
200.721
200.762
201.671
201.672
201.679
201.669
201.683
201.668
201.683
201.667
201.68
201.666
201.677
201.661
201.676
201.654
201.674
201.646
201.671
201.641
201.664
201.64
201.651
201.647
201.631
201.663
202.652
202.652
202.659
202.649
202.662
202.645
202.66
202.642
202.654
202.637
202.647
202.628
202.641
202.616
202.634
202.602
202.624
202.591
202.611
202.581
202.591
202.579
202.561
202.586
203.651
203.651
203.658
203.647
203.659
203.642
203.655
203.636
203.646
203.628
203.636
203.615
203.625
203.597
203.613
203.578
203.597
203.559
203.577
203.543
203.549
203.531
203.512
203.528
204.67
204.67
204.676
204.665
204.676
204.658
204.67
204.649
204.658
204.638
204.644
204.62
204.628
204.598
204.611
204.572
204.589
204.547
204.562
204.523
204.528
204.502
204.484
204.49
205.707
205.707
205.713
205.701
205.712
205.692
205.703
205.681
205.688
205.667
205.67
205.645
205.651
205.618
205.628
205.586
205.601
205.555
205.567
205.522
205.526
205.492
205.475
205.471
206.762
206.762
206.768
206.755
206.765
206.745
206.755
206.732
206.737
206.714
206.716
206.688
206.692
206.656
206.664
206.618
206.631
206.58
206.59
206.54
206.543
206.502
206.484
206.472
207.835
207.835
207.841
207.828
207.837
207.816
207.824
207.8
207.804
207.779
207.779
207.749
207.751
207.712
207.718
207.669
207.679
207.624
207.633
207.576
207.58
207.53
207.512
207.492
208.926
208.925
208.931
208.917
208.926
208.904
208.911
208.885
208.888
208.861
208.859
208.828
208.827
208.786
208.79
208.737
208.746
208.686
208.694
208.63
208.635
208.576
208.56
208.53
210.033
210.032
210.037
210.023
210.031
210.009
210.015
209.988
209.989
209.961
209.957
209.923
209.921
209.877
209.879
209.823
209.83
209.764
209.773
209.702
209.707
209.641
209.623
209.587
211.156
211.156
211.16
211.146
211.153
211.129
211.135
211.107
211.106
211.077
211.072
211.035
211.032
210.984
210.986
210.925
210.932
210.86
210.87
210.792
210.796
210.724
210.706
210.661
212.295
212.294
212.298
212.284
212.29
212.266
212.271
212.241
212.24
212.209
212.202
212.164
212.159
212.108
212.109
212.044
212.05
211.974
211.983
211.898
211.904
211.824
211.805
211.754
213.448
213.448
213.452
213.436
213.442
213.418
213.421
213.391
213.388
213.355
213.348
213.307
213.301
213.247
213.248
213.179
213.185
213.103
213.111
213.023
213.025
212.942
212.922
212.863
214.616
214.615
214.619
214.603
214.609
214.583
214.586
214.555
214.551
214.517
214.509
214.465
214.46
214.401
214.403
214.328
214.335
214.247
214.257
214.162
214.165
214.076
214.055
213.99
215.796
215.796
215.799
215.784
215.788
215.763
215.765
215.732
215.728
215.692
215.684
215.637
215.632
215.57
215.571
215.493
215.5
215.41
215.415
215.319
215.318
215.226
215.204
215.132
216.99
216.989
216.992
216.977
216.981
216.955
216.956
216.922
216.919
216.88
216.872
216.823
216.818
216.753
216.753
216.674
216.677
216.585
216.59
216.489
216.488
216.391
216.368
216.291
218.195
218.195
218.197
218.182
218.185
218.159
218.159
218.125
218.121
218.081
218.073
218.022
218.016
217.95
217.949
217.867
217.869
217.776
217.777
217.675
217.672
217.571
217.548
217.465
219.411
219.411
219.413
219.398
219.401
219.375
219.374
219.34
219.335
219.294
219.285
219.233
219.226
219.16
219.157
219.074
219.074
218.979
218.98
218.875
218.87
218.765
218.742
218.653
220.638
220.638
220.64
220.625
220.627
220.601
220.6
220.567
220.559
220.519
220.509
220.457
220.448
220.381
220.377
220.292
220.292
220.195
220.193
220.087
220.081
219.973
219.949
219.856
221.875
221.875
221.877
221.861
221.864
221.838
221.836
221.803
221.793
221.755
221.742
221.691
221.681
221.613
221.608
221.523
221.52
221.423
221.42
221.312
221.304
221.194
221.169
221.071
223.121
223.121
223.124
223.107
223.11
223.084
223.081
223.049
223.038
223.001
222.986
222.936
222.924
222.856
222.851
222.764
222.76
222.662
222.657
222.548
222.539
222.426
222.401
222.299
224.377
224.376
224.379
224.363
224.366
224.339
224.336
224.304
224.292
224.256
224.239
224.19
224.176
224.109
224.102
224.015
224.011
223.911
223.905
223.795
223.785
223.67
223.644
223.539
225.64
225.64
225.643
225.626
225.63
225.602
225.6
225.568
225.555
225.52
225.501
225.453
225.437
225.372
225.363
225.275
225.27
225.169
225.163
225.052
225.04
224.923
224.898
224.789
226.913
226.912
226.915
226.899
226.902
226.875
226.872
226.84
226.827
226.792
226.772
226.725
226.708
226.641
226.631
226.545
226.538
226.436
226.429
226.316
226.305
226.187
226.16
226.048
228.193
228.193
228.196
228.179
228.182
228.155
228.152
228.12
228.106
228.071
228.05
228.004
227.985
227.92
227.907
227.822
227.814
227.711
227.703
227.589
227.577
227.457
227.431
227.316
229.481
229.481
229.484
229.467
229.47
229.442
229.44
229.407
229.393
229.358
229.335
229.29
229.27
229.204
229.19
229.105
229.096
228.992
228.985
228.869
228.857
228.736
228.709
228.592
230.777
230.777
230.779
230.762
230.765
230.737
230.734
230.701
230.686
230.651
230.627
230.582
230.559
230.495
230.479
230.394
230.384
230.281
230.272
230.155
230.142
230.02
229.994
229.875
232.079
232.079
232.082
232.064
232.066
232.038
232.034
232
231.985
231.95
231.924
231.879
231.855
231.791
231.774
231.689
231.677
231.573
231.565
231.446
231.433
231.311
231.284
231.164
233.386
233.386
233.389
233.371
233.373
233.344
233.339
233.305
233.289
233.253
233.226
233.182
233.154
233.092
233.073
232.987
232.975
232.873
232.862
232.743
232.73
232.607
232.58
232.459
234.697
234.697
234.699
234.681
234.683
234.653
234.648
234.613
234.596
234.56
234.531
234.487
234.458
234.397
234.374
234.292
234.275
234.175
234.164
234.045
234.031
233.908
233.881
233.76
236.008
236.008
236.011
235.992
235.994
235.963
235.958
235.922
235.905
235.868
235.839
235.796
235.764
235.705
235.679
235.599
235.582
235.48
235.468
235.352
235.336
235.214
235.188
235.066
237.317
237.317
237.319
237.3
237.303
237.272
237.268
237.232
237.215
237.178
237.149
237.106
237.073
237.016
236.987
236.91
236.89
236.791
236.776
236.664
236.647
236.525
236.499
236.377
238.619
238.619
238.622
238.604
238.607
238.577
238.574
238.538
238.522
238.487
238.458
238.417
238.384
238.328
238.299
238.224
238.201
238.108
238.088
237.979
237.962
237.841
237.816
237.694
239.914
239.914
239.918
239.9
239.905
239.876
239.874
239.841
239.827
239.793
239.766
239.727
239.695
239.642
239.613
239.542
239.518
239.426
239.408
239.297
239.283
239.163
239.138
239.017
241.2
241.201
241.206
241.189
241.195
241.168
241.169
241.138
241.126
241.096
241.071
241.036
241.006
240.957
240.929
240.862
240.837
240.752
240.731
240.624
240.609
240.49
240.467
240.346
242.481
242.482
242.488
242.473
242.481
242.456
242.459
242.43
242.422
242.395
242.374
242.342
242.316
242.271
242.246
242.184
242.161
242.079
242.06
241.958
241.943
241.824
241.802
241.68
243.762
243.764
243.771
243.756
243.766
243.743
243.748
243.722
243.717
243.693
243.675
243.647
243.624
243.584
243.563
243.505
243.487
243.41
243.395
243.293
243.283
243.165
243.145
243.023
245.053
245.055
245.062
245.049
245.058
245.037
245.043
245.02
245.015
244.994
244.978
244.954
244.934
244.897
244.881
244.824
244.814
244.735
244.731
244.631
244.628
244.512
244.496
244.376
246.364
246.367
246.373
246.36
246.37
246.348
246.354
246.331
246.326
246.306
246.29
246.267
246.247
246.213
246.2
246.143
246.141
246.059
246.066
245.963
245.969
245.857
245.847
245.736
247.708
247.71
247.717
247.702
247.711
247.687
247.692
247.666
247.66
247.637
247.62
247.595
247.574
247.541
247.523
247.47
247.465
247.385
247.395
247.293
247.304
247.192
247.19
247.084
249.094
249.096
249.101
249.085
249.092
249.066
249.068
249.038
249.028
249
248.979
248.95
248.923
248.887
248.862
248.81
248.796
248.721
248.723
248.622
248.634
248.52
248.522
248.415
250.529
250.53
250.534
250.516
250.521
250.491
250.489
250.454
250.439
250.406
250.377
250.341
250.307
250.264
250.229
250.173
250.148
250.07
250.063
249.956
249.968
249.844
249.85
249.735
252.013
252.015
252.018
251.998
252
251.967
251.96
251.921
251.899
251.861
251.823
251.781
251.736
251.684
251.638
251.571
251.535
251.443
251.43
251.308
251.314
251.178
251.183
251.054
253.546
253.547
253.549
253.528
253.528
253.492
253.481
253.438
253.411
253.367
253.322
253.272
253.218
253.157
253.098
253.022
252.969
252.866
252.835
252.698
252.69
252.533
252.534
252.381
255.118
255.12
255.122
255.098
255.098
255.059
255.047
255
254.971
254.92
254.872
254.815
254.755
254.685
254.617
254.532
254.46
254.352
254.296
254.149
254.117
253.937
253.923
253.735
256.721
256.722
256.724
256.7
256.699
256.659
256.646
256.597
256.566
256.514
256.463
256.403
256.339
256.264
256.19
256.1
256.017
255.907
255.823
255.68
255.613
255.422
255.383
255.148
258.342
258.342
258.345
258.321
258.32
258.28
258.267
258.218
258.187
258.135
258.084
258.023
257.957
257.883
257.806
257.715
257.627
257.517
257.424
257.282
257.191
257.006
256.94
256.669
259.968
259.969
259.972
259.948
259.948
259.909
259.897
259.849
259.819
259.768
259.718
259.659
259.595
259.523
259.448
259.359
259.273
259.165
259.072
258.935
258.844
258.663
258.594
258.326
261.589
261.59
261.594
261.571
261.572
261.534
261.524
261.478
261.45
261.401
261.353
261.298
261.236
261.168
261.096
261.013
260.93
260.828
260.741
260.609
260.528
260.353
260.295
260.051
263.196
263.197
263.201
263.179
263.181
263.145
263.137
263.093
263.067
263.022
262.977
262.926
262.868
262.805
262.737
262.659
262.582
262.488
262.405
262.285
262.209
262.046
261.994
261.77
264.779
264.781
264.786
264.765
264.768
264.733
264.727
264.686
264.663
264.621
264.579
264.533
264.478
264.421
264.357
264.287
264.214
264.129
264.053
263.942
263.872
263.723
263.675
263.47
266.332
266.335
266.34
266.321
266.325
266.292
266.288
266.25
266.229
266.192
266.152
266.111
266.059
266.009
265.949
265.887
265.819
265.743
265.67
265.572
265.507
265.371
265.327
265.14
267.851
267.854
267.859
267.841
267.846
267.817
267.813
267.779
267.759
267.727
267.689
267.655
267.605
267.563
267.505
267.452
267.387
267.32
267.255
267.164
267.105
266.984
266.942
266.774
269.331
269.334
269.34
269.323
269.329
269.301
269.299
269.268
269.251
269.223
269.188
269.159
269.112
269.076
269.021
268.977
268.915
268.858
268.796
268.715
268.662
268.555
268.514
268.365
270.769
270.771
270.778
270.761
270.77
270.742
270.744
270.714
270.701
270.674
270.644
270.617
270.576
270.544
270.495
270.456
270.4
270.351
270.292
270.223
270.174
270.08
270.041
269.91
272.161
272.164
272.172
272.156
272.166
272.139
272.144
272.115
272.105
272.081
272.055
272.031
271.995
271.966
271.923
271.888
271.838
271.796
271.742
271.685
271.637
271.556
271.519
271.405
273.508
273.511
273.519
273.504
273.515
273.49
273.496
273.469
273.463
273.44
273.419
273.397
273.366
273.341
273.303
273.273
273.228
273.192
273.143
273.097
273.049
272.981
272.947
272.848
274.808
274.811
274.82
274.805
274.817
274.793
274.801
274.776
274.772
274.752
274.734
274.715
274.688
274.667
274.633
274.608
274.568
274.538
274.493
274.455
274.412
274.354
274.323
274.239
276.06
276.063
276.072
276.057
276.072
276.048
276.059
276.035
276.033
276.016
276
275.985
275.961
275.943
275.914
275.893
275.858
275.833
275.793
275.763
275.72
275.677
275.646
275.576
277.264
277.267
277.276
277.263
277.277
277.255
277.267
277.245
277.245
277.23
277.217
277.205
277.184
277.17
277.144
277.128
277.096
277.078
277.041
277.018
276.98
276.947
276.915
276.859
278.42
278.423
278.433
278.419
278.436
278.414
278.427
278.407
278.409
278.396
278.386
278.375
278.358
278.347
278.325
278.312
278.285
278.27
278.239
278.221
278.186
278.162
278.135
278.088
279.529
279.532
279.541
279.53
279.544
279.526
279.539
279.521
279.524
279.514
279.505
279.498
279.483
279.475
279.456
279.447
279.423
279.414
279.385
279.373
279.343
279.326
279.3
279.264
280.591
280.593
280.605
280.59
280.61
280.588
280.606
280.586
280.593
280.583
280.577
280.572
280.56
280.555
280.538
280.533
280.512
280.507
280.482
280.476
280.447
280.438
280.413
280.387
281.607
281.61
281.617
281.611
281.621
281.612
281.619
281.61
281.612
281.607
281.601
281.599
281.589
281.586
281.573
281.57
281.553
281.551
281.53
281.527
281.503
281.499
281.476
281.459
282.578
282.579
282.591
282.578
282.598
282.578
282.597
282.58
282.59
282.582
282.581
282.579
282.572
282.571
282.56
282.561
282.546
282.548
282.529
282.532
282.509
282.511
282.491
282.482
283.504
283.507
283.514
283.51
283.519
283.513
283.52
283.515
283.518
283.517
283.514
283.516
283.509
283.511
283.502
283.505
283.494
283.498
283.482
283.488
283.469
283.476
283.457
283.456
284.389
284.39
284.399
284.393
284.404
284.396
284.408
284.4
284.407
284.405
284.405
284.407
284.403
284.407
284.4
284.406
284.396
284.403
284.39
284.399
284.382
284.394
284.377
284.382
285.23
285.233
285.241
285.234
285.249
285.238
285.252
285.245
285.252
285.252
285.253
285.257
285.254
285.259
285.255
285.262
285.255
285.264
285.253
285.266
285.252
285.267
285.251
285.263
286.033
286.036
286.04
286.042
286.044
286.049
286.048
286.055
286.054
286.06
286.059
286.065
286.064
286.071
286.067
286.077
286.071
286.083
286.074
286.09
286.077
286.096
286.082
286.098
286.795
286.798
286.806
286.799
286.816
286.803
286.822
286.812
286.825
286.823
286.828
286.833
286.834
286.842
286.84
286.851
286.847
286.862
286.854
286.872
286.861
286.883
286.87
286.891
287.522
287.525
287.527
287.533
287.531
287.542
287.536
287.55
287.545
287.557
287.555
287.565
287.565
287.575
287.574
287.587
287.584
287.599
287.595
287.614
287.605
287.629
287.619
287.643
288.211
288.213
288.22
288.217
288.228
288.223
288.237
288.232
288.244
288.244
288.251
288.257
288.26
288.27
288.271
288.285
288.284
288.301
288.296
288.319
288.311
288.338
288.326
288.355
288.866
288.87
288.872
288.876
288.878
288.885
288.885
288.896
288.894
288.906
288.906
288.917
288.919
288.931
288.932
288.947
288.947
288.965
288.963
288.986
288.98
289.008
288.998
289.03
289.489
289.491
289.495
289.497
289.501
289.506
289.511
289.515
289.521
289.527
289.533
289.541
289.546
289.557
289.56
289.575
289.577
289.597
289.594
289.62
289.613
289.644
289.637
289.667
290.079
290.082
290.084
290.088
290.092
290.096
290.101
290.107
290.111
290.12
290.124
290.134
290.139
290.152
290.155
290.171
290.173
290.194
290.193
290.219
290.215
290.246
290.239
290.272
290.639
290.642
290.645
290.648
290.652
290.657
290.661
290.668
290.671
290.682
290.686
290.697
290.702
290.715
290.719
290.736
290.739
290.76
290.76
290.787
290.783
290.815
290.807
290.847
291.171
291.174
291.174
291.182
291.181
291.19
291.192
291.2
291.205
291.212
291.219
291.229
291.236
291.249
291.254
291.271
291.275
291.296
291.297
291.325
291.322
291.355
291.348
291.387
291.675
291.676
291.682
291.68
291.691
291.688
291.7
291.701
291.709
291.717
291.724
291.735
291.741
291.755
291.76
291.778
291.782
291.804
291.806
291.834
291.832
291.866
291.859
291.901
292.152
292.156
292.154
292.165
292.159
292.175
292.169
292.185
292.184
292.197
292.201
292.213
292.22
292.234
292.24
292.258
292.263
292.285
292.287
292.316
292.315
292.349
292.344
292.385
292.605
292.606
292.612
292.609
292.622
292.616
292.633
292.628
292.643
292.646
292.657
292.666
292.674
292.688
292.694
292.712
292.718
292.741
292.743
292.772
292.771
292.807
292.8
292.845
293.034
293.037
293.036
293.046
293.04
293.057
293.049
293.068
293.063
293.081
293.082
293.097
293.103
293.118
293.124
293.143
293.149
293.171
293.175
293.204
293.203
293.24
293.234
293.277
293.441
293.441
293.448
293.443
293.457
293.45
293.469
293.462
293.48
293.48
293.493
293.501
293.51
293.524
293.531
293.55
293.556
293.579
293.583
293.612
293.611
293.649
293.642
293.688
293.825
293.829
293.825
293.838
293.829
293.849
293.839
293.86
293.854
293.872
293.874
293.888
293.894
293.91
293.916
293.935
293.942
293.965
293.969
293.998
293.998
294.035
294.031
294.073
294.19
294.189
294.199
294.189
294.21
294.196
294.22
294.21
294.229
294.229
294.242
294.251
294.26
294.274
294.281
294.3
294.306
294.329
294.334
294.363
294.363
294.4
294.394
294.44
294.534
294.539
294.533
294.551
294.535
294.562
294.545
294.571
294.562
294.582
294.583
294.598
294.604
294.619
294.626
294.645
294.652
294.675
294.679
294.708
294.71
294.745
294.741
294.784
294.863
294.86
294.872
294.859
294.884
294.864
294.894
294.879
294.902
294.9
294.914
294.922
294.931
294.945
294.953
294.971
294.978
295.001
295.006
295.035
295.037
295.07
295.067
295.11
295.171
295.176
295.169
295.187
295.171
295.198
295.18
295.208
295.197
295.218
295.218
295.234
295.239
295.254
295.262
295.28
295.287
295.31
295.315
295.343
295.346
295.379
295.375
295.419
295.466
295.463
295.473
295.463
295.484
295.469
295.494
295.482
295.504
295.501
295.516
295.523
295.533
295.546
295.555
295.573
295.579
295.602
295.607
295.635
295.637
295.672
295.668
295.71
295.742
295.746
295.741
295.755
295.744
295.765
295.753
295.775
295.769
295.787
295.788
295.803
295.808
295.823
295.832
295.849
295.856
295.879
295.883
295.911
295.913
295.948
295.944
295.986
296.006
296.004
296.012
296.005
296.021
296.012
296.031
296.025
296.041
296.043
296.054
296.063
296.071
296.085
296.093
296.111
296.117
296.139
296.145
296.173
296.174
296.209
296.205
296.247
296.253
296.257
296.253
296.265
296.256
296.274
296.266
296.283
296.281
296.295
296.299
296.312
296.319
296.333
296.341
296.359
296.365
296.388
296.392
296.42
296.423
296.455
296.452
296.493
296.49
296.489
296.495
296.491
296.503
296.497
296.512
296.51
296.522
296.527
296.536
296.546
296.554
296.567
296.575
296.593
296.599
296.621
296.626
296.654
296.658
296.687
296.685
296.726
296.712
296.714
296.713
296.72
296.717
296.728
296.726
296.739
296.74
296.752
296.756
296.769
296.775
296.789
296.797
296.815
296.82
296.843
296.848
296.873
296.875
296.911
296.906
296.946
296.923
296.924
296.926
296.927
296.932
296.934
296.941
296.945
296.953
296.96
296.968
296.978
296.986
296.999
297.007
297.024
297.03
297.052
297.057
297.083
297.085
297.118
297.115
297.154
297.123
297.124
297.125
297.128
297.13
297.136
297.139
297.146
297.151
297.16
297.166
297.178
297.184
297.198
297.205
297.222
297.228
297.25
297.255
297.28
297.282
297.316
297.312
297.351
297.312
297.312
297.314
297.316
297.32
297.324
297.328
297.335
297.34
297.349
297.354
297.366
297.372
297.386
297.393
297.41
297.416
297.437
297.44
297.468
297.47
297.5
297.499
297.536
297.49
297.491
297.492
297.496
297.497
297.504
297.505
297.514
297.518
297.527
297.532
297.544
297.549
297.564
297.571
297.587
297.593
297.614
297.618
297.643
297.644
297.679
297.674
297.712
297.659
297.66
297.662
297.664
297.668
297.67
297.676
297.681
297.687
297.695
297.701
297.712
297.718
297.732
297.738
297.755
297.76
297.782
297.786
297.81
297.813
297.842
297.842
297.876
297.819
297.82
297.821
297.825
297.826
297.832
297.834
297.842
297.845
297.855
297.859
297.872
297.876
297.891
297.897
297.914
297.918
297.94
297.943
297.969
297.969
298
297.998
298.033
297.971
297.972
297.972
297.976
297.977
297.983
297.985
297.993
297.997
298.005
298.01
298.022
298.027
298.041
298.047
298.064
298.068
298.09
298.092
298.118
298.119
298.148
298.147
298.181
298.114
298.114
298.116
298.118
298.122
298.124
298.129
298.134
298.14
298.147
298.153
298.164
298.169
298.183
298.189
298.205
298.21
298.23
298.232
298.259
298.259
298.289
298.287
298.321
298.249
298.25
298.249
298.255
298.253
298.263
298.261
298.272
298.272
298.284
298.287
298.299
298.303
298.318
298.323
298.339
298.343
298.365
298.367
298.39
298.393
298.421
298.42
298.452
298.377
298.377
298.38
298.379
298.386
298.384
298.394
298.395
298.403
298.409
298.415
298.425
298.43
298.445
298.448
298.466
298.469
298.49
298.491
298.518
298.517
298.546
298.545
298.577
298.497
298.499
298.497
298.505
298.499
298.513
298.506
298.522
298.518
298.532
298.533
298.547
298.55
298.564
298.568
298.585
298.588
298.61
298.611
298.635
298.637
298.664
298.663
298.694
298.612
298.611
298.615
298.612
298.622
298.617
298.629
298.628
298.638
298.642
298.649
298.658
298.663
298.677
298.68
298.698
298.702
298.72
298.724
298.747
298.747
298.776
298.774
298.805
298.718
298.721
298.718
298.727
298.72
298.735
298.727
298.743
298.739
298.753
298.753
298.767
298.769
298.784
298.787
298.804
298.806
298.828
298.829
298.853
298.853
298.881
298.88
298.909
298.82
298.819
298.824
298.821
298.83
298.827
298.837
298.837
298.845
298.85
298.856
298.866
298.87
298.884
298.887
298.905
298.907
298.927
298.929
298.952
298.953
298.979
298.978
299.008
298.915
298.917
298.915
298.922
298.918
298.93
298.925
298.938
298.936
298.948
298.949
298.962
298.965
298.979
298.982
298.999
299.001
299.021
299.023
299.046
299.046
299.073
299.072
299.1
299.006
299.005
299.009
299.008
299.014
299.014
299.02
299.023
299.029
299.035
299.04
299.051
299.054
299.069
299.071
299.088
299.09
299.109
299.111
299.135
299.135
299.16
299.16
299.187
299.09
299.091
299.092
299.094
299.096
299.1
299.103
299.109
299.112
299.121
299.124
299.135
299.138
299.152
299.154
299.171
299.174
299.193
299.194
299.217
299.216
299.243
299.241
299.27
299.17
299.17
299.171
299.174
299.174
299.181
299.181
299.19
299.19
299.2
299.202
299.214
299.217
299.231
299.232
299.249
299.252
299.271
299.273
299.294
299.296
299.319
299.32
299.346
299.244
299.244
299.248
299.245
299.254
299.249
299.261
299.259
299.268
299.272
299.278
299.287
299.291
299.305
299.306
299.322
299.326
299.345
299.345
299.368
299.367
299.394
299.391
299.419
299.314
299.316
299.313
299.323
299.314
299.331
299.32
299.337
299.331
299.346
299.345
299.358
299.36
299.374
299.375
299.392
299.394
299.413
299.414
299.435
299.437
299.46
299.46
299.485
299.38
299.378