/*--------------------------------*- C++ -*----------------------------------*\
  =========                 |
  \\      /  F ield         | OpenFOAM: The Open Source CFD Toolbox
   \\    /   O peration     | Website:  https://openfoam.org
    \\  /    A nd           | Version:  10
     \\/     M anipulation  |
\*---------------------------------------------------------------------------*/
FoamFile
{
    format      ascii;
    class       volVectorField;
    location    "0.48";
    object      U;
}
// * * * * * * * * * * * * * * * * * * * * * * * * * * * * * * * * * * * * * //

dimensions      [0 1 -1 0 0 0 0];

internalField   nonuniform List<vector> 
4176
(
(497.488 -0.0140301 -7.24596e-09)
(497.474 0.0636724 2.09337e-09)
(497.449 0.00164033 -7.17495e-10)
(497.4 0.0903518 -7.2528e-11)
(497.346 0.0511815 -2.22942e-10)
(497.272 0.0894809 -5.66915e-10)
(497.181 0.125979 -2.41695e-10)
(497.088 0.0604556 4.50646e-10)
(496.954 0.225348 8.04085e-10)
(496.849 0.00479577 7.20145e-10)
(496.672 0.344452 4.25897e-10)
(496.549 -0.069107 2.88345e-10)
(496.339 0.469891 5.13344e-11)
(496.192 -0.139462 -2.92313e-10)
(495.956 0.567897 -4.11598e-10)
(495.773 -0.135595 -2.54396e-10)
(495.536 0.52849 -1.94418e-10)
(495.286 0.0236289 -1.37146e-11)
(495.073 0.334836 2.93506e-10)
(494.73 0.323023 1.6218e-10)
(494.576 -0.0167403 -1.29901e-10)
(494.097 0.771638 -1.24254e-10)
(494.068 -0.516509 1.84696e-10)
(493.443 1.44257 3.21571e-10)
(497.47 0.00503348 -7.24449e-09)
(497.455 0.114496 2.09359e-09)
(497.43 0.0766813 -7.17681e-10)
(497.379 0.203258 -7.33317e-11)
(497.325 0.186434 -2.22816e-10)
(497.247 0.264199 -5.66443e-10)
(497.156 0.32188 -2.42261e-10)
(497.059 0.295547 4.50722e-10)
(496.924 0.482298 8.04678e-10)
(496.814 0.297915 7.20172e-10)
(496.636 0.662959 4.25304e-10)
(496.508 0.278708 2.88232e-10)
(496.293 0.850462 4.97815e-11)
(496.142 0.258424 -2.9214e-10)
(495.9 1.01259 -4.11353e-10)
(495.713 0.302085 -2.5392e-10)
(495.47 1.04225 -1.95623e-10)
(495.215 0.510682 -1.38552e-11)
(494.996 0.914405 2.92466e-10)
(494.646 0.855159 1.61792e-10)
(494.491 0.628536 -1.29825e-10)
(493.992 1.33096 -1.26566e-10)
(493.957 0.125187 1.85461e-10)
(493.269 1.99265 3.21224e-10)
(497.413 0.0233801 -7.24792e-09)
(497.399 0.161145 2.0928e-09)
(497.375 0.147852 -7.19794e-10)
(497.324 0.307592 -7.24128e-11)
(497.273 0.314033 -2.23118e-10)
(497.195 0.426388 -5.67072e-10)
(497.108 0.505999 -2.39405e-10)
(497.011 0.514776 4.52583e-10)
(496.882 0.72301 8.0663e-10)
(496.772 0.57257 7.20238e-10)
(496.599 0.96073 4.24183e-10)
(496.473 0.606103 2.87347e-10)
(496.263 1.20625 5.1398e-11)
(496.116 0.634004 -2.91959e-10)
(495.877 1.4288 -4.11507e-10)
(495.697 0.713845 -2.52665e-10)
(495.454 1.52278 -1.9839e-10)
(495.209 0.965918 -1.55017e-11)
(494.993 1.45725 2.93089e-10)
(494.653 1.34381 1.61375e-10)
(494.506 1.24777 -1.30737e-10)
(494.016 1.88221 -1.23842e-10)
(493.982 0.838819 1.85809e-10)
(493.27 2.60878 3.22207e-10)
(497.309 0.0421106 -7.24637e-09)
(497.294 0.208644 2.09651e-09)
(497.271 0.22034 -7.20875e-10)
(497.22 0.413904 -6.94532e-11)
(497.168 0.443998 -2.23865e-10)
(497.091 0.591743 -5.71267e-10)
(497.004 0.693555 -2.39142e-10)
(496.907 0.738404 4.50173e-10)
(496.777 0.968217 7.99813e-10)
(496.668 0.852876 7.23516e-10)
(496.494 1.26406 4.24936e-10)
(496.37 0.940455 2.85507e-10)
(496.158 1.56892 5.29111e-11)
(496.013 1.0182 -2.93421e-10)
(495.77 1.85368 -4.18571e-10)
(495.593 1.13533 -2.53868e-10)
(495.346 2.01722 -1.96013e-10)
(495.097 1.42645 -1.59029e-11)
(494.891 2.00945 2.95377e-10)
(494.54 1.8407 1.60768e-10)
(494.398 1.85837 -1.3351e-10)
(493.915 2.42006 -1.24587e-10)
(493.887 1.52579 1.84111e-10)
(493.205 3.20554 3.12781e-10)
(497.157 0.0604383 -7.24894e-09)
(497.143 0.255161 2.10299e-09)
(497.12 0.291251 -7.17229e-10)
(497.069 0.518082 -6.9544e-11)
(497.018 0.57113 -2.20587e-10)
(496.941 0.753909 -5.65694e-10)
(496.856 0.877025 -2.40896e-10)
(496.76 0.957949 4.52474e-10)
(496.631 1.20809 8.05371e-10)
(496.524 1.12835 7.21312e-10)
(496.351 1.56084 4.24974e-10)
(496.229 1.26925 2.88309e-10)
(496.018 1.92418 4.94517e-11)
(495.876 1.39596 -2.94354e-10)
(495.633 2.27139 -4.16602e-10)
(495.461 1.55003 -2.56366e-10)
(495.211 2.51255 -1.97153e-10)
(494.966 1.86961 -1.51571e-11)
(494.764 2.55454 2.89887e-10)
(494.411 2.3386 1.66552e-10)
(494.271 2.45286 -1.2572e-10)
(493.793 2.94589 -1.21618e-10)
(493.764 2.16841 1.87767e-10)
(493.102 3.76345 3.23652e-10)
(496.957 0.0787582 -7.26245e-09)
(496.942 0.301383 2.10052e-09)
(496.919 0.36201 -7.15973e-10)
(496.869 0.621677 -7.42758e-11)
(496.819 0.697957 -2.31781e-10)
(496.742 0.91522 -5.70541e-10)
(496.658 1.06006 -2.38209e-10)
(496.562 1.17644 4.48832e-10)
(496.435 1.44738 8.06095e-10)
(496.327 1.40275 7.2668e-10)
(496.157 1.85674 4.2511e-10)
(496.035 1.59722 2.82473e-10)
(495.825 2.27784 4.66901e-11)
(495.685 1.77361 -2.91927e-10)
(495.443 2.68581 -4.19616e-10)
(495.274 1.96898 -2.53773e-10)
(495.018 3.00316 -1.86666e-10)
(494.787 2.31249 -1.23242e-11)
(494.57 3.10411 2.99689e-10)
(494.229 2.83544 1.68695e-10)
(494.084 3.04908 -1.2993e-10)
(493.611 3.47389 -1.3231e-10)
(493.576 2.81535 1.84596e-10)
(492.913 4.3204 3.23997e-10)
(496.708 0.0969012 -7.26195e-09)
(496.694 0.346942 2.09808e-09)
(496.671 0.431979 -7.32339e-10)
(496.621 0.723833 -7.4266e-11)
(496.572 0.823329 -2.17138e-10)
(496.495 1.07431 -5.69545e-10)
(496.412 1.24099 -2.49324e-10)
(496.316 1.392 4.53744e-10)
(496.192 1.68392 8.12879e-10)
(496.084 1.67365 7.21933e-10)
(495.916 2.14919 4.22178e-10)
(495.795 1.9214 2.93345e-10)
(495.588 2.6271 6.23585e-11)
(495.448 2.14763 -2.90053e-10)
(495.208 3.09414 -4.15188e-10)
(495.043 2.38628 -2.50464e-10)
(494.785 3.48276 -1.96159e-10)
(494.564 2.75716 -1.79864e-11)
(494.337 3.65154 2.94158e-10)
(494.01 3.32039 1.66221e-10)
(493.859 3.64417 -1.31327e-10)
(493.392 4.00141 -1.32326e-10)
(493.353 3.47203 1.87033e-10)
(492.692 4.88265 3.2918e-10)
(496.411 0.114908 -7.27919e-09)
(496.396 0.392037 2.10875e-09)
(496.374 0.501328 -7.1237e-10)
(496.324 0.824971 -7.0868e-11)
(496.276 0.947531 -2.30079e-10)
(496.2 1.23181 -5.66553e-10)
(496.117 1.42018 -2.32501e-10)
(496.023 1.60541 4.52941e-10)
(495.899 1.91813 7.94905e-10)
(495.793 1.94194 7.19499e-10)
(495.626 2.43872 4.32878e-10)
(495.506 2.24268 2.87508e-10)
(495.301 2.97276 3.66242e-11)
(495.164 2.51867 -2.98778e-10)
(494.924 3.49798 -4.08162e-10)
(494.763 2.80108 -2.58533e-10)
(494.504 3.95498 -1.92556e-10)
(494.292 3.19946 -1.43724e-12)
(494.059 4.19424 2.97984e-10)
(493.742 3.80092 1.51512e-10)
(493.586 4.23741 -1.31508e-10)
(493.127 4.52411 -1.16149e-10)
(493.084 4.1234 1.84635e-10)
(492.431 5.43759 3.06138e-10)
(496.065 0.132733 -7.293e-09)
(496.051 0.436578 2.09579e-09)
(496.029 0.569894 -7.34456e-10)
(495.979 0.924883 -8.31933e-11)
(495.931 1.07027 -2.30333e-10)
(495.856 1.38737 -5.74843e-10)
(495.775 1.59718 -2.47487e-10)
(495.681 1.81616 4.50293e-10)
(495.559 2.14941 8.0187e-10)
(495.454 2.20693 7.16507e-10)
(495.289 2.72457 4.209e-10)
(495.171 2.56019 2.85803e-10)
(494.967 3.31395 4.48331e-11)
(494.832 2.88572 -2.97618e-10)
(494.594 3.89638 -4.14852e-10)
(494.436 3.21206 -2.55451e-10)
(494.177 4.41873 -1.96868e-10)
(493.973 3.63883 -1.24908e-11)
(493.734 4.7301 2.94523e-10)
(493.43 4.27485 1.58357e-10)
(493.267 4.82802 -1.33488e-10)
(492.818 5.04197 -1.2716e-10)
(492.771 4.77039 1.86537e-10)
(492.126 5.98585 3.22679e-10)
(495.671 0.150376 -7.27912e-09)
(495.657 0.480574 2.12495e-09)
(495.635 0.637675 -7.16104e-10)
(495.586 1.02359 -6.01866e-11)
(495.539 1.19156 -2.11984e-10)
(495.464 1.54102 -5.57814e-10)
(495.384 1.77201 -2.30159e-10)
(495.291 2.02429 4.68233e-10)
(495.17 2.37774 8.20771e-10)
(495.066 2.4686 7.33364e-10)
(494.903 3.00664 4.39133e-10)
(494.787 2.87381 3.01491e-10)
(494.585 3.65055 6.31441e-11)
(494.453 3.24852 -2.85105e-10)
(494.216 4.28925 -4.01228e-10)
(494.062 3.6189 -2.44693e-10)
(493.803 4.87437 -1.83011e-10)
(493.607 4.07445 -1.53147e-12)
(493.364 5.2585 3.08394e-10)
(493.071 4.74266 1.699e-10)
(492.903 5.41383 -1.21379e-10)
(492.463 5.55303 -1.1493e-10)
(492.413 5.41123 1.96167e-10)
(491.778 6.5258 3.32049e-10)
(495.228 0.167807 -7.3025e-09)
(495.214 0.52397 2.11447e-09)
(495.193 0.704571 -7.2635e-10)
(495.144 1.12097 -6.7818e-11)
(495.097 1.31123 -2.1906e-10)
(495.023 1.69261 -5.6589e-10)
(494.944 1.94445 -2.34837e-10)
(494.852 2.22959 4.67147e-10)
(494.733 2.60286 8.19626e-10)
(494.631 2.72667 7.31873e-10)
(494.47 3.28461 4.39318e-10)
(494.355 3.1831 3.03818e-10)
(494.155 3.98209 6.54995e-11)
(494.026 3.6065 -2.8358e-10)
(493.79 4.67608 -3.96634e-10)
(493.641 4.02087 -2.38672e-10)
(493.382 5.32175 -1.75502e-10)
(493.194 4.50575 4.69442e-12)
(492.947 5.77853 3.18839e-10)
(492.666 5.20339 1.80607e-10)
(492.492 5.99373 -1.33101e-10)
(492.065 6.05675 -1.48746e-10)
(492.01 6.04515 1.67162e-10)
(491.386 7.05698 3.01162e-10)
(494.737 0.185006 -7.3138e-09)
(494.723 0.566721 2.11822e-09)
(494.702 0.770506 -7.30274e-10)
(494.653 1.21694 -7.34005e-11)
(494.608 1.42916 -2.24481e-10)
(494.534 1.84202 -5.71953e-10)
(494.457 2.11436 -2.42472e-10)
(494.366 2.43192 4.57991e-10)
(494.248 2.8246 8.10446e-10)
(494.147 2.98095 7.22701e-10)
(493.988 3.55826 4.28709e-10)
(493.875 3.48781 2.94326e-10)
(493.678 4.30829 5.42006e-11)
(493.551 3.95925 -2.93529e-10)
(493.318 5.05652 -4.11348e-10)
(493.172 4.41739 -2.52362e-10)
(492.915 5.7609 -1.92577e-10)
(492.733 4.93235 -8.63732e-12)
(492.483 6.28963 3.00382e-10)
(492.214 5.6579 1.6209e-10)
(492.035 6.56491 -1.28221e-10)
(491.62 6.5506 -1.19348e-10)
(491.562 6.67234 1.93375e-10)
(490.949 7.57886 3.27918e-10)
(494.197 0.201944 -7.32612e-09)
(494.183 0.608768 2.11894e-09)
(494.162 0.835378 -7.37229e-10)
(494.114 1.31136 -7.94616e-11)
(494.07 1.5452 -2.33188e-10)
(493.997 1.98906 -5.8443e-10)
(493.921 2.28155 -2.56495e-10)
(493.831 2.63107 4.42272e-10)
(493.715 3.04275 7.94443e-10)
(493.616 3.23122 7.04326e-10)
(493.459 3.82735 4.02404e-10)
(493.348 3.78766 2.67992e-10)
(493.152 4.62884 2.0933e-11)
(493.029 4.30633 -2.99382e-10)
(492.798 5.4301 -3.87611e-10)
(492.657 4.80775 -2.35001e-10)
(492.4 6.19172 -1.74391e-10)
(492.225 5.35392 3.79346e-12)
(491.973 6.79109 3.12942e-10)
(491.715 6.10448 1.72356e-10)
(491.532 7.12744 -1.20138e-10)
(491.13 7.03466 -1.14073e-10)
(491.069 7.29071 1.98992e-10)
(490.467 8.09081 3.31378e-10)
(493.608 0.218595 -7.3308e-09)
(493.594 0.650058 2.14454e-09)
(493.574 0.899094 -7.39213e-10)
(493.526 1.40412 -9.91362e-11)
(493.483 1.65917 -2.36634e-10)
(493.411 2.13354 -5.75796e-10)
(493.336 2.44578 -2.34955e-10)
(493.247 2.8268 4.80676e-10)
(493.134 3.25704 8.1488e-10)
(493.036 3.47723 7.05255e-10)
(492.881 4.09161 4.15432e-10)
(492.772 4.08236 2.91227e-10)
(492.579 4.94345 6.28145e-11)
(492.459 4.6474 -2.80526e-10)
(492.23 5.79647 -4.20947e-10)
(492.093 5.19146 -2.7584e-10)
(491.838 6.61378 -2.10695e-10)
(491.67 5.76985 -1.47702e-11)
(491.417 7.28245 3.07234e-10)
(491.17 6.54283 1.77985e-10)
(490.983 7.68062 -1.32535e-10)
(490.594 7.50781 -1.4281e-10)
(490.53 7.89901 1.82478e-10)
(489.941 8.59233 3.28967e-10)
(492.97 0.234937 -7.35886e-09)
(492.956 0.690539 2.10736e-09)
(492.937 0.961565 -7.31519e-10)
(492.89 1.49509 -4.27256e-11)
(492.847 1.77091 -2.11442e-10)
(492.776 2.27526 -5.7331e-10)
(492.702 2.60681 -2.54581e-10)
(492.615 3.01885 4.35955e-10)
(492.503 3.46718 8.1334e-10)
(492.407 3.71865 7.47949e-10)
(492.255 4.35074 4.36265e-10)
(492.149 4.3716 2.8525e-10)
(491.958 5.25182 2.79823e-11)
(491.841 4.98211 -3.02491e-10)
(491.615 6.1553 -3.9705e-10)
(491.482 5.56804 -2.46659e-10)
(491.23 7.02664 -2.00367e-10)
(491.068 6.17943 -2.60575e-11)
(490.813 7.7631 2.66623e-10)
(490.579 6.97263 1.48811e-10)
(490.387 8.22401 -1.1965e-10)
(490.011 7.96919 -1.18433e-10)
(489.945 8.49599 1.82998e-10)
(489.37 9.08287 3.04002e-10)
(492.283 0.250948 -7.35768e-09)
(492.269 0.730167 2.16009e-09)
(492.25 1.02271 -7.39778e-10)
(492.203 1.58415 -1.0267e-10)
(492.162 1.88027 -2.39392e-10)
(492.092 2.41404 -5.74308e-10)
(492.02 2.76439 -2.26195e-10)
(491.934 3.20692 4.90576e-10)
(491.825 3.67283 8.18778e-10)
(491.731 3.95513 7.07826e-10)
(491.581 4.60436 4.22105e-10)
(491.477 4.65499 2.98831e-10)
(491.289 5.5536 7.19756e-11)
(491.175 5.3101 -3.06409e-10)
(490.952 6.50627 -4.53745e-10)
(490.824 5.93705 -2.71982e-10)
(490.573 7.42995 -2.00611e-10)
(490.419 6.58182 -1.06076e-12)
(490.164 8.23226 3.22685e-10)
(489.94 7.39362 1.5525e-10)
(489.745 8.75696 -1.58711e-10)
(489.383 8.41849 -1.31527e-10)
(489.314 9.08107 1.9676e-10)
(488.753 9.56174 3.41961e-10)
(491.546 0.266607 -7.38715e-09)
(491.533 0.768896 2.12672e-09)
(491.514 1.08245 -7.59371e-10)
(491.468 1.6712 -1.0673e-10)
(491.427 1.98708 -2.2911e-10)
(491.359 2.54965 -5.48358e-10)
(491.288 2.91827 -2.2218e-10)
(491.204 3.39071 4.73495e-10)
(491.097 3.87364 8.1705e-10)
(491.005 4.18627 7.19968e-10)
(490.858 4.85205 4.1103e-10)
(490.757 4.93209 2.67095e-10)
(490.572 5.84838 5.21108e-11)
(490.462 5.63094 -2.76242e-10)
(490.241 6.84903 -4.03409e-10)
(490.118 6.29811 -2.48578e-10)
(489.87 7.82343 -1.96902e-10)
(489.722 6.9762 -1.73664e-11)
(489.467 8.68914 2.80635e-10)
(489.256 7.80545 1.32026e-10)
(489.057 9.27796 -1.70425e-10)
(488.71 8.85638 -1.28177e-10)
(488.636 9.6547 2.15099e-10)
(488.09 10.0276 3.39155e-10)
(490.76 0.281889 -7.39495e-09)
(490.746 0.806671 2.1552e-09)
(490.728 1.1407 -7.27118e-10)
(490.683 1.75612 -5.23803e-11)
(490.644 2.09118 -2.06292e-10)
(490.576 2.68192 -5.53496e-10)
(490.507 3.06821 -2.14137e-10)
(490.425 3.56993 4.99128e-10)
(490.32 4.06928 8.59211e-10)
(490.23 4.41169 7.32858e-10)
(490.086 5.09338 3.95163e-10)
(489.988 5.20243 2.63494e-10)
(489.807 6.13567 1.88558e-11)
(489.7 5.94414 -3.28518e-10)
(489.482 7.18314 -4.45865e-10)
(489.364 6.6508 -2.73812e-10)
(489.119 8.20686 -2.13872e-10)
(488.978 7.36181 -2.06948e-11)
(488.724 9.13305 2.93933e-10)
(488.524 8.20784 1.60362e-10)
(488.322 9.78656 -1.26996e-10)
(487.99 9.28241 -1.13743e-10)
(487.911 10.2161 2.04399e-10)
(487.382 10.4801 3.43672e-10)
(489.924 0.296765 -7.41808e-09)
(489.91 0.843431 2.14626e-09)
(489.893 1.19736 -7.49333e-10)
(489.848 1.83876 -7.8913e-11)
(489.81 2.1924 -2.39562e-10)
(489.744 2.81063 -5.97504e-10)
(489.677 3.21395 -2.59789e-10)
(489.596 3.74431 4.50626e-10)
(489.494 4.2594 8.02418e-10)
(489.407 4.631 7.0961e-10)
(489.265 5.32791 4.0837e-10)
(489.171 5.46551 2.67758e-10)
(488.993 6.41495 1.42273e-11)
(488.89 6.24912 -3.37302e-10)
(488.676 7.50809 -4.6432e-10)
(488.563 6.99456 -2.96758e-10)
(488.321 8.57977 -2.01171e-10)
(488.186 7.73814 2.03306e-11)
(487.934 9.56355 3.34072e-10)
(487.745 8.60036 1.8656e-10)
(487.54 10.2823 -1.0632e-10)
(487.223 9.69627 -1.02401e-10)
(487.141 10.7645 2.13078e-10)
(486.628 10.9186 3.48392e-10)
(489.037 0.311201 -7.45319e-09)
(489.024 0.879097 2.16229e-09)
(489.007 1.25229 -7.21935e-10)
(488.963 1.91896 -7.43185e-11)
(488.926 2.29054 -2.14301e-10)
(488.861 2.93555 -5.4912e-10)
(488.797 3.35523 -2.37884e-10)
(488.718 3.91354 4.48084e-10)
(488.618 4.44367 8.22231e-10)
(488.534 4.84382 7.49729e-10)
(488.396 5.55522 4.22325e-10)
(488.304 5.72085 2.97425e-10)
(488.13 6.68571 6.38429e-11)
(488.031 6.54531 -3.1793e-10)
(487.821 7.82328 -4.19726e-10)
(487.714 7.32875 -2.37188e-10)
(487.475 8.94164 -2.06112e-10)
(487.347 8.10465 -4.19414e-11)
(487.097 9.98024 2.84754e-10)
(486.919 8.98262 1.59527e-10)
(486.712 10.7646 -1.59835e-10)
(486.41 10.0976 -1.3037e-10)
(486.323 11.2995 2.01163e-10)
(485.827 11.3428 3.12294e-10)
(488.1 0.325159 -7.45209e-09)
(488.087 0.913583 2.17908e-09)
(488.071 1.30537 -7.24208e-10)
(488.028 1.99653 -4.0173e-11)
(487.992 2.38537 -1.96629e-10)
(487.929 3.05643 -5.88125e-10)
(487.866 3.49176 -2.83646e-10)
(487.79 4.07733 4.40752e-10)
(487.693 4.62177 8.05961e-10)
(487.611 5.04982 7.19717e-10)
(487.476 5.77493 4.22846e-10)
(487.389 5.96804 2.93363e-10)
(487.218 6.94746 5.42092e-11)
(487.124 6.83214 -2.93245e-10)
(486.918 8.12814 -4.01754e-10)
(486.816 7.65271 -2.33182e-10)
(486.581 9.29187 -1.68042e-10)
(486.46 8.46062 -1.7238e-11)
(486.212 10.3828 2.56952e-10)
(486.046 9.35422 1.27098e-10)
(485.837 11.2328 -1.60334e-10)
(485.551 10.4862 -1.42986e-10)
(485.459 11.8204 1.75222e-10)
(484.981 11.7523 3.2166e-10)
(487.113 0.338598 -7.4914e-09)
(487.1 0.946797 2.13721e-09)
(487.084 1.35644 -7.49766e-10)
(487.042 2.07129 -4.0122e-11)
(487.008 2.47664 -2.20648e-10)
(486.946 3.17298 -5.89542e-10)
(486.886 3.62325 -2.59875e-10)
(486.812 4.23536 4.86086e-10)
(486.718 4.79336 8.71127e-10)
(486.639 5.24865 7.59028e-10)
(486.508 5.98666 4.38062e-10)
(486.424 6.20665 2.7995e-10)
(486.257 7.19976 9.61921e-12)
(486.168 7.10911 -3.16792e-10)
(485.966 8.42211 -4.0772e-10)
(485.869 7.96578 -2.55274e-10)
(485.639 9.62982 -2.13194e-10)
(485.525 8.80526 -3.85999e-11)
(485.28 10.7707 3.02522e-10)
(485.125 9.71482 1.82593e-10)
(484.914 11.6861 -1.2681e-10)
(484.644 10.8615 -1.34509e-10)
(484.549 12.3268 1.61933e-10)
(484.088 12.1465 3.26965e-10)
(486.075 0.351481 -7.51436e-09)
(486.062 0.978654 2.14414e-09)
(486.047 1.40537 -7.52324e-10)
(486.006 2.14305 -3.48051e-11)
(485.973 2.56413 -2.11276e-10)
(485.913 3.28494 -5.85638e-10)
(485.855 3.74938 -2.59864e-10)
(485.784 4.38729 4.38004e-10)
(485.692 4.95808 8.23632e-10)
(485.617 5.43994 7.65661e-10)
(485.489 6.19004 4.48837e-10)
(485.409 6.43633 2.89918e-10)
(485.247 7.44221 1.95515e-11)
(485.162 7.37578 -3.0865e-10)
(484.965 8.70469 -3.98359e-10)
(484.874 8.26734 -2.50929e-10)
(484.648 9.95485 -2.08332e-10)
(484.542 9.1377 -2.94956e-11)
(484.301 11.1439 3.1366e-10)
(484.156 10.064 1.91758e-10)
(483.944 12.1235 -1.17081e-10)
(483.69 11.223 -1.25728e-10)
(483.591 12.818 1.7723e-10)
(483.149 12.5251 3.00371e-10)
(484.985 0.363777 -7.54418e-09)
(484.973 1.00908 2.19144e-09)
(484.958 1.45203 -7.2961e-10)
(484.919 2.21163 -7.83656e-11)
(484.888 2.64762 -2.67732e-10)
(484.829 3.39205 -6.03197e-10)
(484.774 3.86985 -2.34163e-10)
(484.705 4.53279 4.55751e-10)
(484.617 5.11558 8.31295e-10)
(484.545 5.62333 7.57343e-10)
(484.421 6.38469 4.23355e-10)
(484.345 6.65668 3.05258e-10)
(484.187 7.67442 7.75787e-11)
(484.107 7.63173 -3.14688e-10)
(483.914 8.97547 -4.68826e-10)
(483.83 8.55692 -2.75019e-10)
(483.608 10.2664 -1.92528e-10)
(483.511 9.45723 -2.46623e-11)
(483.273 11.5017 3.0915e-10)
(483.139 10.4012 1.78245e-10)
(482.927 12.544 -1.43814e-10)
(482.689 11.5699 -1.11903e-10)
(482.586 13.293 2.2881e-10)
(482.164 12.8875 3.34491e-10)
(483.845 0.375464 -7.53622e-09)
(483.833 1.03803 2.22241e-09)
(483.819 1.49635 -7.1673e-10)
(483.78 2.27692 -6.72483e-11)
(483.751 2.72693 -2.63276e-10)
(483.695 3.49408 -6.05022e-10)
(483.642 3.98438 -2.3942e-10)
(483.576 4.67154 5.01117e-10)
(483.491 5.26548 8.71622e-10)
(483.422 5.79842 7.38352e-10)
(483.302 6.5702 3.96822e-10)
(483.231 6.8673 2.74711e-10)
(483.077 7.89598 3.90581e-11)
(483.003 7.87659 -3.05879e-10)
(482.815 9.23405 -4.09308e-10)
(482.737 8.83408 -2.2597e-10)
(482.52 10.5641 -2.03716e-10)
(482.43 9.76332 -4.3775e-11)
(482.196 11.8435 2.82361e-10)
(482.073 10.7256 1.4994e-10)
(481.861 12.947 -1.27988e-10)
(481.64 11.9013 -1.02336e-10)
(481.534 13.7507 2.35016e-10)
(481.132 13.2332 3.3538e-10)
(482.654 0.386528 -7.5549e-09)
(482.641 1.06547 2.19923e-09)
(482.629 1.53826 -7.78733e-10)
(482.591 2.33881 -5.55499e-11)
(482.563 2.80193 -2.37147e-10)
(482.509 3.59085 -6.12421e-10)
(482.459 4.09273 -2.22956e-10)
(482.395 4.80324 4.81249e-10)
(482.314 5.40745 8.13497e-10)
(482.249 5.96483 7.56645e-10)
(482.133 6.74615 4.36668e-10)
(482.066 7.06777 2.75154e-10)
(481.917 8.10647 6.13283e-11)
(481.848 8.10993 -3.1749e-10)
(481.665 9.48003 -4.61934e-10)
(481.594 9.09843 -2.56783e-10)
(481.382 10.8475 -2.15223e-10)
(481.3 10.0555 -3.36428e-11)
(481.071 12.169 3.12109e-10)
(480.958 11.0368 1.45209e-10)
(480.747 13.3319 -1.68257e-10)
(480.543 12.2165 -1.22232e-10)
(480.435 14.1896 1.75855e-10)
(480.052 13.5616 3.01044e-10)
(481.411 0.396956 -7.6383e-09)
(481.399 1.09136 2.18164e-09)
(481.387 1.57772 -7.81694e-10)
(481.351 2.39723 -8.52998e-11)
(481.325 2.87252 -2.37723e-10)
(481.272 3.68222 -5.90967e-10)
(481.225 4.19473 -2.34174e-10)
(481.164 4.92767 5.0096e-10)
(481.086 5.54118 8.62008e-10)
(481.025 6.12222 7.6998e-10)
(480.914 6.91215 4.72155e-10)
(480.851 7.25767 2.81179e-10)
(480.707 8.30543 3.19674e-11)
(480.644 8.33133 -3.2432e-10)
(480.466 9.713 -4.40017e-10)
(480.401 9.34956 -2.62314e-10)
(480.195 11.1163 -1.97962e-10)
(480.121 10.3333 2.67005e-12)
(479.896 12.4778 3.25044e-10)
(479.794 11.3338 1.75789e-10)
(479.585 13.6979 -1.68932e-10)
(479.397 12.5151 -1.47783e-10)
(479.286 14.6095 1.76907e-10)
(478.924 13.8724 3.17613e-10)
(480.117 0.406738 -7.62285e-09)
(480.105 1.11569 2.24205e-09)
(480.094 1.61468 -7.27607e-10)
(480.059 2.45214 -7.2989e-11)
(480.035 2.93863 -2.72784e-10)
(479.984 3.76811 -6.22767e-10)
(479.939 4.29024 -2.51459e-10)
(479.882 5.04467 4.97366e-10)
(479.808 5.66647 8.64905e-10)
(479.75 6.27032 7.83719e-10)
(479.643 7.06785 4.37686e-10)
(479.586 7.4366 2.58833e-10)
(479.446 8.49245 1.967e-11)
(479.389 8.54031 -3.31241e-10)
(479.217 9.93251 -4.35512e-10)
(479.159 9.58705 -2.46418e-10)
(478.957 11.3702 -1.6824e-10)
(478.892 10.5964 4.01325e-11)
(478.672 12.7697 3.1444e-10)
(478.581 11.6158 1.23798e-10)
(478.374 14.0437 -1.57474e-10)
(478.203 12.7976 -1.26955e-10)
(478.089 15.011 2.12904e-10)
(477.747 14.1659 3.665e-10)
(478.772 0.415861 -7.63637e-09)
(478.76 1.13842 2.21752e-09)
(478.75 1.6491 -8.06304e-10)
(478.716 2.50347 -7.95216e-11)
(478.693 3.00019 -2.03009e-10)
(478.645 3.84842 -5.87526e-10)
(478.603 4.37916 -2.63446e-10)
(478.548 5.1541 4.99867e-10)
(478.478 5.78315 8.32006e-10)
(478.424 6.40892 7.08487e-10)
(478.322 7.21298 4.38536e-10)
(478.269 7.60423 3.29243e-10)
(478.135 8.6671 4.39826e-11)
(478.084 8.73644 -3.44079e-10)
(477.917 10.1381 -4.30816e-10)
(477.866 9.81039 -2.24376e-10)
(477.67 11.6085 -1.93208e-10)
(477.613 10.8443 -2.50236e-11)
(477.399 13.0444 3.28444e-10)
(477.318 11.8821 1.5076e-10)
(477.114 14.3686 -1.76781e-10)
(476.96 13.0639 -1.32472e-10)
(476.844 15.3927 2.25807e-10)
(476.523 14.4403 3.40409e-10)
(477.375 0.424308 -7.72403e-09)
(477.363 1.15952 2.19862e-09)
(477.354 1.68093 -7.97265e-10)
(477.321 2.55116 -9.25364e-11)
(477.301 3.05711 -2.51763e-10)
(477.255 3.92307 -6.14554e-10)
(477.215 4.46141 -2.51512e-10)
(477.163 5.25588 4.89958e-10)
(477.097 5.89111 8.47494e-10)
(477.047 6.5379 7.47045e-10)
(476.949 7.34738 4.45604e-10)
(476.902 7.76034 3.11981e-10)
(476.773 8.82908 5.64371e-11)
(476.727 8.91933 -3.1049e-10)
(476.567 10.3293 -4.25829e-10)
(476.522 10.0191 -2.4749e-10)
(476.333 11.831 -1.86927e-10)
(476.284 11.0766 8.94281e-12)
(476.075 13.3014 3.36379e-10)
(476.005 12.1322 1.84106e-10)
(475.805 14.6717 -1.07668e-10)
(475.668 13.312 -1.5466e-10)
(475.549 15.7552 1.64661e-10)
(475.249 14.6978 3.13565e-10)
(475.926 0.432063 -7.67718e-09)
(475.915 1.17894 2.27043e-09)
(475.907 1.7101 -7.58108e-10)
(475.875 2.59512 -5.29259e-11)
(475.856 3.10931 -2.21785e-10)
(475.813 3.99196 -5.9064e-10)
(475.776 4.5369 -2.32932e-10)
(475.727 5.34992 5.0526e-10)
(475.664 5.99027 8.57089e-10)
(475.619 6.65717 7.49246e-10)
(475.525 7.47092 4.40172e-10)
(475.483 7.9048 2.94223e-10)
(475.359 8.97817 3.06415e-11)
(475.32 9.08871 -3.35948e-10)
(475.165 10.5056 -4.65983e-10)
(475.128 10.2127 -2.9477e-10)
(474.945 12.037 -2.39451e-10)
(474.905 11.2926 2.08611e-11)
(474.702 13.5405 3.38266e-10)
(474.642 12.3658 1.73383e-10)
(474.446 14.953 -1.20815e-10)
(474.325 13.5428 -1.15714e-10)
(474.204 16.0966 2.03676e-10)
(473.927 14.9358 3.43049e-10)
(474.426 0.43911 -7.72366e-09)
(474.416 1.19667 2.25099e-09)
(474.408 1.73658 -7.98619e-10)
(474.377 2.63529 -5.33162e-11)
(474.361 3.15671 -2.34949e-10)
(474.319 4.05502 -6.19125e-10)
(474.285 4.60553 -2.20334e-10)
(474.24 5.43613 5.01537e-10)
(474.18 6.08054 8.41072e-10)
(474.139 6.76668 7.77108e-10)
(474.05 7.58355 4.47602e-10)
(474.012 8.03756 2.88545e-10)
(473.894 9.11428 6.94045e-11)
(473.861 9.24446 -3.18993e-10)
(473.712 10.667 -4.6116e-10)
(473.683 10.3909 -2.47323e-10)
(473.506 12.2262 -2.06882e-10)
(473.474 11.4919 -2.56155e-11)
(473.278 13.7609 3.39892e-10)
(473.229 12.5822 1.62156e-10)
(473.037 15.2127 -1.61186e-10)
(472.932 13.7569 -1.04281e-10)
(472.809 16.4148 2.05055e-10)
(472.555 15.1524 3.21264e-10)
(472.875 0.445442 -7.80496e-09)
(472.864 1.21268 2.25966e-09)
(472.857 1.76034 -7.63903e-10)
(472.828 2.67162 -9.42623e-11)
(472.813 3.19926 -2.29379e-10)
(472.774 4.11217 -5.73955e-10)
(472.743 4.66721 -2.59137e-10)
(472.7 5.51444 5.10804e-10)
(472.645 6.16186 8.90057e-10)
(472.607 6.86636 7.40553e-10)
(472.523 7.68521 4.55082e-10)
(472.491 8.1586 3.40127e-10)
(472.377 9.23737 3.6098e-11)
(472.351 9.38656 -3.14247e-10)
(472.207 10.8132 -4.09076e-10)
(472.186 10.5534 -2.78262e-10)
(472.015 12.398 -2.00688e-10)
(471.993 11.6738 2.25743e-11)
(471.802 13.9622 3.07546e-10)
(471.764 12.7805 1.68349e-10)
(471.578 15.4507 -1.07736e-10)
(471.488 13.9541 -1.33594e-10)
(471.364 16.7101 2.12784e-10)
(471.132 15.3487 3.69491e-10)
(471.271 0.451059 -7.79839e-09)
(471.261 1.22696 2.30602e-09)
(471.255 1.78136 -7.34921e-10)
(471.227 2.70411 -5.93625e-11)
(471.214 3.23693 -2.68894e-10)
(471.177 4.16337 -6.17089e-10)
(471.148 4.72191 -2.26479e-10)
(471.109 5.58476 5.40414e-10)
(471.057 6.23412 9.2014e-10)
(471.024 6.95612 7.761e-10)
(470.944 7.77583 4.15796e-10)
(470.917 8.26788 2.9567e-10)
(470.809 9.34742 6.28631e-11)
(470.789 9.51503 -2.9024e-10)
(470.651 10.9442 -3.90099e-10)
(470.637 10.7004 -2.60189e-10)
(470.472 12.5525 -2.4961e-10)
(470.459 11.8381 -1.97599e-11)
(470.276 14.1439 3.22931e-10)
(470.249 12.9598 1.80888e-10)
(470.068 15.6668 -8.75598e-11)
(469.992 14.1346 -1.22268e-10)
(469.867 16.9816 1.59142e-10)
(469.659 15.5237 3.229e-10)
(469.616 0.455966 -7.8896e-09)
(469.606 1.23954 2.24058e-09)
(469.601 1.79967 -8.2286e-10)
(469.574 2.73277 -1.08784e-10)
(469.563 3.26975 -2.69866e-10)
(469.528 4.20864 -6.40136e-10)
(469.502 4.76961 -2.73218e-10)
(469.466 5.64708 4.74859e-10)
(469.418 6.29728 8.36276e-10)
(469.389 7.0359 7.3143e-10)
(469.314 7.85531 4.16756e-10)
(469.292 8.3653 2.76559e-10)
(469.189 9.44436 1.47742e-11)
(469.175 9.62986 -3.56469e-10)
(469.043 11.0602 -4.81524e-10)
(469.036 10.8318 -2.98788e-10)
(468.878 12.6896 -2.43283e-10)
(468.874 11.9848 -3.80498e-11)
(468.697 14.3058 2.82579e-10)
(468.681 13.1198 1.26524e-10)
(468.506 15.8602 -1.79181e-10)
(468.445 14.2978 -1.58863e-10)
(468.32 17.2289 1.67053e-10)
(468.135 15.6773 3.12061e-10)
(467.909 0.460177 -7.85662e-09)
(467.899 1.25044 2.28877e-09)
(467.894 1.81533 -8.13447e-10)
(467.869 2.75766 -4.45288e-11)
(467.86 3.29778 -2.30662e-10)
(467.827 4.24801 -6.21333e-10)
(467.804 4.81036 -2.05853e-10)
(467.771 5.70141 5.26193e-10)
(467.727 6.35134 8.67e-10)
(467.702 7.10565 8.08882e-10)
(467.631 7.92358 4.73042e-10)
(467.614 8.45078 3.04055e-10)
(467.517 9.52807 9.09653e-11)
(467.509 9.73096 -3.05567e-10)
(467.383 11.1609 -4.48119e-10)
(467.384 10.9478 -2.86478e-10)
(467.232 12.8095 -2.51026e-10)
(467.237 12.1142 7.91088e-14)
(467.066 14.4481 3.05803e-10)
(467.061 13.2602 1.26961e-10)
(466.892 16.0308 -1.30046e-10)
(466.846 14.4425 -1.34783e-10)
(466.722 17.4509 1.68062e-10)
(466.56 15.8094 3.56503e-10)
(466.149 0.463703 -7.88286e-09)
(466.14 1.25969 2.30643e-09)
(466.136 1.82837 -8.10605e-10)
(466.112 2.77884 -3.7241e-11)
(466.104 3.32107 -2.24758e-10)
(466.074 4.28158 -6.16648e-10)
(466.054 4.84422 -1.99027e-10)
(466.024 5.74783 5.3619e-10)
(465.983 6.39632 8.77286e-10)
(465.962 7.16538 7.49452e-10)
(465.896 7.98059 4.11513e-10)
(465.884 8.52423 3.18418e-10)
(465.793 9.59842 3.46492e-11)
(465.791 9.81819 -3.60285e-10)
(465.671 11.2463 -4.3577e-10)
(465.679 11.0482 -2.74118e-10)
(465.534 12.9122 -2.37735e-10)
(465.547 12.2263 1.33418e-11)
(465.383 14.5709 3.22251e-10)
(465.389 13.3814 1.39925e-10)
(465.225 16.1789 -1.16574e-10)
(465.193 14.5673 -1.23043e-10)
(465.072 17.646 1.90227e-10)
(464.933 15.9199 3.76726e-10)
(464.338 0.466556 -7.93554e-09)
(464.329 1.26732 2.36321e-09)
(464.326 1.83883 -7.87047e-10)
(464.303 2.79635 -9.61086e-11)
(464.297 3.33972 -2.2582e-10)
(464.268 4.30942 -5.61214e-10)
(464.251 4.8713 -2.26618e-10)
(464.224 5.78642 4.89493e-10)
(464.188 6.43233 8.87807e-10)
(464.17 7.21518 8.14958e-10)
(464.109 8.02639 4.61977e-10)
(464.102 8.58566 2.84863e-10)
(464.016 9.65532 5.573e-11)
(464.02 9.89142 -2.87771e-10)
(463.907 11.3161 -4.51577e-10)
(463.922 11.1328 -3.01182e-10)
(463.783 12.9974 -2.0962e-10)
(463.806 12.3211 2.68021e-11)
(463.647 14.6745 3.24413e-10)
(463.664 13.4837 1.27684e-10)
(463.506 16.3052 -1.46666e-10)
(463.488 14.6714 -1.046e-10)
(463.371 17.8126 1.98659e-10)
(463.254 16.0088 3.09167e-10)
(462.475 0.468741 -7.9979e-09)
(462.465 1.27333 2.30279e-09)
(462.463 1.84675 -8.24448e-10)
(462.442 2.81025 -1.11422e-10)
(462.437 3.35376 -2.88836e-10)
(462.411 4.3316 -6.72618e-10)
(462.396 4.89168 -2.3398e-10)
(462.372 5.81728 5.85613e-10)
(462.339 6.45947 9.40874e-10)
(462.326 7.25513 8.24861e-10)
(462.269 8.06106 4.9173e-10)
(462.267 8.63511 3.34191e-10)
(462.186 9.69878 6.28148e-11)
(462.197 9.95058 -3.23206e-10)
(462.09 11.3703 -4.60436e-10)
(462.113 11.2015 -2.88531e-10)
(461.98 13.0648 -2.39566e-10)
(462.012 12.3983 -3.83361e-11)
(461.86 14.7585 2.74717e-10)
(461.888 13.5671 1.08724e-10)
(461.736 16.41 -1.40476e-10)
(461.731 14.7556 -7.29136e-11)
(461.617 17.9508 2.5903e-10)
(461.523 16.0752 3.86523e-10)
(460.558 0.470261 -8.06134e-09)
(460.549 1.27774 2.32082e-09)
(460.548 1.85214 -7.93918e-10)
(460.528 2.82053 -1.19182e-10)
(460.525 3.36323 -2.69434e-10)
(460.5 4.34815 -6.23476e-10)
(460.489 4.90539 -2.27266e-10)
(460.468 5.84047 5.52718e-10)
(460.438 6.47781 8.5966e-10)
(460.429 7.28535 7.70654e-10)
(460.377 8.08471 4.71659e-10)
(460.38 8.67272 2.72058e-10)
(460.304 9.72888 2.63495e-11)
(460.321 9.99574 -3.31607e-10)
(460.219 11.4086 -4.40362e-10)
(460.25 11.254 -2.42015e-10)
(460.124 13.1141 -2.3282e-10)
(460.165 12.4576 -5.02171e-12)
(460.02 14.8226 3.43357e-10)
(460.059 13.6313 1.21874e-10)
(459.912 16.4932 -1.71703e-10)
(459.922 14.8201 -1.30857e-10)
(459.811 18.0616 2.22806e-10)
(459.738 16.1198 3.75047e-10)
(458.589 0.471113 -8.02556e-09)
(458.581 1.28054 2.35505e-09)
(458.58 1.85498 -8.18245e-10)
(458.561 2.8272 -1.04628e-10)
(458.56 3.36812 -2.84455e-10)