/*--------------------------------*- C++ -*----------------------------------*\
  =========                 |
  \\      /  F ield         | OpenFOAM: The Open Source CFD Toolbox
   \\    /   O peration     | Website:  https://openfoam.org
    \\  /    A nd           | Version:  10
     \\/     M anipulation  |
\*---------------------------------------------------------------------------*/
FoamFile
{
    format      ascii;
    class       volScalarField;
    location    "0.47";
    object      p;
}
// * * * * * * * * * * * * * * * * * * * * * * * * * * * * * * * * * * * * * //

dimensions      [1 -1 -2 0 0 0 0];

internalField   nonuniform List<scalar> 
4176
(
1600.6
1600.79
1601.3
1601.93
1603
1604.01
1605.65
1607.04
1609.23
1611.01
1613.72
1615.94
1619.06
1621.82
1625.2
1628.7
1631.98
1636.63
1639.58
1645.58
1647.92
1655.55
1656.73
1665.46
1601.09
1601.28
1601.74
1602.36
1603.32
1604.32
1605.78
1607.15
1609.13
1610.87
1613.34
1615.47
1618.38
1620.97
1624.17
1627.41
1630.56
1634.83
1637.65
1643.21
1645.32
1652.76
1654.01
1663.78
1602.34
1602.54
1603.01
1603.63
1604.61
1605.63
1607.12
1608.52
1610.54
1612.31
1614.84
1617
1619.98
1622.61
1625.91
1629.18
1632.44
1636.82
1639.63
1645.34
1647.43
1654.77
1655.91
1665.37
1604.29
1604.48
1604.94
1605.55
1606.51
1607.51
1608.98
1610.34
1612.34
1614.05
1616.56
1618.64
1621.62
1624.14
1627.44
1630.61
1633.87
1638.27
1640.79
1646.68
1648.62
1655.85
1656.92
1665.77
1607.01
1607.2
1607.66
1608.27
1609.22
1610.22
1611.68
1613.05
1615.02
1616.75
1619.23
1621.33
1624.28
1626.81
1630.11
1633.23
1636.6
1640.82
1643.52
1649.31
1651.32
1658.51
1659.66
1668.51
1610.46
1610.65
1611.1
1611.71
1612.65
1613.64
1615.08
1616.44
1618.38
1620.1
1622.54
1624.63
1627.53
1630.04
1633.31
1636.37
1639.78
1643.79
1646.72
1652.26
1654.35
1661.46
1662.68
1671.61
1614.67
1614.86
1615.31
1615.91
1616.84
1617.83
1619.25
1620.6
1622.52
1624.23
1626.64
1628.71
1631.6
1634.07
1637.34
1640.34
1643.78
1647.66
1650.68
1656.06
1658.23
1665.24
1666.49
1675.32
1619.64
1619.82
1620.27
1620.86
1621.78
1622.76
1624.16
1625.5
1627.4
1629.09
1631.48
1633.52
1636.38
1638.82
1642.06
1645
1648.44
1652.2
1655.31
1660.51
1662.76
1669.65
1670.95
1679.68
1625.36
1625.54
1625.98
1626.57
1627.48
1628.45
1629.84
1631.16
1633.04
1634.71
1637.07
1639.09
1641.91
1644.32
1647.54
1650.42
1653.87
1657.5
1660.67
1665.71
1668.03
1674.79
1676.13
1684.73
1631.84
1632.02
1632.46
1633.05
1633.94
1634.9
1636.27
1637.58
1639.43
1641.08
1643.41
1645.4
1648.2
1650.56
1653.75
1656.58
1660.01
1663.54
1666.76
1671.62
1674.04
1680.61
1681.99
1690.46
1639.09
1639.28
1639.7
1640.28
1641.17
1642.12
1643.47
1644.76
1646.59
1648.21
1650.52
1652.48
1655.24
1657.56
1660.72
1663.49
1666.9
1670.33
1673.59
1678.28
1680.75
1687.17
1688.58
1696.91
1647.12
1647.3
1647.72
1648.3
1649.17
1650.1
1651.44
1652.71
1654.51
1656.11
1658.39
1660.31
1663.04
1665.32
1668.44
1671.14
1674.54
1677.87
1681.15
1685.68
1688.2
1694.44
1695.88
1704.06
1655.93
1656.11
1656.53
1657.09
1657.95
1658.87
1660.18
1661.44
1663.21
1664.79
1667.03
1668.92
1671.61
1673.84
1676.93
1679.56
1682.93
1686.16
1689.46
1693.83
1696.39
1702.46
1703.91
1711.94
1665.53
1665.71
1666.12
1666.68
1667.52
1668.43
1669.72
1670.95
1672.7
1674.24
1676.45
1678.3
1680.96
1683.13
1686.18
1688.75
1692.08
1695.21
1698.53
1702.73
1705.33
1711.22
1712.67
1720.54
1675.94
1676.11
1676.52
1677.06
1677.89
1678.78
1680.05
1681.26
1682.97
1684.49
1686.66
1688.47
1691.08
1693.21
1696.22
1698.71
1702.01
1705.04
1708.35
1712.39
1715.02
1720.73
1722.19
1729.87
1687.15
1687.33
1687.72
1688.26
1689.08
1689.95
1691.19
1692.37
1694.06
1695.53
1697.66
1699.43
1702
1704.07
1707.03
1709.46
1712.71
1715.64
1718.94
1722.81
1725.48
1730.98
1732.47
1739.97
1699.19
1699.37
1699.75
1700.28
1701.08
1701.93
1703.15
1704.3
1705.95
1707.39
1709.48
1711.2
1713.72
1715.73
1718.64
1720.99
1724.2
1727.03
1730.3
1734.01
1736.7
1742
1743.52
1750.81
1712.07
1712.24
1712.62
1713.14
1713.92
1714.75
1715.93
1717.06
1718.67
1720.07
1722.11
1723.78
1726.25
1728.2
1731.06
1733.33
1736.49
1739.21
1742.46
1746
1748.71
1753.81
1755.35
1762.43
1725.79
1725.97
1726.34
1726.84
1727.6
1728.41
1729.57
1730.66
1732.23
1733.59
1735.58
1737.19
1739.6
1741.49
1744.28
1746.48
1749.58
1752.2
1755.4
1758.79
1761.51
1766.4
1767.96
1774.83
1740.38
1740.55
1740.91
1741.4
1742.14
1742.92
1744.05
1745.11
1746.64
1747.95
1749.89
1751.45
1753.8
1755.61
1758.34
1760.45
1763.49
1766
1769.16
1772.38
1775.11
1779.79
1781.37
1788.01
1755.85
1756.01
1756.36
1756.84
1757.55
1758.31
1759.4
1760.42
1761.91
1763.17
1765.06
1766.55
1768.84
1770.58
1773.24
1775.26
1778.23
1780.63
1783.74
1786.8
1789.53
1793.98
1795.59
1802
1772.2
1772.36
1772.7
1773.16
1773.85
1774.58
1775.64
1776.62
1778.06
1779.27
1781.1
1782.53
1784.75
1786.41
1789
1790.92
1793.82
1796.11
1799.15
1802.05
1804.77
1809
1810.63
1816.8
1789.46
1789.62
1789.94
1790.39
1791.05
1791.75
1792.77
1793.71
1795.09
1796.25
1798.02
1799.39
1801.54
1803.12
1805.63
1807.46
1810.28
1812.44
1815.42
1818.15
1820.86
1824.86
1826.49
1832.42
1807.63
1807.79
1808.1
1808.53
1809.17
1809.83
1810.81
1811.7
1813.04
1814.14
1815.85
1817.14
1819.22
1820.71
1823.15
1824.87
1827.61
1829.65
1832.55
1835.13
1837.8
1841.57
1843.2
1848.88
1826.74
1826.89
1827.19
1827.6
1828.21
1828.84
1829.78
1830.62
1831.9
1832.94
1834.58
1835.8
1837.81
1839.21
1841.57
1843.18
1845.84
1847.75
1850.57
1852.98
1855.63
1859.16
1860.78
1866.19
1846.79
1846.94
1847.23
1847.61
1848.2
1848.8
1849.69
1850.48
1851.71
1852.68
1854.25
1855.4
1857.32
1858.63
1860.91
1862.41
1864.98
1866.76
1869.49
1871.74
1874.34
1877.63
1879.24
1884.37
1867.8
1867.95
1868.22
1868.59
1869.14
1869.71
1870.55
1871.3
1872.46
1873.37
1874.87
1875.93
1877.78
1878.99
1881.18
1882.57
1885.04
1886.69
1889.34
1891.42
1893.95
1897.01
1898.6
1903.48
1889.78
1889.93
1890.19
1890.53
1891.06
1891.59
1892.39
1893.09
1894.19
1895.03
1896.46
1897.43
1899.19
1900.31
1902.4
1903.67
1906.05
1907.56
1910.11
1912.03
1914.49
1917.3
1918.89
1923.48
1912.76
1912.9
1913.14
1913.47
1913.96
1914.46
1915.22
1915.86
1916.9
1917.67
1919.02
1919.91
1921.59
1922.6
1924.59
1925.74
1928.02
1929.39
1931.84
1933.59
1935.98
1938.53
1940.12
1944.39
1936.74
1936.87
1937.1
1937.41
1937.87
1938.33
1939.04
1939.63
1940.61
1941.31
1942.59
1943.39
1944.98
1945.88
1947.77
1948.8
1950.97
1952.19
1954.55
1956.12
1958.43
1960.72
1962.29
1966.27
1961.74
1961.87
1962.09
1962.37
1962.8
1963.22
1963.89
1964.42
1965.34
1965.97
1967.17
1967.88
1969.38
1970.17
1971.97
1972.86
1974.93
1976
1978.25
1979.64
1981.86
1983.91
1985.45
1989.13
1987.78
1987.91
1988.11
1988.37
1988.77
1989.15
1989.77
1990.25
1991.1
1991.66
1992.78
1993.41
1994.81
1995.5
1997.19
1997.96
1999.91
2000.83
2002.96
2004.17
2006.29
2008.11
2009.62
2012.97
2014.88
2015
2015.18
2015.43
2015.79
2016.14
2016.7
2017.13
2017.92
2018.4
2019.45
2019.98
2021.3
2021.87
2023.46
2024.09
2025.94
2026.7
2028.71
2029.73
2031.75
2033.33
2034.82
2037.83
2043.04
2043.16
2043.33
2043.56
2043.89
2044.19
2044.71
2045.08
2045.8
2046.22
2047.18
2047.62
2048.85
2049.31
2050.8
2051.3
2053.04
2053.63
2055.53
2056.36
2058.26
2059.6
2061.06
2063.72
2072.3
2072.42
2072.57
2072.77
2073.07
2073.34
2073.81
2074.12
2074.78
2075.12
2076
2076.35
2077.48
2077.83
2079.22
2079.59
2081.22
2081.65
2083.44
2084.07
2085.86
2086.95
2088.36
2090.68
2102.67
2102.78
2102.92
2103.1
2103.37
2103.6
2104.02
2104.27
2104.87
2105.13
2105.93
2106.19
2107.23
2107.46
2108.75
2108.97
2110.5
2110.77
2112.45
2112.88
2114.56
2115.41
2116.74
2118.71
2134.16
2134.27
2134.39
2134.56
2134.79
2134.98
2135.35
2135.55
2136.08
2136.27
2137
2137.15
2138.1
2138.21
2139.4
2139.48
2140.9
2141
2142.57
2142.81
2144.38
2145
2146.23
2147.85
2166.8
2166.91
2167.02
2167.16
2167.36
2167.52
2167.84
2167.98
2168.45
2168.57
2169.21
2169.27
2170.12
2170.12
2171.2
2171.14
2172.44
2172.38
2173.83
2173.88
2175.34
2175.72
2176.86
2178.11
2200.61
2200.71
2200.81
2200.93
2201.1
2201.22
2201.49
2201.59
2201.99
2202.03
2202.59
2202.56
2203.32
2203.2
2204.17
2203.97
2205.15
2204.91
2206.25
2206.09
2207.45
2207.59
2208.65
2209.54
2235.61
2235.71
2235.79
2235.89
2236.03
2236.12
2236.34
2236.38
2236.71
2236.68
2237.17
2237.04
2237.7
2237.46
2238.33
2237.98
2239.06
2238.63
2239.86
2239.49
2240.73
2240.63
2241.6
2242.17
2271.82
2271.92
2271.99
2272.07
2272.18
2272.22
2272.4
2272.38
2272.65
2272.55
2272.95
2272.73
2273.3
2272.94
2273.71
2273.21
2274.17
2273.57
2274.68
2274.09
2275.22
2274.85
2275.73
2276
2309.28
2309.37
2309.43
2309.49
2309.56
2309.57
2309.69
2309.62
2309.83
2309.64
2309.97
2309.65
2310.13
2309.65
2310.32
2309.66
2310.52
2309.73
2310.74
2309.91
2310.94
2310.3
2311.08
2311.03
2347.99
2348.09
2348.12
2348.16
2348.21
2348.17
2348.25
2348.12
2348.26
2348
2348.24
2347.83
2348.21
2347.61
2348.17
2347.37
2348.13
2347.15
2348.06
2346.99
2347.93
2347
2347.7
2347.28
2387.99
2388.08
2388.1
2388.12
2388.13
2388.06
2388.08
2387.9
2387.97
2387.63
2387.79
2387.28
2387.57
2386.84
2387.3
2386.35
2387
2385.83
2386.64
2385.34
2386.19
2384.96
2385.6
2384.81
2429.3
2429.38
2429.39
2429.39
2429.36
2429.25
2429.22
2428.98
2428.98
2428.56
2428.64
2428.02
2428.22
2427.37
2427.72
2426.61
2427.16
2425.8
2426.51
2424.97
2425.75
2424.22
2424.8
2423.65
2471.93
2472.01
2472.01
2471.98
2471.92
2471.77
2471.69
2471.38
2471.31
2470.82
2470.81
2470.09
2470.18
2469.21
2469.45
2468.19
2468.63
2467.07
2467.69
2465.9
2466.61
2464.77
2465.32
2463.77
2515.91
2515.99
2515.97
2515.92
2515.82
2515.63
2515.49
2515.13
2514.99
2514.41
2514.31
2513.5
2513.49
2512.38
2512.53
2511.1
2511.43
2509.67
2510.2
2508.15
2508.81
2506.63
2507.19
2505.2
2561.25
2561.33
2561.29
2561.22
2561.09
2560.86
2560.67
2560.24
2560.03
2559.37
2559.18
2558.26
2558.16
2556.92
2556.95
2555.36
2555.59
2553.62
2554.06
2551.74
2552.34
2549.81
2550.42
2547.99
2607.98
2608.06
2608
2607.91
2607.74
2607.47
2607.22
2606.73
2606.44
2605.71
2605.43
2604.4
2604.2
2602.82
2602.76
2600.99
2601.13
2598.93
2599.31
2596.7
2597.27
2594.36
2594.98
2592.14
2656.11
2656.18
2656.11
2655.99
2655.79
2655.47
2655.17
2654.62
2654.26
2653.44
2653.08
2651.94
2651.64
2650.12
2649.96
2648.02
2648.06
2645.63
2645.95
2643.03
2643.61
2640.29
2640.93
2637.68
2705.64
2705.71
2705.62
2705.48
2705.24
2704.88
2704.52
2703.91
2703.48
2702.58
2702.13
2700.88
2700.49
2698.83
2698.58
2696.44
2696.41
2693.74
2694.01
2690.75
2691.4
2687.63
2688.28
2684.63
2756.58
2756.65
2756.55
2756.39
2756.11
2755.72
2755.3
2754.63
2754.13
2753.14
2752.61
2751.24
2750.77
2748.95
2748.62
2746.29
2746.2
2743.25
2743.52
2739.91
2740.55
2736.44
2737.06
2733.01
2808.96
2809.02
2808.9
2808.72
2808.41
2807.98
2807.51
2806.77
2806.21
2805.13
2804.52
2803.03
2802.48
2800.51
2800.12
2797.56
2797.45
2794.18
2794.53
2790.51
2791.14
2786.7
2787.27
2782.85
2862.76
2862.82
2862.69
2862.49
2862.13
2861.67
2861.14
2860.35
2859.72
2858.55
2857.88
2856.27
2855.66
2853.5
2853.08
2850.27
2850.18
2846.59
2846.92
2842.61
2843.18
2838.44
2838.96
2834.16
2917.99
2918.05
2917.9
2917.68
2917.29
2916.79
2916.22
2915.37
2914.68
2913.42
2912.7
2910.94
2910.3
2907.93
2907.54
2904.43
2904.38
2900.47
2900.77
2896.21
2896.69
2891.67
2892.13
2886.97
2974.64
2974.7
2974.54
2974.31
2973.88
2973.35
2972.73
2971.83
2971.08
2969.72
2968.98
2967.04
2966.44
2963.79
2963.47
2960.05
2960.01
2955.89
2956.08
2951.31
2951.7
2946.4
2946.79
2941.28
3032.72
3032.79
3032.61
3032.37
3031.91
3031.35
3030.68
3029.71
3028.95
3027.45
3026.74
3024.58
3024.03
3021.17
3020.8
3017.24
3017.08
3012.8
3012.89
3007.91
3008.2
3002.64
3002.97
2997.11
3092.22
3092.3
3092.09
3091.86
3091.35
3090.79
3090.06
3089.03
3088.28
3086.63
3085.92
3083.64
3083.02
3080.06
3079.59
3075.91
3075.65
3071.21
3071.2
3066.02
3066.22
3060.4
3060.68
3054.48
3153.14
3153.23
3152.99
3152.78
3152.21
3151.66
3150.87
3149.81
3149
3147.3
3146.53
3144.17
3143.48
3140.42
3139.86
3136.07
3135.7
3131.13
3131.01
3125.65
3125.76
3119.7
3119.91
3113.38
3215.48
3215.57
3215.33
3215.09
3214.52
3213.94
3213.09
3212.07
3211.14
3209.43
3208.59
3206.16
3205.39
3202.26
3201.61
3197.71
3197.25
3192.55
3192.33
3186.79
3186.81
3180.52
3180.68
3173.83
3279.24
3279.33
3279.09
3278.83
3278.25
3277.65
3276.75
3275.75
3274.69
3273.04
3272.07
3269.61
3268.77
3265.57
3264.83
3260.85
3260.29
3255.46
3255.15
3249.45
3249.39
3242.87
3242.97
3235.83
3344.41
3344.5
3344.26
3343.99
3343.4
3342.78
3341.86
3340.85
3339.69
3338.09
3336.96
3334.55
3333.6
3330.34
3329.52
3325.46
3324.82
3319.87
3319.47
3313.62
3313.47
3306.75
3306.8
3299.36
3411
3411.09
3410.85
3410.58
3409.98
3409.34
3408.39
3407.37
3406.15
3404.57
3403.32
3400.95
3399.86
3396.57
3395.68
3391.54
3390.82
3385.76
3385.28
3379.28
3379.06
3372.14
3372.13
3364.42
3479.01
3479.11
3478.87
3478.59
3477.98
3477.34
3476.36
3475.33
3474.05
3472.48
3471.13
3468.79
3467.57
3464.29
3463.29
3459.08
3458.28
3453.12
3452.56
3446.42
3446.13
3439.03
3438.97
3431.01
3548.47
3548.57
3548.33
3548.05
3547.42
3546.77
3545.77
3544.72
3543.4
3541.84
3540.4
3538.06
3536.74
3533.44
3532.35
3528.07
3527.2
3521.93
3521.3
3515.03
3514.66
3507.4
3507.28
3499.08
3619.38
3619.49
3619.24
3618.96
3618.32
3617.66
3616.63
3615.56
3614.19
3612.63
3611.11
3608.76
3607.35
3604.01
3602.83
3598.5
3597.55
3592.18
3591.48
3585.09
3584.64
3577.22
3577.05
3568.63
3691.76
3691.88
3691.62
3691.34
3690.67
3690
3688.94
3687.85
3686.43
3684.86
3683.24
3680.89
3679.38
3676
3674.75
3670.33
3669.31
3663.84
3663.07
3656.56
3656.04
3648.48
3648.25
3639.63
3765.62
3765.75
3765.47
3765.19
3764.49
3763.8
3762.7
3761.59
3760.1
3758.51
3756.78
3754.43
3752.8
3749.39
3748.05
3743.55
3742.47
3736.9
3736.06
3729.43
3728.84
3721.14
3720.87
3712.07
3840.95
3841.09
3840.8
3840.5
3839.77
3839.05
3837.9
3836.75
3835.2
3833.56
3831.72
3829.37
3827.6
3824.18
3822.73
3818.14
3817.01
3811.33
3810.41
3803.69
3803.03
3795.2
3794.88
3785.91
3917.73
3917.87
3917.56
3917.24
3916.48
3915.72
3914.51
3913.3
3911.68
3909.99
3908.04
3905.69
3903.75
3900.34
3898.74
3894.1
3892.9
3887.12
3886.12
3879.31
3878.58
3870.65
3870.27
3861.17
3995.88
3996.02
3995.7
3995.34
3994.55
3993.73
3992.47
3991.2
3989.5
3987.75
3985.69
3983.33
3981.21
3977.85
3976.06
3971.42
3970.08
3964.25
3963.19
3956.3
3955.5
3947.48
3947.05
3937.82
4075.27
4075.4
4075.07
4074.69
4073.87
4073.01
4071.71
4070.37
4068.61
4066.8
4064.65
4062.27
4059.98
4056.68
4054.65
4050.11
4048.56
4042.74
4041.62
4034.66
4033.79
4025.7
4025.23
4015.89
4155.71
4155.85
4155.52
4155.12
4154.3
4153.41
4152.08
4150.72
4148.92
4147.07
4144.86
4142.46
4140.04
4136.79
4134.56
4130.14
4128.39
4122.6
4121.38
4114.4
4113.47
4105.33
4104.83
4095.41
4237.01
4237.16
4236.85
4236.45
4235.65
4234.77
4233.46
4232.1
4230.31
4228.47
4226.24
4223.85
4221.37
4218.18
4215.79
4211.49
4209.53
4203.88
4202.48
4195.56
4194.57
4186.4
4185.89
4176.41
4318.99
4319.15
4318.87
4318.52
4317.76
4316.93
4315.69
4314.4
4312.67
4310.9
4308.72
4306.4
4303.92
4300.84
4298.36
4294.21
4292.08
4286.58
4285.03
4278.16
4277.15
4268.95
4268.44
4258.93
4401.54
4401.72
4401.49
4401.2
4400.53
4399.8
4398.67
4397.5
4395.9
4394.27
4392.21
4390.04
4387.65
4384.72
4382.26
4378.29
4376.07
4370.76
4369.11
4362.25
4361.25
4353.02
4352.53
4342.98
4484.72
4484.93
4484.76
4484.55
4483.99
4483.39
4482.41
4481.4
4479.98
4478.54
4476.67
4474.71
4472.49
4469.77
4467.45
4463.7
4461.51
4456.44
4454.72
4448.01
4446.97
4438.69
4438.22
4428.6
4568.8
4569.04
4568.92
4568.81
4568.34
4567.89
4567.05
4566.23
4564.99
4563.76
4562.11
4560.4
4558.4
4555.94
4553.84
4550.35
4548.33
4543.51
4541.9
4535.35
4534.4
4526.06
4525.63
4515.85
4654.28
4654.57
4654.47
4654.45
4654.04
4653.71
4652.96
4652.31
4651.19
4650.17
4648.69
4647.22
4645.42
4643.22
4641.41
4638.1
4636.47
4631.74
4630.57
4624.07
4623.49
4615.16
4614.85
4604.94
4741.92
4742.27
4742.11
4742.21
4741.7
4741.54
4740.67
4740.24
4739.03
4738.24
4736.74
4735.47
4733.76
4731.72
4730.29
4726.78
4726
4720.81
4720.58
4713.84
4713.9
4705.72
4705.73
4696.2
4832.6
4832.93
4832.82
4832.78
4832.34
4831.98
4831.2
4830.53
4829.4
4828.42
4826.95
4825.61
4823.85
4821.98
4820.39
4817.07
4816.39
4811.27
4811.31
4804.67
4805.13
4797.09
4797.56
4788.66
4927.21
4927.51
4927.36
4927.22
4926.67
4926.13
4925.18
4924.28
4922.94
4921.69
4920
4918.41
4916.41
4914.4
4912.37
4909.35
4908.06
4903.23
4903.15
4896.45
4897.15
4888.94
4889.78
4880.96
5026.48
5026.75
5026.52
5026.25
5025.51
5024.74
5023.5
5022.28
5020.57
5018.91
5016.78
5014.74
5012.27
5009.83
5007.22
5003.97
5002
4997.18
4996.53
4989.55
4990.32
4981.62
4982.73
4973.52
5130.86
5131.15
5130.78
5130.4
5129.42
5128.41
5126.82
5125.23
5123.03
5120.92
5118.17
5115.56
5112.39
5109.29
5105.88
5101.99
5099.21
5093.72
5092.47
5084.68
5085.25
5075.69
5076.92
5066.89
5240.5
5240.84
5240.3
5239.85
5238.62
5237.41
5235.42
5233.56
5230.76
5228.33
5224.76
5221.73
5217.58
5213.81
5209.45
5204.61
5200.97
5194.08
5192.15
5183
5182.93
5172.04
5173.1
5161.72
5355.2
5355.49
5354.99
5354.33
5353.04
5351.52
5349.39
5347.07
5344.08
5340.98
5337.15
5333.28
5328.66
5324.01
5318.73
5313.2
5307.89
5300.34
5296.78
5286.29
5284.88
5272.13
5272.49
5258.95
5474.43
5474.69
5474.19
5473.43
5472.07
5470.4
5468.12
5465.58
5462.36
5458.94
5454.78
5450.46
5445.38
5440.14
5434.19
5427.94
5421.36
5413.62
5407.4
5396.81
5392.92
5378.31
5377.16
5360.34
5597.45
5597.7
5597.21
5596.42
5595.02
5593.3
5590.94
5588.3
5584.97
5581.4
5577.08
5572.55
5567.22
5561.69
5555.37
5548.71
5541.53
5533.37
5525.77
5515.28
5508.43
5493.67
5489.99
5469.29
5723.44
5723.69
5723.21
5722.44
5721.05
5719.34
5716.99
5714.36
5711.02
5707.45
5703.11
5698.57
5693.2
5687.64
5681.24
5674.53
5667.21
5658.98
5651.05
5640.65
5632.76
5618.59
5612.98
5590.46
5851.5
5851.78
5851.34
5850.61
5849.26
5847.62
5845.33
5842.78
5839.52
5836.06
5831.81
5827.41
5822.15
5816.74
5810.48
5803.96
5796.78
5788.77
5781.16
5770.83
5763.76
5749.46
5744.96
5724.32
5980.82
5981.14
5980.73
5980.06
5978.79
5977.24
5975.06
5972.65
5969.52
5966.24
5962.15
5957.98
5952.92
5947.79
5941.77
5935.59
5928.7
5921.12
5913.89
5904.04
5897.56
5883.82
5879.74
5860.53
6110.63
6110.98
6110.61
6110.03
6108.84
6107.42
6105.35
6103.12
6100.16
6097.1
6093.22
6089.33
6084.52
6079.74
6074.03
6068.25
6061.74
6054.67
6047.84
6038.63
6032.58
6019.72
6015.9
5998.01
6240.24
6240.65
6240.31
6239.83
6238.71
6237.45
6235.51
6233.48
6230.68
6227.91
6224.23
6220.69
6216.13
6211.76
6206.36
6201.04
6194.92
6188.42
6182.01
6173.42
6167.89
6155.94
6152.35
6135.77
6369.11
6369.57
6369.21
6368.89
6367.8
6366.75
6364.87
6363.14
6360.43
6358.04
6354.47
6351.42
6346.99
6343.19
6337.99
6333.26
6327.48
6321.57
6315.61
6307.7
6302.56
6291.6
6288.22
6272.98
6496.7
6497.19
6496.85
6496.66
6495.6
6494.77
6492.96
6491.54
6488.9
6486.94
6483.43
6480.93
6476.56
6473.44
6468.31
6464.36
6458.73
6453.52
6448.01
6440.75
6435.99
6426.05
6422.87
6408.97
6622.58
6623.08
6622.83
6622.64
6621.79
6620.97
6619.46
6618.07
6615.82
6613.93
6610.87
6608.51
6604.61
6601.76
6597.08
6593.57
6588.35
6583.79
6578.54
6572.08
6567.68
6558.76
6555.77
6543.19
6746.39
6746.89
6746.71
6746.56
6745.86
6745.11
6743.82
6742.54
6740.6
6738.83
6736.18
6733.96
6730.58
6727.9
6723.79
6720.55
6715.86
6711.82
6706.89
6701.36
6697.22
6689.27
6686.47
6675.18
6867.8
6868.31
6868.2
6868.09
6867.51
6866.86
6865.76
6864.62
6862.93
6861.34
6859.02
6857.02
6854.04
6851.62
6847.98
6845.09
6840.88
6837.33
6832.78
6828.16
6824.15
6817.18
6814.58
6804.57
6986.56
6987.07
6987.01
6986.96
6986.49
6985.94
6985
6984.02
6982.54
6981.17
6979.13
6977.38
6974.75
6972.63
6969.41
6966.88
6963.12
6960.06
6955.93
6952.02
6948.17
6942.26
6939.84
6931.06
7102.45
7102.96
7102.94
7102.94
7102.57
7102.12
7101.33
7100.5
7099.24
7098.06
7096.29
7094.79
7092.49
7090.67
7087.83
7085.67
7082.33
7079.74
7076.04
7072.76
7069.13
7064.2
7061.97
7054.37
7215.27
7215.78
7215.81
7215.87
7215.56
7215.25
7214.56
7213.91
7212.82
7211.85
7210.32
7209.06
7207.07
7205.54
7203.06
7201.26
7198.32
7196.17
7192.88
7190.18
7186.85
7182.88
7180.72
7174.29
7324.9
7325.4
7325.48
7325.54
7325.39
7325.08
7324.61
7324.03
7323.17
7322.36
7321.08
7320.05
7318.34
7317.1
7314.96
7313.49
7310.93
7309.19
7306.3
7304.12
7301.16
7298.03
7296
7290.62
7431.2
7431.71
7431.77
7431.99
7431.74
7431.73
7431.18
7430.9
7430.09
7429.53
7428.43
7427.64
7426.19
7425.22
7423.39
7422.26
7420.05
7418.71
7416.19
7414.5
7411.89
7409.51
7407.62
7403.22
7534.1
7534.59
7534.76
7534.83
7534.94
7534.66
7534.57
7534.13
7533.68
7533.16
7532.33
7531.72
7530.54
7529.82
7528.28
7527.46
7525.58
7524.61
7522.46
7521.24
7518.99
7517.21
7515.47
7512.04
7633.55
7634.04
7634.12
7634.49
7634.26
7634.56
7634.06
7634.17
7633.55
7633.39
7632.63
7632.28
7631.3
7630.84
7629.57
7629.03
7627.46
7626.85
7625.02
7624.23
7622.32
7621.1
7619.52
7617
7729.48
7729.94
7730.19
7730.27
7730.57
7730.37
7730.56
7730.25
7730.17
7729.89
7729.46
7729.22
7728.49
7728.23
7727.22
7726.96
7725.67
7725.38
7723.86
7723.47
7721.86
7721.13
7719.79
7718.07
7821.92
7822.4
7822.49
7822.96
7822.79
7823.28
7822.9
7823.3
7822.85
7823.05
7822.58
7822.61
7822.03
7822.01
7821.23
7821.21
7820.19
7820.2
7818.97
7818.95
7817.62
7817.36
7816.24
7815.26
7910.83
7911.26
7911.56
7911.68
7912.09
7911.99
7912.39
7912.22
7912.43
7912.36
7912.28
7912.34
7912.01
7912.15
7911.59
7911.81
7911.04
7911.33
7910.36
7910.68
7909.63
7909.81
7908.93
7908.57
7996.28
7996.74
7996.85
7997.38
7997.28
7997.9
7997.65
7998.26
7997.99
7998.46
7998.25
7998.59
7998.36
7998.7
7998.34
7998.77
7998.23
7998.77
7998.06
7998.7
7997.88
7998.48
7997.81
7998.02
8078.26
8078.65
8078.99
8079.14
8079.63
8079.63
8080.16
8080.16
8080.56
8080.71
8080.89
8081.22
8081.21
8081.69
8081.52
8082.14
8081.8
8082.58
8082.08
8083.01
8082.42
8083.39
8082.89
8083.64
8156.86
8157.3
8157.42
8157.99
8157.96
8158.66
8158.54
8159.27
8159.2
8159.85
8159.88
8160.47
8160.53
8161.18
8161.16
8161.96
8161.81
8162.8
8162.5
8163.69
8163.28
8164.61
8164.24
8165.48
8232.12
8232.47
8232.82
8233.01
8233.54
8233.65
8234.25
8234.42
8234.93
8235.29
8235.65
8236.23
8236.47
8237.23
8237.36
8238.31
8238.32
8239.51
8239.38
8240.81
8240.56
8242.2
8241.95
8243.63
8304.12
8304.52
8304.66
8305.23
8305.28
8306
8306.05
8306.81
8306.96
8307.7
8307.96
8308.73
8309.03
8309.92
8310.18
8311.27
8311.43
8312.78
8312.8
8314.45
8314.34
8316.26
8316.11
8318.17
8372.94
8373.26
8373.6
8373.83
8374.37
8374.59
8375.2
8375.55
8376.11
8376.67
8377.15
8377.93
8378.36
8379.34
8379.71
8380.93
8381.21
8382.72
8382.87
8384.71
8384.73
8386.89
8386.83
8389.22
8438.67
8439.02
8439.19
8439.73
8439.88
8440.57
8440.78
8441.53
8441.87
8442.67
8443.12
8444.02
8444.51
8445.59
8446.06
8447.39
8447.78
8449.42
8449.69
8451.7
8451.82
8454.2
8454.21
8456.9
8501.39
8501.69
8502
8502.29
8502.78
8503.13
8503.71
8504.22
8504.8
8505.52
8506.1
8507.03
8507.61
8508.77
8509.33
8510.75
8511.24
8513
8513.37
8515.52
8515.74
8518.32
8518.39
8521.32
8561.21
8561.53
8561.73
8562.2
8562.47
8563.09
8563.46
8564.18
8564.67
8565.52
8566.1
8567.11
8567.74
8568.97
8569.61
8571.12
8571.7
8573.55
8574.02
8576.29
8576.59
8579.32
8579.42
8582.69
8618.23
8618.5
8618.78
8619.12
8619.55
8620.03
8620.56
8621.2
8621.79
8622.63
8623.28
8624.33
8625.02
8626.31
8627.02
8628.6
8629.26
8631.2
8631.74
8634.12
8634.5
8637.37
8637.53
8640.98
8672.54
8672.81
8673.04
8673.45
8673.81
8674.37
8674.85
8675.57
8676.15
8677.04
8677.72
8678.81
8679.55
8680.89
8681.66
8683.3
8684.03
8686.04
8686.66
8689.13
8689.57
8692.57
8692.78
8696.39
8724.24
8724.49
8724.74
8725.12
8725.52
8726.05
8726.57
8727.28
8727.91
8728.82
8729.53
8730.66
8731.44
8732.82
8733.64
8735.33
8736.12
8738.2
8738.88
8741.43
8741.93
8745.04
8745.29
8749.04
8773.44
8773.68
8773.92
8774.3
8774.69
8775.24
8775.76
8776.5
8777.13
8778.07
8778.81
8779.97
8780.78
8782.21
8783.06
8784.8
8785.64
8787.77
8788.51
8791.13
8791.68
8794.88
8795.17
8799.04
8820.24
8820.46
8820.7
8821.08
8821.47
8822.02
8822.55
8823.3
8823.95
8824.9
8825.66
8826.85
8827.69
8829.15
8830.03
8831.81
8832.69
8834.86
8835.66
8838.32
8838.93
8842.2
8842.53
8846.5
8864.74
8864.94
8865.18
8865.55
8865.94
8866.5
8867.03
8867.79
8868.45
8869.42
8870.19
8871.4
8872.26
8873.74
8874.66
8876.47
8877.38
8879.59
8880.42
8883.13
8883.78
8887.1
8887.46
8891.53
8907.02
8907.22
8907.45
8907.82
8908.21
8908.76
8909.3
8910.06
8910.73
8911.71
8912.5
8913.72
8914.6
8916.1
8917.03
8918.87
8919.8
8922.04
8922.89
8925.64
8926.32
8929.69
8930.07
8934.2
8947.2
8947.39
8947.61
8947.97
8948.36
8948.92
8949.46
8950.22
8950.9
8951.88
8952.68
8953.91
8954.8
8956.32
8957.26
8959.13
8960.06
8962.34
8963.19
8965.98
8966.65
8970.06
8970.44
8974.61
8985.37
8985.54
8985.76
8986.12
8986.5
8987.06
8987.59
8988.36
8989.04
8990.03
8990.83
8992.07
8992.97
8994.5
8995.45
8997.33
8998.26
9000.57
9001.41
9004.23
9004.9
9008.34
9008.71
9012.89
9021.61
9021.77
9021.99
9022.34
9022.72
9023.27
9023.81
9024.57
9025.25
9026.25
9027.05
9028.3
9029.19
9030.73
9031.68
9033.57
9034.51
9036.83
9037.67
9040.51
9041.16
9044.63
9044.99
9049.18
9056.02
9056.17
9056.38
9056.72
9057.1
9057.65
9058.18
9058.95
9059.62
9060.62
9061.42
9062.67
9063.56
9065.11
9066.06
9067.95
9068.89
9071.21
9072.06
9074.9
9075.56
9079.02
9079.39
9083.57
9088.68
9088.82
9089.02
9089.36
9089.73
9090.28
9090.81
9091.57
9092.24
9093.24
9094.03
9095.29
9096.18
9097.73
9098.67
9100.57
9101.51
9103.83
9104.68
9107.51
9108.17
9111.63
9111.99
9116.18
9119.67
9119.8
9120
9120.34
9120.7
9121.25
9121.77
9122.53
9123.19
9124.19
9124.98
9126.23
9127.12
9128.66
9129.61
9131.5
9132.44
9134.75
9135.6
9138.42
9139.09
9142.53
9142.9
9147.08
9149.07
9149.2
9149.39
9149.72
9150.08
9150.62
9151.14
9151.9
9152.55
9153.55
9154.33
9155.58
9156.46
9158
9158.94
9160.83
9161.76
9164.06
9164.91
9167.73
9168.39
9171.82
9172.19
9176.35
9176.97
9177.09
9177.28
9177.6
9177.95
9178.49
9179
9179.75
9180.4
9181.39
9182.16
9183.41
9184.28
9185.82
9186.75
9188.63
9189.56
9191.85
9192.7
9195.5
9196.16
9199.58
9199.93
9204.08
9203.42
9203.54
9203.72
9204.04
9204.39
9204.92
9205.42
9206.17
9206.81
9207.79
9208.56
9209.8
9210.66
9212.19
9213.11
9214.99
9215.9
9218.18
9219.03
9221.81
9222.48
9225.85
9226.21
9230.34
9228.51
9228.62
9228.8
9229.11
9229.45
9229.98
9230.47
9231.22
9231.85
9232.83
9233.58
9234.82
9235.66
9237.19
9238.1
9239.97
9240.87
9243.14
9243.96
9246.73
9247.34
9250.79
9251.11
9255.2
9252.3
9252.4
9252.58
9252.89
9253.22
9253.74
9254.22
9254.96
9255.58
9256.56
9257.3
9258.53
9259.36
9260.89
9261.77
9263.64
9264.52
9266.78
9267.59
9270.34
9270.95
9274.36
9274.67
9278.73
9274.85
9274.94
9275.11
9275.42
9275.75
9276.26
9276.73
9277.47
9278.08
9279.06
9279.77
9281.01
9281.81
9283.34
9284.2
9286.06
9286.92
9289.18
9289.96
9292.7
9293.29
9296.66
9296.97
9300.99
9296.22
9296.31
9296.47
9296.78
9297.09
9297.61
9298.07
9298.81
9299.39
9300.37
9301.07
9302.31
9303.08
9304.62
9305.44
9307.31
9308.13
9310.39
9311.13
9313.88
9314.44
9317.78
9318.07
9322.05
9316.47
9316.56
9316.72
9317.02
9317.33
9317.84
9318.28
9319.02
9319.59
9320.57
9321.24
9322.48
9323.23
9324.77
9325.55
9327.43
9328.2
9330.48
9331.16
9333.94
9334.44
9337.77
9338.04
9341.97
9335.65
9335.74
9335.89
9336.19
9336.49
9337
9337.43
9338.17
9338.72
9339.7
9340.35
9341.59
9342.31
9343.86
9344.6
9346.49
9347.21
9349.51
9350.16
9352.89
9353.36
9356.68
9356.93
9360.81
9353.82
9353.9
9354.06
9354.35
9354.64
9355.15
9355.57
9356.3
9356.84
9357.82
9358.44
9359.69
9360.37
9361.93
9362.63
9364.53
9365.21
9367.51
9368.08
9370.88
9371.28
9374.57
9374.8
9378.63
9371.03
9371.11
9371.25
9371.55
9371.83
9372.33
9372.74
9373.48
9373.99
9374.97
9375.57
9376.82
9377.48
9379.03
9379.7
9381.61
9382.23
9384.56
9385.08
9387.86
9388.24
9391.51
9391.71
9395.49
9387.31
9387.39
9387.53
9387.82
9388.1
9388.6
9389
9389.73
9390.23
9391.21
9391.79
9393.03
9393.66
9395.22
9395.86
9397.77
9398.37
9400.65
9401.15
9403.93
9404.28
9407.52
9407.72
9411.46
9402.72
9402.8
9402.94
9403.23
9403.49
9404
9404.38
9405.11
9405.59
9406.57
9407.12
9408.38
9408.97
9410.53
9411.13
9413.05
9413.58
9415.93
9416.36
9419.13
9419.45
9422.66
9422.84
9426.54
9417.3
9417.38
9417.51
9417.8
9418.06
9418.56
9418.93
9419.66
9420.12
9421.11
9421.62
9422.89
9423.45
9425.02
9425.55
9427.53
9428
9430.34
9430.73
9433.49
9433.79
9436.97
9437.14
9440.79
9431.09
9431.16
9431.29
9431.58
9431.82
9432.33
9432.68
9433.42
9433.85
9434.85
9435.33
9436.63
9437.13
9438.73
9439.2
9441.19
9441.61
9443.96
9444.32
9447.06
9447.34
9450.49
9450.65
9454.24
9444.12
9444.19
9444.31
9444.6
9444.84
9445.35
9445.67
9446.43
9446.82
9447.85
9448.28
9449.59
9450.03
9451.68
9452.11
9454.09
9454.48
9456.82
9457.16
9459.88
9460.14
9463.25
9463.41
9466.95
9456.42
9456.5
9456.61
9456.91
9457.12
9457.65
9457.95
9458.71
9459.07
9460.12
9460.51
9461.85
9462.25
9463.9
9464.29
9466.27
9466.64
9468.96
9469.29
9471.97
9472.22
9475.3
9475.45
9478.94
9468.04
9468.11
9468.22
9468.52
9468.72
9469.26
9469.53
9470.31
9470.64
9471.7
9472.06
9473.4
9473.77
9475.42
9475.8
9477.76
9478.11
9480.42
9480.73
9483.38
9483.63
9486.66
9486.8
9490.25
9478.99
9479.07
9479.17
9479.47
9479.66
9480.2
9480.46
9481.25
9481.56
9482.61
9482.95
9484.29
9484.65
9486.29
9486.65
9488.59
9488.93
9491.21
9491.51
9494.14
9494.37
9497.38
9497.51
9500.92
9489.32
9489.4
9489.5
9489.79
9489.98
9490.51
9490.76
9491.55
9491.85
9492.89
9493.23
9494.55
9494.9
9496.52
9496.87
9498.8
9499.13
9501.38
9501.67
9504.27
9504.5
9507.47
9507.6
9510.96
9499.05
9499.12
9499.22
9499.51
9499.7
9500.22
9500.47
9501.24
9501.54
9502.57
9502.9
9504.21
9504.55
9506.16
9506.49
9508.41
9508.72
9510.96
9511.24
9513.81
9514.03
9516.96
9517.08
9520.4
9508.19
9508.27
9508.37
9508.65
9508.84
9509.35
9509.6
9510.36
9510.65
9511.68
9511.99
9513.3
9513.63
9515.22
9515.54
9517.44
9517.75
9519.96
9520.23
9522.77
9522.98
9525.88
9526
9529.28
9516.79
9516.86
9516.97
9517.24
9517.43
9517.93
9518.18
9518.93
9519.22
9520.23
9520.54
9521.83
9522.15
9523.72
9524.04
9525.92
9526.22
9528.4
9528.67
9531.18
9531.39
9534.25
9534.37
9537.61
9524.86
9524.92
9525.04
9525.29
9525.5
9525.97
9526.24
9526.95
9527.27
9528.24
9528.56
9529.83
9530.14
9531.7
9532.01
9533.87
9534.16
9536.32
9536.58
9539.07
9539.27
9542.1
9542.22
9545.42
9532.42
9532.48
9532.6
9532.83
9533.07
9533.49
9533.81
9534.46
9534.82
9535.74
9536.07
9537.31
9537.63
9539.17
9539.47
9541.32
9541.59
9543.74
9543.98
9546.45
9546.64
9549.44
9549.55
9552.72
9539.49
9539.55
9539.68
9539.89
9540.15