/*--------------------------------*- C++ -*----------------------------------*\
  =========                 |
  \\      /  F ield         | OpenFOAM: The Open Source CFD Toolbox
   \\    /   O peration     | Website:  https://openfoam.org
    \\  /    A nd           | Version:  10
     \\/     M anipulation  |
\*---------------------------------------------------------------------------*/
FoamFile
{
    format      ascii;
    class       surfaceScalarField;
    location    "0.47";
    object      phi;
}
// * * * * * * * * * * * * * * * * * * * * * * * * * * * * * * * * * * * * * //

dimensions      [1 0 -1 0 0 0 0];

internalField   nonuniform List<scalar> 
8154
(
-5.76249e-09
-2.18653e-08
-5.64929e-08
-9.12806e-08
-1.71156e-07
-2.25712e-07
-3.69943e-07
-4.54171e-07
-6.74129e-07
-8.13209e-07
-1.10381e-06
-1.33676e-06
-1.66794e-06
-2.02766e-06
-2.36035e-06
-2.86534e-06
-3.25597e-06
-3.98668e-06
-4.56714e-06
-5.51244e-06
-6.83232e-06
-7.23536e-06
-6.85757e-06
-0.000277438
-0.000832369
2.40818e-08
-0.00138746
9.6454e-08
-0.00194288
2.13641e-07
-0.00249867
3.78612e-07
-0.00305503
5.77525e-07
-0.00361203
8.23839e-07
-0.00416972
1.08826e-06
-0.00472845
1.39786e-06
-0.0052879
1.71127e-06
-0.00584878
2.05686e-06
-0.00641056
2.4034e-06
-0.00697377
2.74875e-06
-0.00753867
3.12047e-06
-0.0081041
3.43603e-06
-0.0086731
3.85082e-06
-0.00924024
4.12718e-06
-0.00981488
4.57376e-06
-0.0103833
4.9231e-06
-0.0109646
5.13765e-06
-0.0115337
5.27939e-06
-0.0121235
5.11399e-06
-0.0126948
4.03195e-06
-0.0132929
2.44843e-06
-0.000277462
-0.000832441
2.63876e-08
-0.00138758
1.04966e-07
-0.00194304
2.35001e-07
-0.00249887
4.1063e-07
-0.00305527
6.35414e-07
-0.00361229
8.89808e-07
-0.00417003
1.19443e-06
-0.00472876
1.50116e-06
-0.00528824
1.86715e-06
-0.00584912
2.19139e-06
-0.00641091
2.59395e-06
-0.00697414
2.89345e-06
-0.00753898
3.2992e-06
-0.00810452
3.5392e-06
-0.00867338
3.90512e-06
-0.00924068
4.10638e-06
-0.00981523
4.39051e-06
-0.0103835
5.00068e-06
-0.0109647
4.66423e-06
-0.0115336
5.23277e-06
-0.0121224
5.3294e-06
-0.0126932
5.04195e-06
-0.0132905
4.22738e-06
-0.000277489
-0.000832519
2.13128e-08
-0.00138771
8.50435e-08
-0.00194322
1.88262e-07
-0.0024991
3.30889e-07
-0.00305553
5.01986e-07
-0.0036126
7.07509e-07
-0.00417034
9.22367e-07
-0.00472913
1.16645e-06
-0.00528857
1.39419e-06
-0.00584953
1.64253e-06
-0.00641121
1.84701e-06
-0.00697455
2.0505e-06
-0.00753922
2.1977e-06
-0.00810488
2.28397e-06
-0.00867358
2.35475e-06
-0.00924097
2.20839e-06
-0.00981584
2.34446e-06
-0.0103831
1.89811e-06
-0.0109653
1.77885e-06
-0.0115337
1.39172e-06
-0.0121221
1.15698e-06
-0.0126924
7.20656e-07
-0.0132863
5.12413e-07
-0.00027751
-0.000832583
2.55328e-08
-0.00138781
1.01952e-07
-0.00194336
2.26142e-07
-0.00249927
3.98049e-07
-0.00305573
6.05626e-07
-0.00361281
8.55727e-07
-0.00417058
1.11916e-06
-0.00472936
1.42056e-06
-0.00528882
1.70256e-06
-0.00584973
2.01757e-06
-0.00641141
2.27283e-06
-0.00697469
2.54907e-06
-0.00753931
2.73405e-06
-0.00810495
2.8953e-06
-0.00867343
2.98641e-06
-0.0092411
2.89997e-06
-0.0098154
2.9759e-06
-0.010383
2.28106e-06
-0.0109649
2.51308e-06
-0.0115335
1.72503e-06
-0.0121217
1.21041e-06
-0.0126922
3.79435e-07
-0.0132858
-1.76132e-07
-0.000277535
-0.000832659
3.36297e-08
-0.00138794
1.34256e-07
-0.00194353
2.99185e-07
-0.00249948
5.26562e-07
-0.00305598
8.07847e-07
-0.00361308
1.14167e-06
-0.00417088
1.51164e-06
-0.00472964
1.91911e-06
-0.00528913
2.33912e-06
-0.00584998
2.77404e-06
-0.00641169
3.19489e-06
-0.00697488
3.59666e-06
-0.00753947
3.96453e-06
-0.00810505
4.25888e-06
-0.00867334
4.52312e-06
-0.00924118
4.6177e-06
-0.00981471
4.73264e-06
-0.0103832
4.39925e-06
-0.0109641
4.36131e-06
-0.0115329
3.67259e-06
-0.0121209
3.22049e-06
-0.0126916
2.26914e-06
-0.0132859
1.34237e-06
-0.000277569
-0.00083276
3.75351e-08
-0.0013881
1.49861e-07
-0.00194376
3.34277e-07
-0.00249976
5.88446e-07
-0.00305632
9.04167e-07
-0.00361345
1.27828e-06
-0.00417129
1.69586e-06
-0.00473006
2.15391e-06
-0.00528957
2.63109e-06
-0.0058504
3.12171e-06
-0.00641209
3.60317e-06
-0.00697525
4.05883e-06
-0.00753977
4.48195e-06
-0.00810531
4.82151e-06
-0.00867343
5.12476e-06
-0.00924129
5.25248e-06
-0.00981437
5.37184e-06
-0.0103832
5.08157e-06
-0.0109634
4.96009e-06
-0.0115325
4.21585e-06
-0.0121199
3.69019e-06
-0.0126907
2.63757e-06
-0.0132846
1.6043e-06
-0.000277607
-0.000832872
4.13528e-08
-0.00138829
1.6512e-07
-0.00194402
3.68459e-07
-0.00250007
6.48791e-07
-0.00305669
9.97539e-07
-0.00361386
1.41108e-06
-0.00417175
1.87373e-06
-0.00473054
2.3819e-06
-0.00529006
2.91259e-06
-0.00585088
3.45982e-06
-0.00641254
3.99731e-06
-0.00697567
4.50963e-06
-0.00754011
4.98259e-06
-0.00810562
5.37054e-06
-0.00867356
5.70751e-06
-0.00924141
5.865e-06
-0.00981409
5.99978e-06
-0.0103831
5.71899e-06
-0.0109627
5.58903e-06
-0.011532
4.81077e-06
-0.0121189
4.21587e-06
-0.0126897
2.98963e-06
-0.013283
1.78582e-06
-0.000277648
-0.000832996
4.50354e-08
-0.00138849
1.79816e-07
-0.0019443
4.01336e-07
-0.00250042
7.06619e-07
-0.00305711
1.08685e-06
-0.00361433
1.5375e-06
-0.00417226
2.04284e-06
-0.00473107
2.59758e-06
-0.0052906
3.17907e-06
-0.00585142
3.77857e-06
-0.00641306
4.37012e-06
-0.00697614
4.93452e-06
-0.0075405
5.45661e-06
-0.00810596
5.88819e-06
-0.00867371
6.25783e-06
-0.00924154
6.4432e-06
-0.0098138
6.58349e-06
-0.010383
6.32925e-06
-0.0109619
6.16663e-06
-0.0115314
5.37302e-06
-0.0121177
4.84929e-06
-0.0126885
3.36168e-06
-0.0132812
2.0058e-06
-0.000277693
-0.000833131
4.86726e-08
-0.00138871
1.94318e-07
-0.0019446
4.33716e-07
-0.0025008
7.6346e-07
-0.00305756
1.17433e-06
-0.00361483
1.66098e-06
-0.00417281
2.20728e-06
-0.00473165
2.8067e-06
-0.0052912
3.43631e-06
-0.00585201
4.08572e-06
-0.00641362
4.72839e-06
-0.00697666
5.34305e-06
-0.00754093
5.9122e-06
-0.00810633
6.38641e-06
-0.00867389
6.78744e-06
-0.00924168
6.99792e-06
-0.00981355
7.13869e-06
-0.0103828
6.904e-06
-0.0109611
6.71986e-06
-0.0115309
5.87992e-06
-0.0121162
4.8867e-06
-0.0126871
3.68386e-06
-0.0132792
2.20253e-06
-0.000277742
-0.000833276
5.22637e-08
-0.00138895
2.0863e-07
-0.00194493
4.65643e-07
-0.00250121
8.19439e-07
-0.00305804
1.26032e-06
-0.00361538
1.78205e-06
-0.00417341
2.36796e-06
-0.00473228
3.01027e-06
-0.00529185
3.6856e-06
-0.00585265
4.38215e-06
-0.00641424
5.07277e-06
-0.00697723
5.73473e-06
-0.0075414
6.34846e-06
-0.00810674
6.86363e-06
-0.0086741
7.2956e-06
-0.00924182
7.52956e-06
-0.00981332
7.66933e-06
-0.0103826
7.45071e-06
-0.0109603
7.25246e-06
-0.0115301
6.40162e-06
-0.0121147
5.58278e-06
-0.0126856
4.04027e-06
-0.013277
2.40913e-06
-0.000277794
-0.000833433
5.58237e-08
-0.00138921
2.22819e-07
-0.00194529
4.973e-07
-0.00250165
8.7495e-07
-0.00305857
1.34555e-06
-0.00361596
1.90196e-06
-0.00417406
2.5268e-06
-0.00473295
3.21099e-06
-0.00529255
3.93041e-06
-0.00585334
4.67199e-06
-0.0064149
5.4077e-06
-0.00697785
6.11394e-06
-0.00754192
6.76909e-06
-0.00810717
7.3229e-06
-0.00867433
7.78501e-06
-0.00924196
8.04373e-06
-0.0098131
8.18995e-06
-0.0103824
7.97281e-06
-0.0109594
7.74415e-06
-0.0115292
6.85915e-06
-0.0121132
6.00533e-06
-0.012684
4.35782e-06
-0.0132745
2.59117e-06
-0.00027785
-0.0008336
5.93447e-08
-0.00138948
2.36859e-07
-0.00194566
5.28646e-07
-0.00250212
9.29974e-07
-0.00305912
1.4301e-06
-0.00361659
2.02099e-06
-0.00417474
2.68443e-06
-0.00473367
3.41001e-06
-0.00529329
4.17257e-06
-0.00585408
4.9577e-06
-0.0064156
5.7362e-06
-0.0069785
6.48376e-06
-0.00754247
7.17677e-06
-0.00810764
7.76566e-06
-0.00867459
8.25499e-06
-0.00924211
8.53672e-06
-0.00981288
8.68965e-06
-0.0103822
8.47017e-06
-0.0109585
8.20715e-06
-0.0115284
7.28526e-06
-0.0121115
6.37026e-06
-0.0126822
4.65365e-06
-0.013272
2.76372e-06
-0.000277909
-0.000833777
6.28255e-08
-0.00138978
2.50743e-07
-0.00194607
5.59667e-07
-0.00250262
9.8449e-07
-0.00305971
1.51396e-06
-0.00361725
2.13923e-06
-0.00417547
2.84117e-06
-0.00473443
3.60802e-06
-0.00529407
4.41339e-06
-0.00585486
5.24139e-06
-0.00641635
6.06129e-06
-0.00697919
6.84799e-06
-0.00754306
7.57569e-06
-0.00810813
8.19592e-06
-0.00867486
8.70879e-06
-0.00924226
9.01041e-06
-0.00981266
9.16776e-06
-0.010382
8.94872e-06
-0.0109576
8.64525e-06
-0.0115275
7.6778e-06
-0.0121098
6.70148e-06
-0.0126803
4.89789e-06
-0.0132692
2.91234e-06
-0.000277972
-0.000833965
6.62675e-08
-0.00139008
2.6447e-07
-0.00194649
5.9034e-07
-0.00250315
1.03842e-06
-0.00306034
1.59698e-06
-0.00361795
2.25639e-06
-0.00417623
2.99665e-06
-0.00473524
3.80471e-06
-0.0052949
4.65283e-06
-0.00585568
5.52355e-06
-0.00641714
6.38434e-06
-0.00697992
7.209e-06
-0.00754368
7.9692e-06
-0.00810865
8.61746e-06
-0.00867516
9.14978e-06
-0.00924242
9.46716e-06
-0.00981244
9.62715e-06
-0.0103816
9.41032e-06
-0.0109566
9.0643e-06
-0.0115265
8.05256e-06
-0.012108
7.00612e-06
-0.0126784
5.05747e-06
-0.0132663
3.03998e-06
-0.000278039
-0.000834164
6.96768e-08
-0.00139041
2.78058e-07
-0.00194694
6.20678e-07
-0.00250371
1.09172e-06
-0.003061
1.67897e-06
-0.00361869
2.37208e-06
-0.00417704
3.15022e-06
-0.00473608
3.99916e-06
-0.00529577
4.88986e-06
-0.00585654
5.8033e-06
-0.00641796
6.70507e-06
-0.00698068
7.56752e-06
-0.00754433
8.35947e-06
-0.00810918
9.03379e-06
-0.00867548
9.58213e-06
-0.00924258
9.91033e-06
-0.00981222
1.00689e-05
-0.0103813
9.85187e-06
-0.0109556
9.46418e-06
-0.0115255
8.41453e-06
-0.012106
7.30483e-06
-0.0126763
5.28061e-06
-0.0132633
3.17376e-06
-0.000278108
-0.000834372
7.30558e-08
-0.00139075
2.91517e-07
-0.00194741
6.50678e-07
-0.0025043
1.14433e-06
-0.00306169
1.75972e-06
-0.00361947
2.48584e-06
-0.00417789
3.30105e-06
-0.00473697
4.19008e-06
-0.00529669
5.12272e-06
-0.00585744
6.07856e-06
-0.00641883
7.02136e-06
-0.00698148
7.92194e-06
-0.007545
8.7461e-06
-0.00810973
9.44639e-06
-0.0086758
1.00096e-05
-0.00924274
1.03452e-05
-0.00981201
1.04958e-05
-0.0103809
1.02657e-05
-0.0109546
9.84316e-06
-0.0115244
8.75639e-06
-0.012104
7.58601e-06
-0.0126742
5.49931e-06
-0.0132601
3.29768e-06
-0.000278181
-0.00083459
7.63944e-08
-0.00139111
3.048e-07
-0.0019479
6.80229e-07
-0.00250491
1.19602e-06
-0.00306242
1.83884e-06
-0.00362029
2.59699e-06
-0.00417878
3.44805e-06
-0.00473791
4.37585e-06
-0.00529764
5.34914e-06
-0.00585838
6.34636e-06
-0.00641973
7.32969e-06
-0.0069823
8.26851e-06
-0.0075457
9.12571e-06
-0.0081103
9.85307e-06
-0.00867613
1.04324e-05
-0.00924289
1.07757e-05
-0.00981178
1.09169e-05
-0.0103805
1.06702e-05
-0.0109535
1.02119e-05
-0.0115232
9.08906e-06
-0.0121019
7.857e-06
-0.012672
5.69999e-06
-0.0132568
3.41319e-06
-0.000278258
-0.000834819
7.96664e-08
-0.00139149
3.17804e-07
-0.00194842
7.09111e-07
-0.00250556
1.24643e-06
-0.00306318
1.91579e-06
-0.00362114
2.70478e-06
-0.00417971
3.59018e-06
-0.00473888
4.55499e-06
-0.00529864
5.56702e-06
-0.00585937
6.60385e-06
-0.00642067
7.62631e-06
-0.00698316
8.60267e-06
-0.00754643
9.49324e-06
-0.00811088
1.02489e-05
-0.00867647
1.08466e-05
-0.00924304
1.11997e-05
-0.00981153
1.13336e-05
-0.0103801
1.10724e-05
-0.0109524
1.05743e-05
-0.011522
9.41821e-06
-0.0120997
8.12445e-06
-0.0126697
5.89475e-06
-0.0132534
3.52291e-06
-0.000278337
-0.000835057
8.28135e-08
-0.00139188
3.30307e-07
-0.00194896
7.36859e-07
-0.00250623
1.29481e-06
-0.00306397
1.98955e-06
-0.00362202
2.80791e-06
-0.00418067
3.72584e-06
-0.00473989
4.72554e-06
-0.00529968
5.77393e-06
-0.00586039
6.84785e-06
-0.00642164
7.9071e-06
-0.00698405
8.91915e-06
-0.00754718
9.84223e-06
-0.00811148
1.06265e-05
-0.00867682
1.12445e-05
-0.00924317
1.16104e-05
-0.00981127
1.17411e-05
-0.0103796
1.14682e-05
-0.0109512
1.09303e-05
-0.0115207
9.74721e-06
-0.0120975
8.39475e-06
-0.0126673
6.08878e-06
-0.0132499
3.63017e-06
-0.00027842
-0.000835304
8.57584e-08
-0.00139229
3.42011e-07
-0.00194952
7.62851e-07
-0.00250692
1.34017e-06
-0.00306479
2.05873e-06
-0.00362294
2.90466e-06
-0.00418167
3.85304e-06
-0.00474094
4.88527e-06
-0.00530075
5.96732e-06
-0.00586145
7.07538e-06
-0.00642265
8.16831e-06
-0.00698497
9.21308e-06
-0.00754796
1.01663e-05
-0.00811209
1.0978e-05
-0.00867719
1.16171e-05
-0.0092433
1.19983e-05
-0.00981099
1.21308e-05
-0.010379
1.18509e-05
-0.01095
1.12778e-05
-0.0115193
1.00759e-05
-0.0120952
8.66857e-06
-0.0126649
6.2889e-06
-0.0132463
3.73978e-06
-0.000278506
-0.000835561
8.8412e-08
-0.00139271
3.52568e-07
-0.00195009
7.86344e-07
-0.00250764
1.38128e-06
-0.00306563
2.12161e-06
-0.00362389
2.99284e-06
-0.00418271
3.96923e-06
-0.00474202
5.03134e-06
-0.00530186
6.14415e-06
-0.00586254
7.28311e-06
-0.0064237
8.40619e-06
-0.00698593
9.47997e-06
-0.00754878
1.04599e-05
-0.00811273
1.12959e-05
-0.00867757
1.19544e-05
-0.00924344
1.23513e-05
-0.00981071
1.24897e-05
-0.0103785
1.22104e-05
-0.0109488
1.16167e-05
-0.0115179
1.03959e-05
-0.0120928
8.93915e-06
-0.0126623
6.49557e-06
-0.0132426
3.85505e-06
-0.000278594
-0.000835825
9.06879e-08
-0.00139314
3.61639e-07
-0.00195069
8.06591e-07
-0.00250838
1.41685e-06
-0.0030665
2.1763e-06
-0.00362487
3.06993e-06
-0.00418377
4.07132e-06
-0.00474314
5.16023e-06
-0.005303
6.3006e-06
-0.00586366
7.46707e-06
-0.00642477
8.61659e-06
-0.00698691
9.71531e-06
-0.00754961
1.07176e-05
-0.00811339
1.15738e-05
-0.00867797
1.2248e-05
-0.00924357
1.2658e-05
-0.00981043
1.28023e-05
-0.0103779
1.25273e-05
-0.0109476
1.19247e-05
-0.0115165
1.06862e-05
-0.0120903
9.18651e-06
-0.0126597
6.6993e-06
-0.0132387
3.9735e-06
-0.000278685
-0.000836096
9.25159e-08
-0.00139358
3.6894e-07
-0.0019513
8.22942e-07
-0.00250914
1.44573e-06
-0.0030674
2.22097e-06
-0.00362587
3.13337e-06
-0.00418486
4.15597e-06
-0.00474428
5.26788e-06
-0.00530416
6.43207e-06
-0.00586481
7.62232e-06
-0.00642587
8.79441e-06
-0.00698791
9.91392e-06
-0.00755047
1.09341e-05
-0.00811406
1.18057e-05
-0.00867838
1.2491e-05
-0.00924372
1.29098e-05
-0.00981016
1.30569e-05
-0.0103773
1.27842e-05
-0.0109463
1.21717e-05
-0.011515
1.09227e-05
-0.0120878
9.38585e-06
-0.0126569
6.87381e-06
-0.0132348
4.07923e-06
-0.000278777
-0.000836372
9.3848e-08
-0.00139404
3.74268e-07
-0.00195192
8.34914e-07
-0.00250992
1.46698e-06
-0.00306831
2.25406e-06
-0.00362689
3.18077e-06
-0.00418597
4.21984e-06
-0.00474544
5.34997e-06
-0.00530535
6.53333e-06
-0.00586598
7.74292e-06
-0.00642699
8.93331e-06
-0.00698893
1.00694e-05
-0.00755134
1.11031e-05
-0.00811475
1.19852e-05
-0.0086788
1.26767e-05
-0.00924387
1.30991e-05
-0.00980988
1.32447e-05
-0.0103767
1.29707e-05
-0.0109451
1.23465e-05
-0.0115135
1.10903e-05
-0.0120853
9.51076e-06
-0.0126541
6.97487e-06
-0.0132307
4.139e-06
-0.000278871
-0.000836652
9.46728e-08
-0.0013945
3.77569e-07
-0.00195255
8.42341e-07
-0.0025107
1.48022e-06
-0.00306924
2.2748e-06
-0.00362793
3.21081e-06
-0.0041871
4.26082e-06
-0.00474662
5.40352e-06
-0.00530656
6.60038e-06
-0.00586717
7.82419e-06
-0.00642812
9.028e-06
-0.00698996
1.01766e-05
-0.00755222
1.12196e-05
-0.00811544
1.21088e-05
-0.00867922
1.28016e-05
-0.00924401
1.32237e-05
-0.00980961
1.3362e-05
-0.0103761
1.30832e-05
-0.0109438
1.24455e-05
-0.0115119
1.11846e-05
-0.0120828
9.55094e-06
-0.0126513
6.96589e-06
-0.0132266
4.12485e-06
-0.000278966
-0.000836935
9.53709e-08
-0.00139496
3.80356e-07
-0.00195319
8.48594e-07
-0.0025115
1.49135e-06
-0.00307017
2.29227e-06
-0.00362898
3.23624e-06
-0.00418824
4.29591e-06
-0.00474782
5.45014e-06
-0.00530779
6.66019e-06
-0.00586838
7.89879e-06
-0.00642927
9.11822e-06
-0.006991
1.02829e-05
-0.0075531
1.13408e-05
-0.00811613
1.22433e-05
-0.00867964
1.29455e-05
-0.00924415
1.33745e-05
-0.00980933
1.35144e-05
-0.0103754
1.32376e-05
-0.0109426
1.25957e-05
-0.0115103
1.13358e-05
-0.0120802
9.6689e-06
-0.0126484
7.05967e-06
-0.0132225
4.23583e-06
-0.000279061
-0.00083722
9.56746e-08
-0.00139543
3.81558e-07
-0.00195383
8.51266e-07
-0.0025123
1.49608e-06
-0.00307112
2.2997e-06
-0.00363004
3.2472e-06
-0.0041894
4.31142e-06
-0.00474903
5.47154e-06
-0.00530903
6.68898e-06
-0.0058696
7.93673e-06
-0.00643043
9.167e-06
-0.00699206
1.03439e-05
-0.00755401
1.1415e-05
-0.00811683
1.23301e-05
-0.00868008
1.30431e-05
-0.00924429
1.348e-05
-0.00980906
1.36232e-05
-0.0103748
1.33484e-05
-0.0109413
1.2703e-05
-0.0115086
1.14415e-05
-0.0120776
9.76175e-06
-0.0126455
7.14651e-06
-0.0132183
4.42966e-06
-0.000279157
-0.000837506
9.54736e-08
-0.0013959
3.8074e-07
-0.00195448
8.49389e-07
-0.0025131
1.49272e-06
-0.00307207
2.29449e-06
-0.0036311
3.23997e-06
-0.00419056
4.30218e-06
-0.00475025
5.46073e-06
-0.00531027
6.67734e-06
-0.00587083
7.92567e-06
-0.00643161
9.15824e-06
-0.00699313
1.03398e-05
-0.00755492
1.14175e-05
-0.00811755
1.23409e-05
-0.00868051
1.30621e-05
-0.00924443
1.35061e-05
-0.00980879
1.36523e-05
-0.0103741
1.33781e-05
-0.0109401
1.27275e-05
-0.0115069
1.14699e-05
-0.0120749
9.78703e-06
-0.0126427
7.14742e-06
-0.013214
4.02424e-06
-0.000279252
-0.000837791
9.48043e-08
-0.00139637
3.78055e-07
-0.00195512
8.43347e-07
-0.00251391
1.48204e-06
-0.00307301
2.27796e-06
-0.00363217
3.21662e-06
-0.00419172
4.2712e-06
-0.00475147
5.42173e-06
-0.00531152
6.63022e-06
-0.00587206
7.87117e-06
-0.00643279
9.09778e-06
-0.00699421
1.02759e-05
-0.00755584
1.13533e-05
-0.00811827
1.22799e-05
-0.00868096
1.3007e-05
-0.00924458
1.34586e-05
-0.00980852
1.36109e-05
-0.0103735
1.33406e-05
-0.0109388
1.26858e-05
-0.0115053
1.14311e-05
-0.0120723
9.75023e-06
-0.0126398
7.1392e-06
-0.0132097
3.96684e-06
-0.000279347
-0.000838074
9.36927e-08
-0.00139684
3.73617e-07
-0.00195576
8.33428e-07
-0.0025147
1.46462e-06
-0.00307395
2.25119e-06
-0.00363322
3.17894e-06
-0.00419287
4.22122e-06
-0.00475268
5.35843e-06
-0.00531276
6.55284e-06
-0.00587328
7.77975e-06
-0.00643397
8.99307e-06
-0.00699529
1.01602e-05
-0.00755677
1.12297e-05
-0.00811899
1.21531e-05
-0.00868141
1.2882e-05
-0.00924473
1.33407e-05
-0.00980826
1.35035e-05
-0.0103728
1.3245e-05
-0.0109375
1.25962e-05
-0.0115036
1.1345e-05
-0.0120697
9.64923e-06
-0.0126368
7.09653e-06
-0.0132056
4.18964e-06
-0.000279441
-0.000838353
9.21652e-08
-0.0013973
3.67534e-07
-0.00195639
8.19893e-07
-0.00251549
1.44098e-06
-0.00307488
2.21506e-06
-0.00363426
3.12837e-06
-0.004194
4.15451e-06
-0.00475387
5.27424e-06
-0.00531399
6.45005e-06
-0.0058745
7.6579e-06
-0.00643513
8.85224e-06
-0.00699636
1.00019e-05
-0.00755769
1.10564e-05
-0.00811972
1.19697e-05
-0.00868187
1.26944e-05
-0.0092449
1.31565e-05
-0.009808
1.33309e-05
-0.0103722
1.30912e-05
-0.0109363
1.24627e-05
-0.0115019
1.12338e-05
-0.0120671
9.5432e-06
-0.0126338
7.0166e-06
-0.0132014
4.17114e-06
-0.000279533
-0.000838629
9.02612e-08
-0.00139775
3.59963e-07
-0.00195701
8.03082e-07
-0.00251626
1.41169e-06
-0.00307579
2.17049e-06
-0.00363529
3.06623e-06
-0.00419512
4.07298e-06
-0.00475505
5.17194e-06
-0.0053152
6.32582e-06
-0.00587569
7.51119e-06
-0.00643628
8.68283e-06
-0.00699741
9.81071e-06
-0.00755861
1.0845e-05
-0.00812045
1.17419e-05
-0.00868233
1.24555e-05
-0.00924507
1.2915e-05
-0.00980777
1.30971e-05
-0.0103715
1.28771e-05
-0.0109351
1.22772e-05
-0.0115002
1.10877e-05
-0.0120646
9.43404e-06
-0.012631
6.93833e-06
-0.0131972
4.12303e-06
-0.000279623
-0.000838898
8.80386e-08
-0.00139819
3.51129e-07
-0.00195762
7.83472e-07
-0.00251702
1.37755e-06
-0.00307669
2.11859e-06
-0.0036363
2.99401e-06
-0.00419622
3.97849e-06
-0.0047562
5.05386e-06
-0.00531638
6.18323e-06
-0.00587687
7.34384e-06
-0.00643741
8.49067e-06
-0.00699845
9.59462e-06
-0.0075595
1.0606e-05
-0.00812116
1.14828e-05
-0.00868279
1.218e-05
-0.00924525
1.26304e-05
-0.00980755
1.2813e-05
-0.0103709
1.26075e-05
-0.0109339
1.20367e-05
-0.0114986
1.08938e-05
-0.0120621
9.29062e-06
-0.0126282
6.85732e-06
-0.0131931
4.06884e-06
-0.000279711
-0.000839161
8.55717e-08
-0.00139862
3.41319e-07
-0.00195822
7.6168e-07
-0.00251777
1.33955e-06
-0.00307756
2.06078e-06
-0.00363728
2.91348e-06
-0.00419729
3.8731e-06
-0.00475733
4.92228e-06
-0.00531754
6.02486e-06
-0.00587801
7.15883e-06
-0.00643852
8.27959e-06
-0.00699946
9.35892e-06
-0.00756038
1.0347e-05
-0.00812186
1.12031e-05
-0.00868324
1.18821e-05
-0.00924543
1.23194e-05
-0.00980734
1.24954e-05
-0.0103704
1.22961e-05
-0.0109327
1.17464e-05
-0.011497
1.06478e-05
-0.0120596
9.10846e-06
-0.0126254
6.77593e-06
-0.0131891
4.009e-06
-0.000279796
-0.000839417
8.29432e-08
-0.00139905
3.30857e-07
-0.0019588
7.38404e-07
-0.00251849
1.29888e-06
-0.00307841
1.9987e-06
-0.00363824
2.82675e-06
-0.00419834
3.75926e-06
-0.00475843
4.77985e-06
-0.00531868
5.8533e-06
-0.00587913
6.95863e-06
-0.0064396
8.05197e-06
-0.00700045
9.10626e-06
-0.00756124
1.00718e-05
-0.00812254
1.09087e-05
-0.00868368
1.15714e-05
-0.00924561
1.19963e-05
-0.00980714
1.21631e-05
-0.0103698
1.19632e-05
-0.0109316
1.14227e-05
-0.0114954
1.03539e-05
-0.0120573
8.87444e-06
-0.0126226
6.64953e-06
-0.0131851
3.93216e-06
-0.000279879
-0.000839665
8.02296e-08
-0.00139945
3.20045e-07
-0.00195936
7.14308e-07
-0.00251919
1.25666e-06
-0.00307924
1.93405e-06
-0.00363917
2.73603e-06
-0.00419936
3.63965e-06
-0.00475951
4.62954e-06
-0.00531978
5.67149e-06
-0.00588023
6.74586e-06
-0.00644065
7.80976e-06
-0.00700141
8.83779e-06
-0.00756207
9.78095e-06
-0.00812321
1.06004e-05
-0.0086841
1.12505e-05
-0.00924577
1.16673e-05
-0.00980693
1.18288e-05
-0.0103693
1.16288e-05
-0.0109306
1.10921e-05
-0.011494
1.00389e-05
-0.0120551
8.59158e-06
-0.0126199
6.42272e-06
-0.0131811
3.8218e-06
-0.000279959
-0.000839904
7.74887e-08
-0.00139985
3.09114e-07
-0.0019599
6.89914e-07
-0.00251986
1.21382e-06
-0.00308004
1.86821e-06
-0.00364008
2.64327e-06
-0.00420035
3.51676e-06
-0.00476055
4.47429e-06
-0.00532086
5.48265e-06
-0.00588129
6.52351e-06
-0.00644168
7.5553e-06
-0.00700236
8.5546e-06
-0.00756289
9.47392e-06
-0.00812386
1.02759e-05
-0.00868452
1.09156e-05
-0.00924593
1.13291e-05
-0.00980673
1.14928e-05
-0.0103687
1.13001e-05
-0.0109295
1.0774e-05
-0.0114925
9.73686e-06
-0.0120529
8.31295e-06
-0.0126173
6.19135e-06
-0.0131773
3.67837e-06
-0.000280037
-0.000840136
7.47524e-08
-0.00140023
2.98195e-07
-0.00196042
6.6552e-07
-0.00252052
1.17089e-06
-0.00308082
1.80207e-06
-0.00364095
2.54977e-06
-0.00420131
3.39238e-06
-0.00476156
4.31641e-06
-0.0053219
5.28953e-06
-0.00588233
6.29461e-06
-0.00644268
7.29133e-06
-0.00700328
8.25852e-06
-0.00756369
9.15068e-06
-0.0081245
9.93236e-06
-0.00868494
1.05607e-05
-0.0092461
1.09721e-05
-0.00980653
1.11441e-05
-0.0103682
1.09671e-05
-0.0109285
1.04659e-05
-0.0114911
9.45518e-06
-0.0120508
8.05846e-06
-0.0126148
5.97503e-06
-0.0131736
3.4923e-06
-0.000280111
-0.000840359
7.20199e-08
-0.0014006
2.87288e-07
-0.00196093
6.4114e-07
-0.00252115
1.12794e-06
-0.00308157
1.73578e-06
-0.00364179
2.45582e-06
-0.00420223
3.26706e-06
-0.00476253
4.1568e-06
-0.0053229
5.09349e-06
-0.00588333
6.06091e-06
-0.00644365
7.01983e-06
-0.00700417
7.95132e-06
-0.00756447
8.81201e-06
-0.00812512
9.56837e-06
-0.00868535
1.01803e-05
-0.00924627
1.05859e-05
-0.00980635
1.07663e-05
-0.0103677
1.06087e-05
-0.0109275
1.01465e-05
-0.0114897
9.17963e-06
-0.0120487
7.83641e-06
-0.0126123
5.79538e-06
-0.0131701
3.31834e-06
-0.000280183
-0.000840574
6.92694e-08
-0.00140095
2.7631e-07
-0.00196142
6.16591e-07
-0.00252176
1.08466e-06
-0.00308229
1.66889e-06
-0.0036426
2.36089e-06
-0.00420312
3.14023e-06
-0.00476347
3.99494e-06
-0.00532387
4.89419e-06
-0.00588429
5.82243e-06
-0.00644458
6.74134e-06
-0.00700503
7.63392e-06
-0.00756523
8.45895e-06
-0.00812573
9.18413e-06
-0.00868576
9.77251e-06
-0.00924645
1.0164e-05
-0.00980619
1.03462e-05
-0.0103673
1.02025e-05
-0.0109265
9.78242e-06
-0.0114883
8.86836e-06
-0.0120467
7.60929e-06
-0.0126098
5.64901e-06
-0.0131668
3.29366e-06
-0.000280253
-0.000840781
6.64521e-08
-0.00140129
2.65067e-07
-0.00196189
5.91446e-07
-0.00252234
1.04029e-06
-0.00308298
1.60026e-06
-0.00364338
2.26337e-06
-0.00420397
3.00984e-06
-0.00476436
3.82835e-06
-0.0053248
4.68886e-06
-0.00588521
5.57624e-06
-0.00644548
6.45312e-06
-0.00700585
7.30397e-06
-0.00756596
8.08973e-06
-0.00812632
8.7783e-06
-0.00868615
9.33582e-06
-0.00924663
9.7036e-06
-0.00980606
9.87688e-06
-0.0103668
9.73487e-06
-0.0109256
9.34621e-06
-0.0114871
8.47598e-06
-0.0120447
7.30517e-06
-0.0126075
5.43556e-06
-0.0131635
3.2283e-06
-0.000280319
-0.000840979
6.35016e-08
-0.00140162
2.53284e-07
-0.00196233
5.65075e-07
-0.0025229
9.9372e-07
-0.00308364
1.52816e-06
-0.00364413
2.16086e-06
-0.00420479
2.87263e-06
-0.00476522
3.65298e-06
-0.00532569
4.47243e-06
-0.00588609
5.31665e-06
-0.00644633
6.14866e-06
-0.00700664
6.95523e-06
-0.00756664
7.69749e-06
-0.00812688
8.34583e-06
-0.00868652
8.86467e-06
-0.0092468
9.20241e-06
-0.00980592
9.35266e-06
-0.0103664
9.20314e-06
-0.0109247
8.82202e-06
-0.0114859
7.98386e-06
-0.0120429
6.87733e-06
-0.0126053
5.09843e-06
-0.0131603
3.04499e-06
-0.000280382
-0.000841169
6.06743e-08
-0.00140193
2.41976e-07
-0.00196276
5.39761e-07
-0.00252344
9.49031e-07
-0.00308427
1.45898e-06
-0.00364484
2.06256e-06
-0.00420557
2.74117e-06
-0.00476604
3.48529e-06
-0.00532653
4.26583e-06
-0.00588693
5.06973e-06
-0.00644714
5.85989e-06
-0.00700738
6.62629e-06
-0.00756729
7.32861e-06
-0.00812739
7.94202e-06
-0.00868686
8.42542e-06
-0.00924695
8.73901e-06
-0.00980578
8.8658e-06
-0.0103661
8.71328e-06
-0.0109239
8.32765e-06
-0.0114848
7.51978e-06
-0.0120411
6.45353e-06
-0.0126032
4.75384e-06
-0.0131572
2.81751e-06
-0.000280443
-0.00084135
5.81818e-08
-0.00140223
2.32013e-07
-0.00196317
5.17463e-07
-0.00252395
9.09707e-07
-0.00308488
1.3982e-06
-0.00364551
1.97637e-06
-0.00420631
2.62636e-06
-0.00476682
3.33937e-06
-0.00532734
4.08727e-06
-0.00588772
4.8575e-06
-0.00644791
5.61456e-06
-0.00700808
6.34901e-06
-0.00756791
7.02297e-06
-0.00812788
7.61093e-06
-0.00868717
8.07528e-06
-0.00924707
8.37534e-06
-0.00980563
8.49943e-06
-0.0103657
8.35139e-06
-0.0109231
7.9815e-06
-0.0114837
7.19961e-06
-0.0120394
6.1938e-06
-0.0126013
4.54893e-06
-0.0131544
2.74085e-06
-0.000280501
-0.000841523
5.54934e-08
-0.00140251
2.2126e-07
-0.00196357
4.93391e-07
-0.00252444
8.67256e-07
-0.00308546
1.33259e-06
-0.00364616
1.88335e-06
-0.00420702
2.5024e-06
-0.00476757
3.18173e-06
-0.00532811
3.89425e-06
-0.00588848
4.62793e-06
-0.00644864
5.34928e-06
-0.00700875
6.04891e-06
-0.0075685
6.69174e-06
-0.00812834
7.25157e-06
-0.00868746
7.69621e-06
-0.00924719
7.98265e-06
-0.00980549
8.10535e-06
-0.0103653
7.96216e-06
-0.0109223
7.60927e-06
-0.0114827
6.84812e-06
-0.0120377
5.8936e-06
-0.0125995
4.29952e-06
-0.0131517
2.66081e-06
-0.000280556
-0.000841689
5.258e-08
-0.00140278
2.09601e-07
-0.00196394
4.67295e-07
-0.00252491
8.21269e-07
-0.00308601
1.26158e-06
-0.00364678
1.78275e-06
-0.0042077
2.36837e-06
-0.00476828
3.01126e-06
-0.00532884
3.68548e-06
-0.0058892
4.37969e-06
-0.00644934
5.06256e-06
-0.0070094
5.7245e-06
-0.00756906
6.33299e-06
-0.00812879
6.86171e-06
-0.00868774
7.28521e-06
-0.00924731
7.55775e-06
-0.00980534
7.67895e-06
-0.010365
7.54211e-06
-0.0109215
7.21574e-06
-0.0114818
6.47779e-06
-0.0120361
5.57299e-06
-0.0125978
4.00652e-06
-0.013149
2.46737e-06
-0.000280609
-0.000841845
4.94153e-08
-0.00140304
1.96933e-07
-0.00196429
4.38962e-07
-0.00252535
7.71398e-07
-0.00308653
1.18468e-06
-0.00364737
1.67393e-06
-0.00420834
2.22353e-06
-0.00476895
2.82709e-06
-0.00532954
3.4601e-06
-0.00588989
4.11184e-06
-0.00645001
4.75366e-06
-0.00701
5.37505e-06
-0.00756959
5.94637e-06
-0.00812921
6.44079e-06
-0.00868801
6.84213e-06
-0.00924743
7.09903e-06
-0.0098052
7.216e-06
-0.0103646
7.08242e-06
-0.0109208
6.79335e-06
-0.0114809
6.08436e-06
-0.0120345
5.2829e-06
-0.0125963
4.01008e-06
-0.0131466
2.32485e-06
-0.000280658
-0.000841992
4.59756e-08
-0.00140328
1.83165e-07
-0.00196463
4.08196e-07
-0.00252576
7.17321e-07
-0.00308702
1.10142e-06
-0.00364792
1.55629e-06
-0.00420894
2.06705e-06
-0.00476958
2.62826e-06
-0.00533019
3.21703e-06
-0.00589054
3.82332e-06
-0.00645063
4.42152e-06
-0.00701058
4.99949e-06
-0.00757008
5.53115e-06
-0.00812962
5.98814e-06
-0.00868826
6.36753e-06
-0.00924755
6.60708e-06
-0.00980506
6.71639e-06
-0.0103643
6.57819e-06
-0.0109201
6.3223e-06
-0.01148
5.63578e-06
-0.0120331
4.96605e-06
-0.0125948
3.6696e-06
-0.0131443
2.16706e-06
-0.000280703
-0.000842129
4.22482e-08
-0.00140351
1.68241e-07
-0.00196493
3.74877e-07
-0.00252615
6.58806e-07
-0.00308747
1.01144e-06
-0.00364843
1.42928e-06
-0.0042095
1.89821e-06
-0.00477017
2.41383e-06
-0.0053308
2.9553e-06
-0.00589114
3.51303e-06
-0.00645121
4.06509e-06
-0.00701111
4.59647e-06
-0.00757054
5.0862e-06
-0.00813
5.50223e-06
-0.00868848
5.86102e-06
-0.00924767
6.08211e-06
-0.00980492
6.18559e-06
-0.0103641
6.03712e-06
-0.0109194
5.81865e-06
-0.0114794
5.13468e-06
-0.0120318
4.60887e-06
-0.0125933
3.35803e-06
-0.0131421
1.98693e-06
-0.000280745
-0.000842254
3.82398e-08
-0.00140371
1.52178e-07
-0.00196522
3.39003e-07
-0.0025265
5.95806e-07
-0.00308789
9.14602e-07
-0.0036489
1.29269e-06
-0.00421002
1.71665e-06
-0.00477071
2.18325e-06
-0.00533135
2.67422e-06
-0.00589169
3.18015e-06
-0.00645174
3.68353e-06
-0.00701161
4.16483e-06
-0.00757096
4.61076e-06
-0.00813035
4.98136e-06
-0.00868869
5.32106e-06
-0.00924778
5.52063e-06
-0.00980476
5.62354e-06
-0.0103639
5.45984e-06
-0.0109186
5.33203e-06
-0.0114789
4.96918e-06
-0.0120305
4.10815e-06
-0.012592
3.03934e-06
-0.0131401
1.79282e-06
-0.000280783
-0.000842368
3.39729e-08
-0.0014039
1.35049e-07
-0.00196548
3.00702e-07
-0.00252682
5.28486e-07
-0.00308827
8.11068e-07
-0.00364932
1.14667e-06
-0.00421048
1.52256e-06
-0.0047712
1.9366e-06
-0.00533186
2.37374e-06
-0.00589219
2.82424e-06
-0.00645223
3.27653e-06
-0.00701206
3.70383e-06
-0.00757134
4.10514e-06
-0.00813068
4.425e-06
-0.00868887
4.74853e-06
-0.00924791
4.91861e-06
-0.00980459
5.03054e-06
-0.0103638
4.81922e-06
-0.0109181
4.81214e-06
-0.0114782
4.37473e-06
-0.0120294
3.66688e-06
-0.0125908
2.71991e-06
-0.0131383
1.60657e-06
-0.000280817
-0.000842468
2.94613e-08
-0.00140407
1.1693e-07
-0.0019657
2.60128e-07
-0.0025271
4.57134e-07
-0.00308861
7.01243e-07
-0.0036497
9.91843e-07
-0.0042109
1.31683e-06
-0.00477164
1.67493e-06
-0.00533231
2.05485e-06
-0.00589264
2.44575e-06
-0.00645265
2.84478e-06
-0.00701246
3.21305e-06
-0.00757167
3.57137e-06
-0.00813098
3.83373e-06
-0.00868902
4.1486e-06
-0.00924804
4.27473e-06
-0.00980434
4.43816e-06
-0.0103638
4.51814e-06
-0.0109176
4.14824e-06
-0.0114775
3.76706e-06
-0.0120285
3.20207e-06
-0.0125897
2.38832e-06
-0.0131367
1.40934e-06
-0.000280846
-0.000842555
2.46657e-08
-0.00140421
9.78315e-08
-0.0019659
2.17433e-07
-0.00252735
3.82162e-07
-0.0030889
5.85907e-07
-0.00365003
8.29312e-07
-0.00421126
1.10092e-06