/*--------------------------------*- C++ -*----------------------------------*\
  =========                 |
  \\      /  F ield         | OpenFOAM: The Open Source CFD Toolbox
   \\    /   O peration     | Website:  https://openfoam.org
    \\  /    A nd           | Version:  10
     \\/     M anipulation  |
\*---------------------------------------------------------------------------*/
FoamFile
{
    format      ascii;
    class       volScalarField;
    location    "0.47";
    object      rho;
}
// * * * * * * * * * * * * * * * * * * * * * * * * * * * * * * * * * * * * * //

dimensions      [1 -3 0 0 0 0 0];

internalField   nonuniform List<scalar> 
4176
(
0.0308487
0.0308517
0.0308579
0.0308682
0.0308814
0.0308977
0.0309187
0.0309401
0.0309693
0.0309955
0.0310323
0.0310647
0.0311069
0.0311476
0.0311923
0.031244
0.0312871
0.0313548
0.0313933
0.0314791
0.0315106
0.0316162
0.0316362
0.0317504
0.0308567
0.0308596
0.0308649
0.0308747
0.0308858
0.0309015
0.0309193
0.0309399
0.0309649
0.0309899
0.031022
0.0310523
0.0310899
0.0311271
0.0311679
0.0312142
0.0312541
0.0313144
0.0313499
0.0314268
0.0314537
0.0315542
0.0315748
0.0317036
0.030876
0.0308789
0.0308845
0.0308946
0.0309063
0.0309223
0.030941
0.0309621
0.0309885
0.031014
0.0310477
0.0310787
0.0311182
0.0311563
0.0311993
0.0312468
0.0312891
0.031352
0.0313876
0.0314682
0.0314954
0.0315946
0.0316134
0.0317343
0.0309047
0.0309076
0.030913
0.0309228
0.0309342
0.0309498
0.030968
0.0309883
0.0310142
0.0310387
0.031072
0.0311016
0.0311408
0.0311771
0.0312198
0.0312655
0.0313074
0.0313703
0.0314013
0.0314843
0.0315091
0.0316069
0.0316246
0.0317367
0.0309442
0.030947
0.0309524
0.0309623
0.0309735
0.0309893
0.0310073
0.0310279
0.0310535
0.0310783
0.0311113
0.0311412
0.0311801
0.0312166
0.0312594
0.0313045
0.0313484
0.0314081
0.0314429
0.0315237
0.0315503
0.0316475
0.0316667
0.0317804
0.0309937
0.0309965
0.0310017
0.0310116
0.0310226
0.0310382
0.0310559
0.0310763
0.0311014
0.0311261
0.0311583
0.0311881
0.0312263
0.0312624
0.0313048
0.0313488
0.0313931
0.0314499
0.031488
0.0315649
0.0315923
0.0316884
0.0317084
0.0318236
0.0310536
0.0310564
0.0310616
0.0310714
0.0310822
0.0310978
0.0311152
0.0311355
0.0311603
0.0311848
0.0312168
0.0312462
0.0312842
0.0313198
0.0313621
0.0314054
0.0314499
0.0315051
0.031544
0.031619
0.0316478
0.0317422
0.0317625
0.0318758
0.0311237
0.0311265
0.0311316
0.0311413
0.031152
0.0311675
0.0311846
0.0312047
0.0312292
0.0312534
0.031285
0.031314
0.0313515
0.0313866
0.0314286
0.0314709
0.0315155
0.0315689
0.031609
0.0316813
0.0317112
0.031804
0.0318248
0.0319368
0.0312042
0.031207
0.031212
0.0312217
0.0312322
0.0312475
0.0312644
0.0312844
0.0313084
0.0313324
0.0313635
0.0313922
0.0314293
0.0314638
0.0315055
0.031547
0.0315916
0.0316432
0.0316842
0.0317541
0.031785
0.0318757
0.031897
0.0320073
0.031295
0.0312978
0.0313028
0.0313123
0.0313227
0.0313378
0.0313545
0.0313742
0.0313979
0.0314215
0.0314523
0.0314805
0.0315172
0.031551
0.0315924
0.0316329
0.0316773
0.0317274
0.031769
0.0318365
0.031869
0.0319562
0.0319786
0.032087
0.0313963
0.0313991
0.0314039
0.0314134
0.0314236
0.0314386
0.0314549
0.0314744
0.0314978
0.031521
0.0315513
0.0315791
0.0316153
0.0316484
0.0316894
0.0317289
0.0317732
0.0318217
0.0318639
0.031929
0.0319617
0.0320475
0.0320698
0.0321762
0.031508
0.0315108
0.0315155
0.0315249
0.0315349
0.0315497
0.0315658
0.031585
0.031608
0.0316309
0.0316607
0.0316879
0.0317236
0.0317561
0.0317966
0.0318351
0.0318791
0.0319261
0.0319686
0.0320313
0.0320648
0.032148
0.0321707
0.0322749
0.0316303
0.031633
0.0316377
0.031647
0.0316567
0.0316714
0.0316871
0.031706
0.0317286
0.0317511
0.0317804
0.0318071
0.0318423
0.031874
0.031914
0.0319515
0.0319951
0.0320406
0.0320834
0.0321437
0.0321779
0.0322583
0.0322812
0.0323832
0.0317632
0.0317659
0.0317705
0.0317797
0.0317892
0.0318036
0.031819
0.0318376
0.0318597
0.0318818
0.0319106
0.0319367
0.0319713
0.0320023
0.0320417
0.0320781
0.0321213
0.0321653
0.0322082
0.0322662
0.0323007
0.0323789
0.0324016
0.0325012
0.0319068
0.0319095
0.031914
0.031923
0.0319323
0.0319464
0.0319615
0.0319797
0.0320014
0.032023
0.0320513
0.0320767
0.0321107
0.0321409
0.0321797
0.0322151
0.0322577
0.0323002
0.0323431
0.0323986
0.0324338
0.032509
0.0325319
0.032629
0.0320612
0.0320639
0.0320682
0.0320771
0.0320861
0.0321001
0.0321147
0.0321326
0.0321537
0.0321748
0.0322025
0.0322273
0.0322606
0.03229
0.0323282
0.0323624
0.0324044
0.0324455
0.0324882
0.0325412
0.0325767
0.0326492
0.0326725
0.0327668
0.0322265
0.0322291
0.0322334
0.0322421
0.0322509
0.0322645
0.0322787
0.0322962
0.0323168
0.0323373
0.0323644
0.0323885
0.0324211
0.0324496
0.032487
0.0325202
0.0325615
0.0326011
0.0326434
0.0326941
0.03273
0.0327993
0.0328231
0.0329144
0.0324028
0.0324054
0.0324095
0.0324181
0.0324265
0.0324399
0.0324537
0.0324707
0.0324907
0.0325107
0.032537
0.0325604
0.0325923
0.0326198
0.0326564
0.0326884
0.0327291
0.0327671
0.032809
0.0328572
0.0328933
0.0329598
0.0329839
0.0330722
0.0325902
0.0325927
0.0325967
0.0326051
0.0326132
0.0326263
0.0326396
0.0326562
0.0326756
0.0326949
0.0327206
0.0327431
0.0327742
0.0328007
0.0328365
0.0328672
0.0329071
0.0329435
0.0329849
0.0330307
0.0330672
0.0331305
0.0331549
0.0332401
0.0327887
0.0327912
0.032795
0.0328033
0.0328111
0.0328238
0.0328366
0.0328527
0.0328715
0.0328902
0.0329151
0.0329368
0.0329669
0.0329924
0.0330273
0.0330567
0.0330958
0.0331305
0.0331714
0.0332147
0.0332512
0.0333116
0.0333362
0.0334182
0.0329986
0.0330011
0.0330047
0.0330127
0.0330202
0.0330326
0.0330449
0.0330605
0.0330786
0.0330965
0.0331206
0.0331415
0.0331707
0.0331951
0.033229
0.0332571
0.0332951
0.0333282
0.0333683
0.0334093
0.0334459
0.033503
0.0335279
0.0336067
0.0332199
0.0332223
0.0332258
0.0332336
0.0332407
0.0332526
0.0332644
0.0332794
0.0332969
0.0333141
0.0333373
0.0333572
0.0333855
0.0334088
0.0334417
0.0334684
0.0335054
0.0335367
0.033576
0.0336147
0.0336511
0.0337049
0.0337301
0.0338055
0.0334527
0.0334551
0.0334583
0.0334659
0.0334726
0.0334842
0.0334954
0.0335098
0.0335265
0.0335429
0.0335653
0.0335843
0.0336116
0.0336336
0.0336654
0.0336907
0.0337266
0.0337562
0.0337945
0.0338309
0.0338671
0.0339176
0.0339429
0.0340147
0.0336971
0.0336994
0.0337025
0.0337098
0.0337162
0.0337272
0.0337379
0.0337516
0.0337676
0.0337832
0.0338046
0.0338226
0.0338489
0.0338697
0.0339004
0.0339242
0.033959
0.0339868
0.0340241
0.034058
0.0340939
0.034141
0.0341664
0.0342345
0.0339532
0.0339555
0.0339583
0.0339654
0.0339713
0.033982
0.0339919
0.0340051
0.0340202
0.034035
0.0340555
0.0340724
0.0340976
0.0341172
0.0341467
0.034169
0.0342026
0.0342285
0.0342648
0.0342963
0.0343318
0.0343755
0.0344006
0.034465
0.034221
0.0342233
0.0342259
0.0342328
0.0342382
0.0342484
0.0342578
0.0342703
0.0342845
0.0342984
0.0343179
0.0343338
0.0343578
0.0343761
0.0344044
0.0344252
0.0344575
0.0344816
0.0345167
0.0345458
0.0345806
0.0346211
0.034646
0.0347065
0.0345007
0.0345029
0.0345054
0.0345119
0.034517
0.0345267
0.0345354
0.0345472
0.0345607
0.0345737
0.0345921
0.0346068
0.0346297
0.0346467
0.0346737
0.0346929
0.034724
0.0347462
0.03478
0.0348068
0.0348408
0.0348777
0.0349027
0.0349594
0.0347923
0.0347945
0.0347967
0.0348031
0.0348077
0.0348169
0.034825
0.0348361
0.0348487
0.0348607
0.0348782
0.0348917
0.0349134
0.034929
0.0349546
0.0349723
0.035002
0.0350223
0.0350548
0.0350792
0.0351122
0.0351458
0.0351707
0.0352233
0.035096
0.0350981
0.0351001
0.0351062
0.0351104
0.0351191
0.0351265
0.0351369
0.0351486
0.0351598
0.0351762
0.0351885
0.035209
0.0352231
0.0352475
0.0352634
0.0352917
0.03531
0.0353412
0.0353633
0.0353953
0.0354251
0.0354507
0.0354979
0.0354117
0.0354138
0.0354157
0.0354214
0.0354252
0.0354334
0.0354402
0.0354499
0.0354607
0.0354709
0.0354862
0.0354974
0.0355166
0.0355293
0.0355523
0.0355665
0.0355933
0.0356097
0.0356395
0.0356591
0.03569
0.0357164
0.0357415
0.0357848
0.0357397
0.0357417
0.0357434
0.0357489
0.0357522
0.0357599
0.035766
0.035775
0.0357849
0.0357942
0.0358085
0.0358184
0.0358364
0.0358477
0.0358692
0.0358817
0.035907
0.0359213
0.0359496
0.0359668
0.0359966
0.0360195
0.0360439
0.0360838
0.03608
0.036082
0.0360834
0.0360886
0.0360914
0.0360987
0.0361041
0.0361124
0.0361214
0.0361297
0.0361429
0.0361517
0.0361685
0.0361782
0.0361984
0.0362091
0.036233
0.0362452
0.0362719
0.0362866
0.036315
0.0363348
0.0363591
0.036394
0.0364327
0.0364346
0.0364358
0.0364408
0.0364431
0.0364499
0.0364546
0.0364621
0.0364703
0.0364777
0.0364898
0.0364973
0.0365129
0.0365212
0.03654
0.0365489
0.0365713
0.0365813
0.0366065
0.0366186
0.0366457
0.0366622
0.0366861
0.0367165
0.0367979
0.0367997
0.0368007
0.0368054
0.0368073
0.0368136
0.0368175
0.0368244
0.0368317
0.036838
0.0368491
0.0368554
0.0368697
0.0368766
0.036894
0.0369011
0.0369221
0.03693
0.0369536
0.0369632
0.0369888
0.0370019
0.0370255
0.0370512
0.0371756
0.0371774
0.0371782
0.0371826
0.037184
0.0371898
0.0371931
0.0371992
0.0372056
0.037211
0.037221
0.0372261
0.0372392
0.0372445
0.0372606
0.037266
0.0372854
0.0372912
0.0373134
0.0373203
0.0373445
0.0373543
0.0373773
0.0373982
0.0375659
0.0375677
0.0375683
0.0375724
0.0375734
0.0375788
0.0375814
0.0375868
0.0375923
0.0375967
0.0376056
0.0376095
0.0376213
0.0376252
0.0376399
0.0376434
0.0376615
0.0376651
0.0376858
0.0376902
0.0377129
0.0377195
0.0377415
0.0377577
0.037969
0.0379707
0.0379711
0.037975
0.0379756
0.0379805
0.0379824
0.0379871
0.0379918
0.0379953
0.038003
0.0380058
0.0380163
0.0380187
0.0380319
0.0380337
0.0380503
0.0380517
0.038071
0.0380728
0.0380943
0.0380977
0.0381184
0.0381299
0.038385
0.0383866
0.0383868
0.0383905
0.0383906
0.0383951
0.0383963
0.0384004
0.0384041
0.0384067
0.0384134
0.038415
0.0384242
0.0384251
0.038437
0.0384369
0.038452
0.0384513
0.0384691
0.0384683
0.0384884
0.0384887
0.0385084
0.038515
0.0388139
0.0388155
0.0388155
0.0388189
0.0388186
0.0388227
0.0388233
0.0388267
0.0388295
0.0388312
0.0388369
0.0388372
0.0388452
0.0388446
0.0388551
0.0388532
0.0388668
0.0388638
0.0388802
0.0388767
0.0388954
0.0388926
0.0389114
0.0389133
0.0392559
0.0392575
0.0392573
0.0392605
0.0392598
0.0392633
0.0392633
0.039266
0.0392681
0.0392688
0.0392734
0.0392726
0.0392794
0.0392773
0.0392864
0.0392827
0.0392948
0.0392896
0.0393044
0.0392982
0.0393155
0.0393096
0.0393272
0.039325
0.0397112
0.0397128
0.0397124
0.0397153
0.0397141
0.0397173
0.0397166
0.0397186
0.0397198
0.0397197
0.0397232
0.0397212
0.0397268
0.0397233
0.0397311
0.0397255
0.0397362
0.0397286
0.0397421
0.039733
0.0397489
0.0397396
0.039756
0.0397501
0.0401799
0.0401814
0.0401808
0.0401835
0.0401819
0.0401846
0.0401832
0.0401846
0.0401849
0.0401839
0.0401864
0.0401832
0.0401876
0.0401826
0.040189
0.0401817
0.040191
0.0401811
0.0401932
0.0401813
0.0401958
0.0401831
0.0401984
0.0401881
0.040662
0.0406635
0.0406627
0.0406651
0.0406631
0.0406653
0.0406633
0.040664
0.0406635
0.0406615
0.040663
0.0406586
0.0406618
0.0406553
0.0406604
0.0406513
0.0406592
0.0406471
0.0406579
0.0406431
0.0406565
0.04064
0.0406544
0.0406395
0.0411577
0.0411591
0.0411581
0.0411604
0.0411578
0.0411597
0.0411569
0.041157
0.0411556
0.0411527
0.0411531
0.0411475
0.0411495
0.0411415
0.0411453
0.0411343
0.041141
0.0411266
0.0411361
0.0411184
0.0411308
0.0411108
0.0411244
0.0411047
0.0416671
0.0416685
0.0416673
0.0416693
0.0416663
0.0416677
0.0416643
0.0416636
0.0416613
0.0416575
0.0416568
0.0416501
0.0416508
0.0416414
0.0416439
0.041631
0.0416363
0.0416197
0.0416279
0.0416074
0.0416188
0.0415951
0.0416081
0.041584
0.0421902
0.0421916
0.0421902
0.0421919
0.0421885
0.0421894
0.0421853
0.042184
0.0421808
0.042176
0.0421743
0.0421664
0.0421659
0.042155
0.0421561
0.0421414
0.0421453
0.0421264
0.0421334
0.0421099
0.0421204
0.042093
0.0421059
0.0420766
0.0427271
0.0427285
0.0427269
0.0427284
0.0427245
0.0427249
0.0427202
0.0427182
0.0427141
0.0427084
0.0427056
0.0426965
0.0426947
0.0426823
0.0426821
0.0426655
0.0426681
0.0426469
0.0426527
0.0426262
0.042636
0.0426043
0.0426177
0.0425829
0.0432779
0.0432792
0.0432774
0.0432787
0.0432743
0.0432743
0.0432689
0.0432662
0.0432612
0.0432546
0.0432507
0.0432404
0.0432374
0.0432235
0.043222
0.0432034
0.0432048
0.0431811
0.0431858
0.0431561
0.0431653
0.0431291
0.0431436
0.0431033
0.0438426
0.0438438
0.0438418
0.0438428
0.043838
0.0438376
0.0438314
0.0438281
0.0438222
0.0438146
0.0438097
0.0437981
0.043794
0.0437785
0.0437758
0.0437552
0.0437555
0.0437292
0.043733
0.0436999
0.0437089
0.0436686
0.0436825
0.0436377
0.044421
0.0444222
0.04442
0.0444208
0.0444155
0.0444147
0.0444078
0.0444038
0.044397
0.0443885
0.0443825
0.0443697
0.0443645
0.0443474
0.0443435
0.0443209
0.0443201
0.0442912
0.0442943
0.0442574
0.0442668
0.0442216
0.0442357
0.0441861
0.0450132
0.0450144
0.045012
0.0450126
0.0450068
0.0450055
0.044998
0.0449933
0.0449857
0.0449762
0.0449693
0.0449552
0.0449488
0.0449302
0.0449252
0.0449005
0.0448987
0.0448669
0.0448697
0.0448284
0.0448395
0.0447885
0.0448029
0.0447487
0.0456191
0.0456203
0.0456177
0.045618
0.0456118
0.0456101
0.0456019
0.0455966
0.0455881
0.0455777
0.0455698
0.0455545
0.0455471
0.0455267
0.0455209
0.0454939
0.0454915
0.0454564
0.0454595
0.0454145
0.0454244
0.0453705
0.0453841
0.0453255
0.0462385
0.0462397
0.0462369
0.046237
0.0462303
0.0462283
0.0462194
0.0462135
0.0462042
0.0461929
0.0461841
0.0461675
0.0461592
0.046137
0.0461305
0.0461011
0.0460984
0.0460593
0.0460642
0.0460143
0.0460238
0.0459662
0.0459795
0.0459166
0.0468714
0.0468725
0.0468695
0.0468695
0.0468623
0.04686
0.0468505
0.0468439
0.0468339
0.0468216
0.0468121
0.0467941
0.0467852
0.046761
0.0467542
0.046722
0.0467194
0.0466776
0.0466807
0.0466284
0.0466373
0.0465766
0.0465889
0.046522
0.0475175
0.0475186
0.0475154
0.0475152
0.0475076
0.047505
0.0474948
0.0474877
0.047477
0.0474638
0.0474538
0.0474341
0.047425
0.0473983
0.047392
0.0473568
0.0473542
0.0473089
0.0473119
0.0472571
0.0472645
0.0472009
0.0472126
0.0471417
0.0481765
0.0481777
0.0481743
0.048174
0.048166
0.0481631
0.0481524
0.0481447
0.0481335
0.0481191
0.048109
0.0480872
0.0480787
0.0480488
0.0480437
0.0480046
0.0480025
0.0479549
0.0479568
0.0478995
0.047906
0.0478396
0.0478504
0.0477757
0.0488484
0.0488497
0.0488461
0.0488457
0.0488373
0.0488342
0.0488229
0.0488145
0.0488032
0.0487873
0.0487777
0.0487534
0.0487456
0.0487138
0.0487072
0.0486674
0.0486638
0.048615
0.0486151
0.0485561
0.0485612
0.0484922
0.0485023
0.048424
0.0495329
0.0495343
0.0495303
0.0495302
0.0495212
0.0495181
0.0495062
0.0494971
0.0494861
0.0494685
0.0494589
0.0494336
0.0494247
0.0493921
0.0493846
0.0493436
0.0493385
0.0492882
0.0492875
0.0492264
0.0492305
0.049159
0.0491683
0.0490865
0.0502298
0.0502313
0.050227
0.0502271
0.0502174
0.0502145
0.0502019
0.0501928
0.0501808
0.0501631
0.0501526
0.0501267
0.0501169
0.0500835
0.0500751
0.0500328
0.0500268
0.0499754
0.049973
0.0499105
0.0499134
0.0498395
0.049848
0.0497631
0.0509389
0.0509404
0.0509361
0.0509359
0.0509263
0.050923
0.0509097
0.0509013
0.050888
0.0508703
0.050859
0.0508325
0.0508219
0.050788
0.0507784
0.0507353
0.0507281
0.0506754
0.0506722
0.050608
0.0506098
0.0505339
0.0505416
0.0504536
0.05166
0.0516615
0.0516573
0.051657
0.0516472
0.0516438
0.0516301
0.0516218
0.051607
0.0515903
0.0515775
0.0515509
0.0515396
0.0515048
0.0514946
0.0514505
0.0514425
0.0513889
0.0513842
0.0513189
0.0513197
0.0512416
0.0512486
0.0511578
0.052393
0.0523945
0.0523903
0.0523899
0.05238
0.0523765
0.0523625
0.0523542
0.0523385
0.0523223
0.0523077
0.0522821
0.0522696
0.0522342
0.0522232
0.0521786
0.0521695
0.0521149
0.0521094
0.0520427
0.0520424
0.0519627
0.0519689
0.0518755
0.0531377
0.0531393
0.053135
0.0531346
0.0531246
0.053121
0.0531068
0.0530985
0.053082
0.0530662
0.0530504
0.0530254
0.0530115
0.0529758
0.0529643
0.0529189
0.0529091
0.0528535
0.052847
0.0527792
0.052778
0.0526966
0.0527021
0.0526063
0.0538941
0.0538957
0.0538914
0.053891
0.0538808
0.0538773
0.0538628
0.0538545
0.0538375
0.0538219
0.0538052
0.0537804
0.0537649
0.0537302
0.0537171
0.0536713
0.0536607
0.0536042
0.0535968
0.0535281
0.053526
0.0534432
0.0534478
0.0533499
0.0546621
0.0546638
0.0546595
0.0546591
0.0546488
0.0546453
0.0546305
0.0546221
0.0546047
0.0545893
0.0545716
0.0545471
0.0545305
0.0544958
0.0544817
0.0544355
0.0544241
0.0543668
0.0543587
0.0542889
0.0542859
0.0542017
0.0542058
0.054106
0.0554419
0.0554436
0.0554392
0.0554389
0.0554284
0.0554248
0.0554097
0.0554013
0.0553835
0.0553681
0.0553496
0.0553251
0.0553078
0.0552726
0.0552574
0.0552114
0.055199
0.0551408
0.0551321
0.0550611
0.0550575
0.0549722
0.0549754
0.0548739
0.0562333
0.0562352
0.0562306
0.0562304
0.0562196
0.056216
0.0562005
0.056192
0.0561736
0.0561582
0.0561387
0.0561144
0.0560959
0.0560607
0.0560445
0.0559982
0.0559849
0.0559261
0.0559165
0.0558447
0.0558401
0.0557539
0.0557564
0.0556535
0.0570364
0.0570383
0.0570336
0.0570334
0.0570223
0.0570185
0.0570026
0.0569939
0.0569749
0.0569593
0.0569388
0.0569145
0.056895
0.0568594
0.0568423
0.0567957
0.0567816
0.0567219
0.0567118
0.0566389
0.0566338
0.0565466
0.0565484
0.0564442
0.0578509
0.0578529
0.057848
0.0578476
0.0578361
0.0578322
0.0578157
0.0578066
0.0577869
0.057771
0.0577493
0.0577253
0.0577041
0.0576688
0.0576502
0.0576034
0.0575886
0.0575284
0.0575172
0.0574438
0.0574376
0.0573499
0.057351
0.0572459
0.0586762
0.0586783
0.0586731
0.0586726
0.0586607
0.0586563
0.0586393
0.0586297
0.0586093
0.0585929
0.0585701
0.0585461
0.0585233
0.0584884
0.0584683
0.0584212
0.0584053
0.0583446
0.0583329
0.0582587
0.058252
0.0581636
0.058164
0.0580581
0.0595114
0.0595135
0.0595081
0.0595073
0.0594951
0.0594902
0.0594727
0.0594624
0.0594414
0.0594244
0.0594006
0.0593766
0.0593518
0.0593177
0.0592962
0.0592483
0.0592313
0.0591712
0.0591582
0.059084
0.0590762
0.0589876
0.0589874
0.058881
0.0603547
0.0603568
0.0603514
0.0603503
0.0603379
0.0603326
0.0603146
0.0603039
0.0602822
0.0602647
0.0602401
0.060216
0.0601897
0.0601564
0.0601324
0.0600861
0.0600662
0.0600075
0.0599935
0.0599193
0.0599107
0.0598218
0.059821
0.0597143
0.0612042
0.0612063
0.0612009
0.0611998
0.0611873
0.0611818
0.0611638
0.0611528
0.0611309
0.0611131
0.0610881
0.061064
0.0610365
0.0610039
0.0609778
0.0609332
0.0609123
0.0608526
0.0608379
0.0607646
0.0607551
0.0606663
0.0606652
0.0605584
0.0620576
0.0620597
0.0620546
0.0620536
0.0620414
0.0620362
0.0620184
0.0620077
0.0619861
0.0619686
0.0619436
0.0619198
0.0618919
0.0618602
0.0618328
0.0617897
0.0617665
0.0617089
0.0616915
0.0616208
0.06161
0.0615215
0.0615201
0.0614135
0.0629129
0.0629153
0.0629105
0.06291
0.0628984
0.062894
0.062877
0.0628672
0.0628465
0.0628299
0.0628057
0.0627829
0.0627554
0.0627249
0.0626968
0.0626556
0.0626307
0.0625756
0.062556
0.062487
0.0624755
0.0623876
0.0623861
0.0622798
0.0637695
0.063772
0.0637678
0.0637681
0.0637574
0.0637542
0.0637385
0.0637302
0.0637111
0.0636961
0.0636735
0.0636525
0.0636263
0.0635976
0.0635702
0.063531
0.0635056
0.0634525
0.0634334
0.0633626
0.0633526
0.0632648
0.0632634
0.0631575
0.064628
0.0646309
0.0646272
0.0646285
0.0646189
0.0646173
0.0646032
0.0645968
0.0645796
0.0645669
0.0645464
0.0645279
0.0645036
0.0644776
0.0644517
0.0644154
0.0643904
0.0643408
0.0643205
0.0642523
0.0642414
0.0641538
0.0641526
0.0640466
0.0654918
0.065495
0.0654919
0.0654942
0.0654856
0.0654855
0.0654729
0.0654685
0.0654533
0.0654429
0.0654249
0.065409
0.0653873
0.065364
0.065341
0.0653075
0.0652847
0.0652376
0.0652191
0.0651532
0.0651435
0.0650556
0.0650546
0.0649477
0.0663665
0.0663702
0.0663672
0.0663705
0.0663622
0.0663636
0.0663517
0.0663492
0.0663351
0.0663269
0.0663106
0.0662973
0.0662776
0.0662572
0.0662374
0.0662057
0.0661874
0.0661415
0.0661281
0.0660627
0.0660571
0.0659705
0.0659707
0.065863
0.06726
0.0672644
0.0672605
0.0672652
0.0672556
0.0672588
0.0672453
0.0672453
0.0672296
0.0672239
0.0672072
0.0671959
0.0671772
0.0671581
0.0671424
0.0671084
0.0670994
0.0670477
0.0670453
0.0669775
0.0669789
0.0668945
0.0668983
0.0667963
0.0681814
0.0681853
0.0681822
0.068185
0.0681765
0.068177
0.0681647
0.0681614
0.0681472
0.0681386
0.0681223
0.0681098
0.0680904
0.0680733
0.0680549
0.0680238
0.0680142
0.0679647
0.067964
0.0678977
0.0679027
0.0678203
0.0678289
0.0677346
0.0691391
0.0691427
0.069139
0.0691409
0.0691308
0.0691297
0.0691152
0.0691096
0.0690927
0.0690815
0.0690624
0.0690471
0.069025
0.0690061
0.0689828
0.0689548
0.0689381
0.0688915
0.0688898
0.0688227
0.0688297
0.0687454
0.0687574
0.0686635
0.0701396
0.070143
0.0701383
0.0701389
0.0701268
0.0701233
0.0701057
0.0700968
0.0700758
0.0700604
0.0700367
0.0700166
0.0699893
0.0699655
0.0699364
0.0699052
0.0698816
0.0698357
0.0698257
0.0697566
0.0697637
0.0696745
0.0696889
0.0695908
0.0711861
0.0711899
0.0711836
0.0711833
0.0711686
0.0711628
0.0711415
0.0711291
0.0711032
0.0710831
0.0710531
0.0710272
0.0709927
0.070962
0.0709247
0.0708865
0.0708546
0.070801
0.070785
0.070707
0.0707117
0.0706137
0.0706288
0.0705223
0.0722789
0.0722832
0.072275
0.0722743
0.0722571
0.0722496
0.0722243
0.0722096
0.0721775
0.0721548
0.0721163
0.0720867
0.0720422
0.072005
0.0719582
0.0719101
0.07187
0.0718011
0.0717785
0.0716867
0.0716837
0.0715725
0.0715851
0.0714648
0.0734145
0.073418
0.0734108
0.0734077
0.0733903
0.0733797
0.0733536
0.0733341
0.0733012
0.0732714
0.0732317
0.0731931
0.0731453
0.0730992
0.0730437
0.0729896
0.0729317
0.0728583
0.0728176
0.0727132
0.0726957
0.0725658
0.0725701
0.0724279
0.0745864
0.0745897
0.0745823
0.0745787
0.0745605
0.074549
0.0745215
0.0745004
0.0744653
0.0744332
0.0743904
0.0743485
0.0742965
0.0742455
0.0741843
0.0741234
0.0740542
0.07398
0.0739121
0.0738093
0.0737654
0.0736181
0.0736058
0.0734304
0.0757865
0.0757897
0.0757824
0.0757787
0.0757603
0.0757486
0.0757206
0.0756991
0.0756633
0.0756302
0.0755865
0.0755431
0.0754897
0.0754364
0.0753728
0.0753088
0.0752356
0.0751574
0.0750786
0.0749781
0.0749046
0.0747602
0.0747208
0.0745079
0.0770062
0.0770093
0.0770023
0.076999
0.0769807
0.0769694
0.0769417
0.0769207
0.0768853
0.0768527
0.0768094
0.0767665
0.0767134
0.0766607
0.0765974
0.0765338
0.0764608
0.0763829
0.0763038
0.0762043
0.076125
0.0759889
0.075932
0.0757072
0.0782366
0.0782402
0.0782334
0.0782306
0.0782129
0.0782025
0.0781756
0.0781557
0.0781214
0.0780903
0.0780484
0.0780072
0.077956
0.0779053
0.0778443
0.0777833
0.0777128
0.0776379
0.0775639
0.0774656
0.0773983
0.0772605
0.0772201
0.0770226
0.0794701
0.0794739
0.0794675
0.0794655
0.0794485
0.0794393
0.0794135
0.0793953
0.0793625
0.0793334
0.0792935
0.0792549
0.0792062
0.0791586
0.0791007
0.0790433
0.0789767
0.0789065
0.0788369
0.0787445
0.0786828
0.0785528
0.0785153
0.0783323
0.0806994
0.0807036
0.0806975
0.0806964
0.0806802
0.0806724
0.0806479
0.0806315
0.0806006
0.0805739
0.0805363
0.0805007
0.0804549
0.0804109
0.0803566
0.0803034
0.0802409
0.080176
0.0801109
0.0800255
0.079968
0.0798478
0.0798128
0.0796435
0.0819183
0.0819232
0.0819172
0.0819173
0.0819017
0.0818956
0.0818723
0.0818582
0.0818289
0.0818051
0.0817697
0.0817377
0.0816945
0.0816547
0.0816038
0.0815553
0.0814972
0.0814379
0.0813772
0.0812985
0.0812462
0.0811354
0.0811027
0.0809471
0.0831223
0.0831276
0.0831214
0.0831232
0.0831077
0.0831039
0.0830811
0.0830701
0.0830416
0.0830218
0.0829875
0.0829604
0.0829186
0.0828845
0.0828357
0.0827932
0.0827386
0.0826854
0.0826285
0.0825579
0.0825089
0.0824082
0.0823778
0.0822358
0.0843068
0.0843121
0.0843063
0.0843093
0.0842942
0.0842926
0.0842703
0.0842624
0.0842346
0.084219
0.0841854
0.0841637
0.0841226
0.0840952
0.0840472
0.0840124
0.0839595
0.0839128
0.0838619
0.0837957
0.0837518
0.0836611
0.0836326
0.0835041
0.0854683
0.0854736
0.0854686
0.0854715
0.0854586
0.0854568
0.0854378
0.0854298
0.0854063
0.0853908
0.0853623
0.0853413
0.0853056
0.08528
0.0852373
0.0852059
0.0851578
0.0851174
0.0850687
0.0850103
0.0849705
0.0848895
0.0848631
0.0847474
0.0866041
0.0866091
0.0866049
0.0866082
0.0865965
0.0865956
0.0865785
0.0865718
0.0865511
0.0865369
0.0865123
0.0864926
0.086462
0.0864378
0.0864009
0.0863719
0.0863292
0.0862932
0.0862481
0.0861985
0.0861623
0.08609
0.0860654
0.0859622
0.087711
0.0877166
0.0877128
0.0877166
0.0877059
0.0877062
0.0876906
0.0876854
0.087667
0.0876546
0.0876331
0.0876155
0.0875887
0.0875671
0.0875348
0.0875089
0.0874709
0.0874396
0.0873986
0.0873577
0.0873215
0.0872591
0.0872371
0.0871458
0.0887883
0.088794
0.0887905
0.088795
0.0887851
0.0887865
0.0887723
0.0887687
0.0887522
0.0887418
0.088723
0.0887078
0.0886843
0.0886656
0.088637
0.0886147
0.088581
0.0885541
0.0885176
0.088483
0.0884485
0.0883958
0.0883761
0.0882961
0.0898343
0.0898397
0.0898367
0.0898415
0.0898328
0.0898349
0.0898223
0.0898199
0.0898055
0.0897969
0.0897806
0.0897677
0.0897473
0.0897313
0.0897065
0.0896874
0.0896579
0.0896353
0.0896026
0.0895736
0.0895422
0.0894975
0.0894811
0.0894113
0.0908473
0.0908529
0.09085
0.0908559
0.090847
0.0908511
0.0908387
0.0908386
0.0908253
0.0908189
0.0908047
0.0907941
0.0907766
0.0907632
0.0907417
0.0907259
0.0907002
0.0906813
0.0906532
0.0906291
0.0906006
0.0905653
0.0905485
0.09049
0.0918271
0.0918324
0.0918305
0.0918354
0.0918293
0.0918319
0.091823
0.0918223
0.091812
0.0918065
0.0917948
0.0917861
0.0917713
0.0917605
0.0917423
0.0917294
0.0917074
0.0916922
0.0916675
0.091648
0.0916235
0.0915956
0.0915799
0.091531
0.092773
0.0927786
0.0927754
0.0927838
0.0927737
0.0927826
0.0927694
0.0927744
0.0927624
0.0927605
0.0927497
0.0927435
0.092731
0.0927227
0.0927072
0.0926974
0.0926785
0.0926667
0.092646
0.0926307
0.0926096
0.0925878
0.0925744
0.0925338
0.0936846
0.0936893
0.0936892
0.0936923
0.0936911
0.093691
0.0936883
0.0936864
0.0936817
0.0936775
0.0936707
0.0936654
0.0936555
0.0936493
0.0936367
0.0936294
0.0936138
0.0936053
0.0935876
0.0935765
0.0935591
0.0935423
0.0935302
0.0934985
0.0945617
0.0945676
0.0945636
0.094575
0.0945628
0.094577
0.0945616
0.0945726
0.0945602
0.0945633
0.0945548
0.0945529
0.0945445
0.0945406
0.0945303
0.0945256
0.0945128
0.0945071
0.094493
0.0944854
0.0944709
0.0944592
0.0944486
0.0944249
0.095405
0.095409
0.0954108
0.0954119
0.0954153
0.0954122
0.0954158
0.0954117
0.0954129
0.0954089
0.0954069
0.0954041
0.0953986
0.0953964
0.0953885
0.095386
0.0953759
0.0953733
0.0953614
0.0953573
0.0953459
0.0953382
0.0953302
0.0953134
0.096214
0.0962199
0.0962158
0.0962283
0.0962161
0.0962328
0.0962173
0.096232
0.0962199
0.0962273
0.0962205
0.0962224
0.0962173
0.0962174
0.0962113
0.0962111
0.0962035
0.096203
0.0961943
0.0961933
0.0961842
0.0961806
0.0961748
0.0961643
0.09699
0.0969935
0.0969963
0.0969967
0.0970022
0.0969988
0.0970056
0.097001
0.0970063
0.097003
0.0970049
0.0970041
0.0970025
0.0970035
0.0969997
0.0970013
0.0969959
0.0969982
0.0969914
0.0969933
0.0969868
0.0969871
0.0969834
0.096978
0.0977325
0.0977381
0.0977349
0.0977461
0.0977371
0.097752
0.0977403
0.0977547
0.0977454
0.0977546
0.0977502
0.0977549
0.0977527
0.0977561
0.0977536
0.0977572
0.0977539
0.0977579
0.0977538
0.0977584
0.0977539
0.0977577
0.0977561
0.0977555
0.0984435
0.0984465
0.0984495
0.0984508
0.0984555
0.0984549
0.098461
0.0984591
0.0984652
0.0984642
0.0984682
0.0984699
0.098471
0.0984749
0.0984743
0.0984794
0.0984779
0.0984843
0.0984817
0.0984885
0.0984862
0.0984934
0.098493
0.0984971
0.0991221
0.099127
0.0991255
0.0991341
0.0991298
0.0991403
0.099135
0.0991457
0.0991418
0.09915
0.0991491
0.0991552
0.0991559
0.0991616
0.0991621
0.0991688
0.099169
0.0991767
0.0991761
0.0991855
0.0991844
0.0991945
0.0991955
0.0992036
0.0997709
0.0997737
0.0997765
0.0997788
0.0997825
0.0997846
0.099789
0.099791
0.0997958
0.0997985
0.0998026
0.0998072
0.09981
0.0998165
0.0998183
0.0998262
0.0998278
0.0998374
0.0998382
0.0998491
0.0998498
0.0998626
0.0998643
0.0998762
0.100389
0.100393
0.100393
0.1004
0.100398
0.100406
0.100406
0.100413
0.100414
0.100421
0.100424
0.10043
0.100433
0.100441
0.100444
0.100453
0.100456
0.100466
0.100468
0.100482
0.100483
0.100498
0.100501
0.100516
0.100979
0.100982
0.100985
0.100987
0.100991
0.100993
0.100998
0.101002
0.101006
0.101012
0.101016
0.101023
0.101027
0.101035
0.101039
0.101049
0.101053
0.101065
0.101069
0.101083
0.101086
0.101103
0.101106
0.101124
0.101541
0.101544
0.101545
0.101551
0.10155
0.101558
0.101559
0.101566
0.101569
0.101575
0.10158
0.101587
0.101592
0.101601
0.101606
0.101617
0.101622
0.101635
0.101639
0.101655
0.101659
0.101678
0.101682
0.101702
0.102076
0.102078
0.102081
0.102083
0.102088
0.10209
0.102096
0.1021
0.102105
0.102112
0.102117
0.102125
0.10213
0.10214
0.102145
0.102157
0.102163
0.102177
0.102182
0.102199
0.102204
0.102224
0.10223
0.10225
0.102585
0.102588
0.102589
0.102594
0.102595
0.102601
0.102603
0.102611
0.102614
0.102622
0.102627
0.102636
0.102642
0.102652
0.102658
0.102671
0.102677
0.102692
0.102698
0.102716
0.102721
0.102742
0.102747
0.102773
0.103069
0.103071
0.103074
0.103076
0.10308
0.103084
0.103089
0.103094
0.1031
0.103106
0.103113
0.103121
0.103128
0.103139
0.103145
0.103158
0.103165
0.103181
0.103188
0.103206
0.103212
0.103235
0.103239
0.103268
0.103529
0.103531
0.103533
0.103536
0.10354
0.103544
0.103549
0.103555
0.10356
0.103568
0.103574
0.103583
0.10359
0.103601
0.103608
0.103622
0.103629
0.103645
0.103652
0.103672
0.103679
0.103702
0.103708
0.103736
0.103966
0.103968
0.10397
0.103974
0.103976
0.103982
0.103986
0.103992
0.103998
0.104005
0.104012
0.104021
0.104029
0.10404
0.104048
0.104061
0.10407
0.104086
0.104094
0.104114
0.104121
0.104146
0.104151
0.104181
0.104382
0.104383
0.104386
0.104388
0.104393
0.104396
0.104402
0.104407
0.104413
0.104421
0.104428
0.104437
0.104445
0.104457
0.104465
0.104479
0.104487
0.104504
0.104512
0.104533
0.104541
0.104566
0.104572
0.104602
0.104776
0.104778
0.10478
0.104783
0.104786
0.104792
0.104795
0.104803
0.104807
0.104816
0.104822
0.104833
0.10484
0.104852
0.10486
0.104875
0.104884
0.104901
0.10491
0.104931
0.104938
0.104964
0.104971
0.105002
0.10515
0.105152
0.105154
0.105158
0.10516
0.105166
0.10517
0.105176
0.105182
0.10519
0.105197
0.105207
0.105215
0.105227
0.105236
0.105251
0.105259
0.105277
0.105286
0.105308
0.105316
0.105342
0.105348
0.10538
0.105506
0.105507
0.10551
0.105512
0.105517
0.105519
0.105526
0.105531
0.105538
0.105545
0.105553
0.105563
0.105571
0.105583
0.105591
0.105607
0.105616
0.105634
0.105643
0.105665
0.105673
0.105699
0.105706
0.105739
0.105843
0.105845
0.105845
0.105851
0.105851
0.105859
0.10586
0.10587
0.105873
0.105883
0.105889
0.1059
0.105908
0.10592
0.105929
0.105944
0.105953
0.105972
0.10598
0.106003