/*--------------------------------*- C++ -*----------------------------------*\
  =========                 |
  \\      /  F ield         | OpenFOAM: The Open Source CFD Toolbox
   \\    /   O peration     | Website:  https://openfoam.org
    \\  /    A nd           | Version:  10
     \\/     M anipulation  |
\*---------------------------------------------------------------------------*/
FoamFile
{
    format      ascii;
    class       volVectorField;
    location    "0.47";
    object      U;
}
// * * * * * * * * * * * * * * * * * * * * * * * * * * * * * * * * * * * * * //

dimensions      [0 1 -1 0 0 0 0];

internalField   nonuniform List<vector> 
4176
(
(497.488 -0.0141026 -7.14917e-09)
(497.474 0.0637637 2.07177e-09)
(497.45 0.00150925 -7.03827e-10)
(497.4 0.09046 -6.17701e-11)
(497.346 0.0510959 -2.16731e-10)
(497.271 0.0895843 -5.76507e-10)
(497.181 0.125891 -2.64023e-10)
(497.088 0.0604961 4.29579e-10)
(496.954 0.225273 7.9123e-10)
(496.849 0.0048475 7.19113e-10)
(496.672 0.344426 4.33031e-10)
(496.549 -0.0690395 2.98373e-10)
(496.338 0.469845 5.86434e-11)
(496.191 -0.139447 -2.89678e-10)
(495.957 0.567795 -4.12759e-10)
(495.773 -0.135508 -2.56793e-10)
(495.536 0.528523 -1.95481e-10)
(495.286 0.023689 -1.30033e-11)
(495.073 0.334805 2.94423e-10)
(494.73 0.32297 1.62249e-10)
(494.576 -0.0171031 -1.32497e-10)
(494.097 0.7719 -1.29271e-10)
(494.067 -0.51607 1.76798e-10)
(493.444 1.44209 3.12569e-10)
(497.47 0.00495944 -7.14697e-09)
(497.455 0.114592 2.07217e-09)
(497.431 0.0765442 -7.0407e-10)
(497.379 0.203372 -6.26029e-11)
(497.325 0.186341 -2.16595e-10)
(497.247 0.264303 -5.76113e-10)
(497.156 0.321794 -2.64574e-10)
(497.059 0.295585 4.29653e-10)
(496.925 0.482231 7.91711e-10)
(496.814 0.297977 7.19158e-10)
(496.636 0.66294 4.32448e-10)
(496.508 0.278788 2.98262e-10)
(496.293 0.850426 5.70779e-11)
(496.142 0.25843 -2.89467e-10)
(495.901 1.01248 -4.12511e-10)
(495.713 0.302165 -2.5628e-10)
(495.47 1.04227 -1.96674e-10)
(495.215 0.510734 -1.31563e-11)
(494.996 0.914329 2.93375e-10)
(494.646 0.855166 1.61869e-10)
(494.492 0.628521 -1.32434e-10)
(493.992 1.33087 -1.31594e-10)
(493.956 0.12534 1.77562e-10)
(493.27 1.99244 3.12198e-10)
(497.413 0.0233061 -7.14974e-09)
(497.399 0.16124 2.07152e-09)
(497.375 0.147715 -7.05902e-10)
(497.324 0.307702 -6.17109e-11)
(497.273 0.313936 -2.16896e-10)
(497.194 0.426484 -5.76647e-10)
(497.108 0.505909 -2.61705e-10)
(497.011 0.514814 4.31508e-10)
(496.882 0.722947 7.9362e-10)
(496.772 0.572641 7.19245e-10)
(496.599 0.960718 4.31328e-10)
(496.473 0.606196 2.97293e-10)
(496.263 1.20622 5.86809e-11)
(496.116 0.634018 -2.89314e-10)
(495.878 1.42869 -4.12659e-10)
(495.697 0.713919 -2.55031e-10)
(495.454 1.52277 -1.99428e-10)
(495.209 0.965988 -1.4812e-11)
(494.994 1.45713 2.93989e-10)
(494.653 1.34381 1.6145e-10)
(494.507 1.24779 -1.33361e-10)
(494.016 1.88205 -1.28887e-10)
(493.981 0.838934 1.77903e-10)
(493.271 2.60856 3.13193e-10)
(497.309 0.0420367 -7.14763e-09)
(497.294 0.208737 2.07539e-09)
(497.271 0.220201 -7.06967e-10)
(497.22 0.414007 -5.87827e-11)
(497.169 0.443895 -2.17655e-10)
(497.091 0.591833 -5.80856e-10)
(497.004 0.693461 -2.61429e-10)
(496.907 0.738444 4.29086e-10)
(496.777 0.968157 7.86855e-10)
(496.668 0.852954 7.22552e-10)
(496.494 1.26405 4.32068e-10)
(496.37 0.940558 2.95425e-10)
(496.158 1.56889 6.01802e-11)
(496.013 1.01822 -2.90766e-10)
(495.771 1.85357 -4.19714e-10)
(495.593 1.13541 -2.56188e-10)
(495.346 2.01722 -1.97036e-10)
(495.097 1.42653 -1.52207e-11)
(494.891 2.00927 2.96267e-10)
(494.54 1.84064 1.60843e-10)
(494.399 1.85843 -1.36147e-10)
(493.915 2.41995 -1.29651e-10)
(493.885 1.52589 1.76195e-10)
(493.206 3.20528 3.03756e-10)
(497.157 0.0603639 -7.14945e-09)
(497.143 0.255249 2.08203e-09)
(497.12 0.29111 -7.02968e-10)
(497.069 0.518177 -5.89196e-11)
(497.018 0.57102 -2.14401e-10)
(496.941 0.753992 -5.75473e-10)
(496.856 0.876928 -2.63177e-10)
(496.76 0.957991 4.31367e-10)
(496.632 1.20803 7.92389e-10)
(496.524 1.12844 7.20389e-10)
(496.351 1.56084 4.32085e-10)
(496.229 1.26936 2.98214e-10)
(496.018 1.92416 5.67055e-11)
(495.876 1.39598 -2.91693e-10)
(495.634 2.27129 -4.17735e-10)
(495.461 1.55011 -2.58685e-10)
(495.21 2.51256 -1.98162e-10)
(494.966 1.86971 -1.44828e-11)
(494.764 2.5543 2.90773e-10)
(494.41 2.3385 1.66628e-10)
(494.272 2.45296 -1.28364e-10)
(493.793 2.94581 -1.26655e-10)
(493.763 2.16845 1.79841e-10)
(493.103 3.76314 3.14622e-10)
(496.957 0.0786828 -7.1621e-09)
(496.942 0.301465 2.08025e-09)
(496.919 0.361864 -7.01653e-10)
(496.869 0.621761 -6.37034e-11)
(496.819 0.69784 -2.25631e-10)
(496.742 0.915296 -5.80402e-10)
(496.658 1.05996 -2.60506e-10)
(496.561 1.17649 4.27693e-10)
(496.435 1.44732 7.93092e-10)
(496.327 1.40284 7.25806e-10)
(496.157 1.85674 4.32204e-10)
(496.035 1.59733 2.92367e-10)
(495.825 2.2778 5.39277e-11)
(495.684 1.77364 -2.89263e-10)
(495.443 2.68571 -4.20738e-10)
(495.274 1.96907 -2.56091e-10)
(495.018 3.00322 -1.8766e-10)
(494.787 2.31261 -1.16587e-11)
(494.571 3.10381 3.00572e-10)
(494.229 2.83525 1.68773e-10)
(494.085 3.04926 -1.32583e-10)
(493.611 3.47386 -1.37341e-10)
(493.575 2.81528 1.76663e-10)
(492.914 4.32004 3.14965e-10)
(496.708 0.0968243 -7.16248e-09)
(496.693 0.347016 2.07749e-09)
(496.671 0.431827 -7.17939e-10)
(496.621 0.723905 -6.37314e-11)
(496.572 0.823203 -2.11039e-10)
(496.495 1.07438 -5.79321e-10)
(496.412 1.24089 -2.71636e-10)
(496.316 1.39205 4.32556e-10)
(496.192 1.68387 7.99856e-10)
(496.084 1.67374 7.21012e-10)
(495.916 2.1492 4.2928e-10)
(495.795 1.9215 3.0323e-10)
(495.587 2.62706 6.95803e-11)
(495.448 2.14764 -2.87387e-10)
(495.208 3.09405 -4.16303e-10)
(495.043 2.38637 -2.52775e-10)
(494.785 3.48285 -1.97137e-10)
(494.565 2.7573 -1.73308e-11)
(494.338 3.65125 2.9504e-10)
(494.009 3.3201 1.66303e-10)
(493.86 3.64444 -1.33991e-10)
(493.392 4.00145 -1.37392e-10)
(493.352 3.47183 1.79097e-10)
(492.693 4.88229 3.20137e-10)
(496.41 0.114829 -7.17927e-09)
(496.396 0.392102 2.08823e-09)
(496.374 0.501168 -6.97897e-10)
(496.324 0.82503 -6.03778e-11)
(496.276 0.947397 -2.24026e-10)
(496.199 1.23187 -5.76357e-10)
(496.117 1.42008 -2.5483e-10)
(496.022 1.60546 4.31695e-10)
(495.899 1.91809 7.81965e-10)
(495.793 1.94204 7.18613e-10)
(495.626 2.43873 4.40091e-10)
(495.506 2.24278 2.97447e-10)
(495.301 2.97271 4.38303e-11)
(495.163 2.51867 -2.96095e-10)
(494.924 3.49787 -4.09273e-10)
(494.763 2.80116 -2.60829e-10)
(494.504 3.95509 -1.93516e-10)
(494.292 3.19959 -7.90623e-13)
(494.059 4.19404 2.98867e-10)
(493.742 3.80049 1.516e-10)
(493.586 4.23777 -1.34184e-10)
(493.126 4.52424 -1.21222e-10)
(493.083 4.12306 1.76695e-10)
(492.431 5.43732 2.97084e-10)
(496.065 0.132653 -7.19267e-09)
(496.051 0.436635 2.07528e-09)
(496.029 0.569728 -7.19927e-10)
(495.979 0.924929 -7.2735e-11)
(495.931 1.07013 -2.24316e-10)
(495.856 1.38742 -5.84678e-10)
(495.775 1.59708 -2.69832e-10)
(495.681 1.81622 4.29004e-10)
(495.559 2.14938 7.88939e-10)
(495.454 2.20704 7.15638e-10)
(495.289 2.72457 4.28165e-10)
(495.171 2.56029 2.95718e-10)
(494.967 3.31389 5.20226e-11)
(494.832 2.88571 -2.94916e-10)
(494.594 3.89625 -4.16021e-10)
(494.436 3.21212 -2.57719e-10)
(494.177 4.41883 -1.97811e-10)
(493.973 3.6389 -1.18059e-11)
(493.735 4.73001 2.95409e-10)
(493.43 4.27419 1.58455e-10)
(493.268 4.82861 -1.36171e-10)
(492.817 5.04235 -1.32238e-10)
(492.77 4.76988 1.78594e-10)
(492.127 5.98573 3.13608e-10)
(495.671 0.150295 -7.17846e-09)
(495.656 0.480623 2.10447e-09)
(495.635 0.637504 -7.0158e-10)
(495.586 1.02362 -4.97629e-11)
(495.539 1.19141 -2.05983e-10)
(495.463 1.54108 -5.67682e-10)
(495.384 1.77191 -2.52528e-10)
(495.29 2.02436 4.469e-10)
(495.17 2.37772 8.0784e-10)
(495.066 2.46872 7.32509e-10)
(494.903 3.00666 4.46463e-10)
(494.787 2.8739 3.11299e-10)
(494.585 3.65048 7.03165e-11)
(494.452 3.2485 -2.82384e-10)
(494.216 4.28911 -4.0242e-10)
(494.062 3.61894 -2.46982e-10)
(493.803 4.87443 -1.8399e-10)
(493.607 4.07446 -8.43328e-13)
(493.364 5.25844 3.09287e-10)
(493.071 4.74167 1.70008e-10)
(492.903 5.4148 -1.24064e-10)
(492.464 5.55382 -1.20014e-10)
(492.412 5.4105 1.88215e-10)
(491.779 6.52578 3.22959e-10)
(495.228 0.167726 -7.20153e-09)
(495.214 0.524013 2.09411e-09)
(495.193 0.704399 -7.11787e-10)
(495.144 1.121 -5.74533e-11)
(495.097 1.31108 -2.13061e-10)
(495.023 1.69267 -5.75796e-10)
(494.944 1.94435 -2.5725e-10)
(494.852 2.22966 4.45775e-10)
(494.734 2.60284 8.06685e-10)
(494.631 2.72678 7.31027e-10)
(494.47 3.28462 4.46714e-10)
(494.355 3.18319 3.13574e-10)
(494.155 3.98202 7.26558e-11)
(494.025 3.60647 -2.80843e-10)
(493.791 4.67595 -3.97842e-10)
(493.641 4.02091 -2.4094e-10)
(493.382 5.3218 -1.76485e-10)
(493.194 4.50575 5.39348e-12)
(492.947 5.77859 3.19741e-10)
(492.666 5.20366 1.80725e-10)
(492.492 5.99335 -1.35784e-10)
(492.065 6.05627 -1.5384e-10)
(492.009 6.0456 1.59201e-10)
(491.387 7.05708 2.92054e-10)
(494.737 0.184926 -7.21254e-09)
(494.723 0.56676 2.09798e-09)
(494.702 0.770337 -7.15684e-10)
(494.653 1.21696 -6.31257e-11)
(494.608 1.42902 -2.18503e-10)
(494.534 1.84207 -5.81899e-10)
(494.457 2.11428 -2.64962e-10)
(494.365 2.432 4.36588e-10)
(494.249 2.82459 7.9749e-10)
(494.147 2.98107 7.21862e-10)
(493.988 3.55827 4.36166e-10)
(493.876 3.48791 3.041e-10)
(493.678 4.30822 6.13446e-11)
(493.551 3.95922 -2.90784e-10)
(493.318 5.05638 -4.12558e-10)
(493.173 4.41743 -2.546e-10)
(492.914 5.76096 -1.93571e-10)
(492.733 4.93238 -7.93169e-12)
(492.484 6.28966 3.01293e-10)
(492.214 5.65786 1.62218e-10)
(492.035 6.56478 -1.30897e-10)
(491.62 6.55042 -1.24457e-10)
(491.561 6.67256 1.85403e-10)
(490.95 7.57892 3.18793e-10)
(494.197 0.201867 -7.22454e-09)
(494.183 0.608808 2.09879e-09)
(494.162 0.835216 -7.22624e-10)
(494.114 1.31139 -6.93113e-11)
(494.07 1.54506 -2.27211e-10)
(493.997 1.98911 -5.94419e-10)
(493.92 2.28147 -2.79073e-10)
(493.831 2.63115 4.20849e-10)
(493.715 3.04274 7.8148e-10)
(493.616 3.23134 7.03502e-10)
(493.459 3.82736 4.09826e-10)
(493.348 3.78775 2.77738e-10)
(493.152 4.62877 2.80686e-11)
(493.028 4.3063 -2.96646e-10)
(492.798 5.42996 -3.88815e-10)
(492.657 4.80779 -2.37209e-10)
(492.4 6.19178 -1.75387e-10)
(492.225 5.35395 4.49944e-12)
(491.973 6.79112 3.13859e-10)
(491.715 6.10449 1.72492e-10)
(491.532 7.12729 -1.22808e-10)
(491.13 7.03446 -1.19196e-10)
(491.067 7.291 1.91005e-10)
(490.468 8.09091 3.22236e-10)
(493.608 0.218523 -7.22882e-09)
(493.594 0.650101 2.12443e-09)
(493.574 0.898944 -7.24603e-10)
(493.526 1.40416 -8.88735e-11)
(493.483 1.65905 -2.30631e-10)
(493.411 2.1336 -5.85829e-10)
(493.336 2.44571 -2.57614e-10)
(493.247 2.82689 4.59234e-10)
(493.134 3.25703 8.01908e-10)
(493.036 3.47733 7.04473e-10)
(492.881 4.09162 4.22891e-10)
(492.773 4.08245 3.00942e-10)
(492.579 4.94338 6.99372e-11)
(492.458 4.64737 -2.77817e-10)
(492.23 5.79633 -4.22139e-10)
(492.093 5.1915 -2.78084e-10)
(491.838 6.61385 -2.11692e-10)
(491.67 5.76991 -1.40681e-11)
(491.417 7.28247 3.08153e-10)
(491.17 6.54283 1.78124e-10)
(490.983 7.68042 -1.35244e-10)
(490.594 7.50758 -1.47947e-10)
(490.529 7.89934 1.74474e-10)
(489.942 8.59245 3.19805e-10)
(492.97 0.234871 -7.25641e-09)
(492.956 0.690589 2.08725e-09)
(492.937 0.961432 -7.16915e-10)
(492.89 1.49514 -3.24834e-11)
(492.847 1.77081 -2.05201e-10)
(492.776 2.27534 -5.83384e-10)
(492.702 2.60675 -2.77284e-10)
(492.615 3.01893 4.14468e-10)
(492.504 3.46716 8.00361e-10)
(492.407 3.71874 7.47126e-10)
(492.255 4.35073 4.4376e-10)
(492.149 4.37167 2.94927e-10)
(491.958 5.25175 3.50917e-11)
(491.841 4.98208 -2.99761e-10)
(491.615 6.15517 -3.98239e-10)
(491.483 5.56808 -2.48903e-10)
(491.229 7.02671 -2.01369e-10)
(491.068 6.1795 -2.53583e-11)
(490.814 7.7631 2.67537e-10)
(490.578 6.97263 1.48907e-10)
(490.387 8.22379 -1.22372e-10)
(490.011 7.96893 -1.23587e-10)
(489.944 8.49638 1.74978e-10)
(489.37 9.08304 2.94854e-10)
(492.283 0.25089 -7.2548e-09)
(492.269 0.730228 2.14057e-09)
(492.25 1.0226 -7.25187e-10)
(492.204 1.58422 -9.24236e-11)
(492.162 1.88018 -2.3305e-10)
(492.092 2.41412 -5.84424e-10)
(492.02 2.76434 -2.48928e-10)
(491.934 3.207 4.69047e-10)
(491.825 3.67281 8.05795e-10)
(491.731 3.95521 7.07024e-10)
(491.58 4.60434 4.29637e-10)
(491.477 4.65505 3.08541e-10)
(491.289 5.55354 7.90688e-11)
(491.175 5.31008 -3.03702e-10)
(490.952 6.50615 -4.54951e-10)
(490.824 5.9371 -2.74228e-10)
(490.573 7.43003 -2.01623e-10)
(490.419 6.58191 -3.58316e-13)
(490.164 8.23225 3.23592e-10)
(489.94 7.39361 1.55337e-10)
(489.745 8.75672 -1.61446e-10)
(489.384 8.41821 -1.36696e-10)
(489.313 9.08151 1.88726e-10)
(488.753 9.56195 3.328e-10)
(491.546 0.266557 -7.28397e-09)
(491.533 0.768969 2.10683e-09)
(491.514 1.08236 -7.44806e-10)
(491.468 1.67129 -9.64796e-11)
(491.427 1.98701 -2.22875e-10)
(491.358 2.54975 -5.58514e-10)
(491.288 2.91824 -2.45066e-10)
(491.204 3.39079 4.5192e-10)
(491.097 3.87362 8.04068e-10)
(491.005 4.18634 7.19185e-10)
(490.857 4.85202 4.18599e-10)
(490.757 4.93215 2.76788e-10)
(490.572 5.84831 5.91856e-11)
(490.461 5.63093 -2.73491e-10)
(490.241 6.84892 -4.04647e-10)
(490.118 6.29817 -2.50824e-10)
(489.87 7.82352 -1.97929e-10)
(489.722 6.97631 -1.66531e-11)
(489.468 8.68911 2.8154e-10)
(489.255 7.80542 1.32101e-10)
(489.057 9.2777 -1.73175e-10)
(488.71 8.8561 -1.33364e-10)
(488.635 9.65518 2.0705e-10)
(488.091 10.0279 3.29975e-10)
(490.76 0.281848 -7.29168e-09)
(490.746 0.806759 2.1355e-09)
(490.728 1.14064 -7.12594e-10)
(490.683 1.75622 -4.21241e-11)
(490.643 2.09114 -2.00056e-10)
(490.576 2.68203 -5.63696e-10)
(490.507 3.06818 -2.3707e-10)
(490.425 3.57002 4.77509e-10)
(490.32 4.06925 8.46236e-10)
(490.231 4.41174 7.32074e-10)
(490.086 5.09334 4.0277e-10)
(489.988 5.20247 2.73251e-10)
(489.806 6.1356 2.59103e-11)
(489.7 5.94413 -3.25763e-10)
(489.483 7.18304 -4.4714e-10)
(489.365 6.65087 -2.76057e-10)
(489.119 8.20695 -2.14915e-10)
(488.978 7.36193 -1.99711e-11)
(488.724 9.133 2.94842e-10)
(488.524 8.20779 1.60424e-10)
(488.322 9.7863 -1.29765e-10)
(487.99 9.28214 -1.18946e-10)
(487.91 10.2166 1.96334e-10)
(487.382 10.4804 3.3447e-10)
(489.924 0.296734 -7.31486e-09)
(489.91 0.843535 2.12667e-09)
(489.893 1.19732 -7.34854e-10)
(489.848 1.83888 -6.86497e-11)
(489.81 2.19238 -2.33345e-10)
(489.743 2.81075 -6.07754e-10)
(489.677 3.21392 -2.82768e-10)
(489.596 3.74439 4.28961e-10)
(489.494 4.25936 7.89449e-10)
(489.407 4.63103 7.08803e-10)
(489.265 5.32786 4.16016e-10)
(489.171 5.46554 2.77533e-10)
(488.992 6.41488 2.12602e-11)
(488.89 6.24912 -3.34546e-10)
(488.676 7.508 -4.65639e-10)
(488.563 6.99463 -2.98993e-10)
(488.32 8.57986 -2.02227e-10)
(488.186 7.73828 2.10626e-11)
(487.934 9.56349 3.34984e-10)
(487.745 8.60031 1.86656e-10)
(487.54 10.282 -1.09107e-10)
(487.224 9.69602 -1.07621e-10)
(487.14 10.765 2.04995e-10)
(486.628 10.9189 3.39207e-10)
(489.037 0.31118 -7.34832e-09)
(489.024 0.879218 2.14282e-09)
(489.007 1.25228 -7.075e-10)
(488.963 1.9191 -6.40249e-11)
(488.926 2.29053 -2.08124e-10)
(488.861 2.93567 -5.59405e-10)
(488.796 3.35521 -2.60913e-10)
(488.718 3.91361 4.26377e-10)
(488.618 4.44363 8.09247e-10)
(488.534 4.84385 7.48914e-10)
(488.395 5.55516 4.30009e-10)
(488.305 5.72088 3.07306e-10)
(488.13 6.68564 7.08547e-11)
(488.031 6.54532 -3.15177e-10)
(487.822 7.8232 -4.21033e-10)
(487.714 7.32882 -2.39411e-10)
(487.474 8.94171 -2.07174e-10)
(487.347 8.10479 -4.1207e-11)
(487.097 9.98018 2.85669e-10)
(486.919 8.98255 1.59629e-10)
(486.712 10.7644 -1.62637e-10)
(486.411 10.0974 -1.35606e-10)
(486.322 11.2999 1.93062e-10)
(485.828 11.343 3.03098e-10)
(488.1 0.325148 -7.34669e-09)
(488.087 0.91372 2.15974e-09)
(488.071 1.30539 -7.09804e-10)
(488.028 1.9967 -2.98304e-11)
(487.992 2.38538 -1.90487e-10)
(487.929 3.05654 -5.98428e-10)
(487.866 3.49174 -3.0673e-10)
(487.79 4.07739 4.19004e-10)
(487.693 4.62172 7.93053e-10)
(487.611 5.04983 7.18913e-10)
(487.476 5.77486 4.30574e-10)
(487.389 5.96807 3.03228e-10)
(487.218 6.9474 6.12034e-11)
(487.124 6.83217 -2.90495e-10)
(486.918 8.12807 -4.03091e-10)
(486.816 7.65278 -2.35398e-10)
(486.58 9.29192 -1.69111e-10)
(486.46 8.46075 -1.65054e-11)
(486.212 10.3827 2.57871e-10)
(486.046 9.35417 1.27201e-10)
(485.837 11.2326 -1.63153e-10)
(485.551 10.486 -1.48237e-10)
(485.458 11.8208 1.67101e-10)
(484.981 11.7524 3.12455e-10)
(487.113 0.338596 -7.38532e-09)
(487.1 0.946948 2.11799e-09)
(487.084 1.35648 -7.35376e-10)
(487.042 2.07148 -2.97529e-11)
(487.008 2.47667 -2.14518e-10)
(486.946 3.1731 -5.99836e-10)
(486.886 3.62323 -2.83019e-10)
(486.812 4.2354 4.64299e-10)
(486.718 4.7933 8.58296e-10)
(486.639 5.24865 7.58239e-10)
(486.507 5.98659 4.45839e-10)
(486.424 6.20669 2.89845e-10)
(486.257 7.19972 1.66004e-11)
(486.167 7.10916 -3.1404e-10)
(485.966 8.42205 -4.09086e-10)
(485.87 7.96584 -2.57488e-10)
(485.638 9.62985 -2.14276e-10)
(485.525 8.80537 -3.78724e-11)
(485.281 10.7707 3.03444e-10)
(485.125 9.71478 1.82702e-10)
(484.914 11.6859 -1.29643e-10)
(484.644 10.8614 -1.39774e-10)
(484.548 12.3271 1.53793e-10)
(484.089 12.1465 3.17749e-10)
(486.075 0.351487 -7.40757e-09)
(486.062 0.978818 2.12502e-09)
(486.047 1.40543 -7.37928e-10)
(486.006 2.14324 -2.43782e-11)
(485.973 2.56417 -2.05156e-10)
(485.913 3.28505 -5.96071e-10)
(485.855 3.74935 -2.83065e-10)
(485.784 4.38731 4.16178e-10)
(485.692 4.95801 8.10797e-10)
(485.617 5.43993 7.64885e-10)
(485.489 6.18997 4.56673e-10)
(485.41 6.43637 2.99844e-10)
(485.247 7.44218 2.65233e-11)
(485.162 7.37586 -3.05902e-10)
(484.965 8.70465 -3.9975e-10)
(484.875 8.2674 -2.53139e-10)
(484.647 9.95485 -2.09434e-10)
(484.542 9.13777 -2.87672e-11)
(484.301 11.1438 3.14585e-10)
(484.156 10.064 1.91872e-10)
(483.944 12.1232 -1.19925e-10)
(483.691 11.2228 -1.31007e-10)
(483.59 12.8183 1.6907e-10)
(483.149 12.5251 2.91144e-10)
(484.985 0.36379 -7.43691e-09)
(484.973 1.00926 2.17241e-09)
(484.958 1.45212 -7.15193e-10)
(484.919 2.21183 -6.81196e-11)
(484.888 2.64766 -2.61614e-10)
(484.829 3.39215 -6.13673e-10)
(484.774 3.86981 -2.57419e-10)
(484.705 4.53279 4.33886e-10)
(484.617 5.1155 8.18442e-10)
(484.545 5.6233 7.56573e-10)
(484.421 6.38462 4.31252e-10)
(484.345 6.65673 3.15214e-10)
(484.187 7.67441 8.4608e-11)
(484.107 7.63185 -3.11951e-10)
(483.915 8.97546 -4.70182e-10)
(483.831 8.55699 -2.77227e-10)
(483.608 10.2664 -1.9365e-10)
(483.511 9.45728 -2.39368e-11)
(483.273 11.5016 3.10078e-10)
(483.138 10.4012 1.78358e-10)
(482.926 12.5437 -1.46662e-10)
(482.69 11.5697 -1.17195e-10)
(482.586 13.2935 2.20632e-10)
(482.164 12.8876 3.25252e-10)
(483.845 0.375483 -7.42837e-09)
(483.833 1.03821 2.20348e-09)
(483.819 1.49645 -7.0228e-10)
(483.781 2.27712 -5.6792e-11)
(483.751 2.72698 -2.57144e-10)
(483.695 3.49417 -6.1554e-10)
(483.642 3.98433 -2.62728e-10)
(483.576 4.67152 4.79213e-10)
(483.491 5.26539 8.58842e-10)
(483.422 5.79837 7.37575e-10)
(483.302 6.57012 4.04765e-10)
(483.231 6.86735 2.84695e-10)
(483.077 7.89598 4.60848e-11)
(483.002 7.87672 -3.0316e-10)
(482.815 9.23406 -4.10679e-10)
(482.737 8.83416 -2.28174e-10)
(482.519 10.5641 -2.04856e-10)
(482.43 9.76337 -4.3056e-11)
(482.196 11.8435 2.83293e-10)
(482.073 10.7257 1.50052e-10)
(481.861 12.9466 -1.30836e-10)
(481.641 11.901 -1.07642e-10)
(481.534 13.7513 2.26818e-10)
(481.132 13.2335 3.2613e-10)
(482.653 0.38655 -7.44632e-09)
(482.641 1.06565 2.18042e-09)
(482.629 1.53836 -7.64249e-10)
(482.591 2.33901 -4.50893e-11)
(482.563 2.80197 -2.30986e-10)
(482.509 3.59093 -6.22988e-10)
(482.459 4.09268 -2.46318e-10)
(482.395 4.80321 4.59302e-10)
(482.314 5.40735 8.00715e-10)
(482.249 5.96478 7.55938e-10)
(482.133 6.74607 4.44657e-10)
(482.067 7.06783 2.85166e-10)
(481.917 8.10648 6.83546e-11)
(481.848 8.11009 -3.14796e-10)
(481.666 9.48006 -4.63315e-10)
(481.594 9.09852 -2.58979e-10)
(481.381 10.8475 -2.16377e-10)
(481.3 10.0555 -3.28828e-11)
(481.071 12.169 3.13044e-10)
(480.958 11.0368 1.45325e-10)
(480.747 13.3313 -1.71098e-10)
(480.543 12.216 -1.27552e-10)
(480.434 14.1905 1.67635e-10)
(480.052 13.5622 2.91782e-10)
(481.411 0.396981 -7.52898e-09)
(481.399 1.09154 2.16295e-09)
(481.387 1.57782 -7.67171e-10)
(481.351 2.39743 -7.48188e-11)
(481.325 2.87256 -2.31527e-10)
(481.272 3.68229 -6.01593e-10)
(481.224 4.19467 -2.5759e-10)
(481.164 4.92764 4.7897e-10)
(481.086 5.54109 8.49217e-10)
(481.025 6.12217 7.69272e-10)
(480.913 6.91207 4.80187e-10)
(480.852 7.25773 2.91222e-10)
(480.707 8.30545 3.89961e-11)
(480.644 8.33149 -3.21586e-10)
(480.467 9.71304 -4.41405e-10)
(480.402 9.34966 -2.64497e-10)
(480.194 11.1163 -1.99125e-10)
(480.121 10.3334 3.43439e-12)
(479.896 12.4778 3.25982e-10)
(479.794 11.3338 1.75914e-10)
(479.585 13.6973 -1.71804e-10)
(479.398 12.5144 -1.53117e-10)
(479.286 14.6105 1.68667e-10)
(478.924 13.8734 3.08339e-10)
(480.117 0.406765 -7.51296e-09)
(480.105 1.11586 2.2235e-09)
(480.094 1.61478 -7.13041e-10)
(480.059 2.45233 -6.24625e-11)
(480.035 2.93866 -2.66565e-10)
(479.984 3.76816 -6.33449e-10)
(479.939 4.29018 -2.74931e-10)
(479.882 5.04463 4.75331e-10)
(479.808 5.66639 8.52102e-10)
(479.75 6.27028 7.83006e-10)
(479.643 7.06778 4.4576e-10)
(479.586 7.43666 2.68909e-10)
(479.446 8.49246 2.67038e-11)
(479.389 8.54048 -3.285e-10)
(479.217 9.93255 -4.36914e-10)
(479.159 9.58714 -2.48585e-10)
(478.957 11.3701 -1.69408e-10)
(478.892 10.5964 4.09051e-11)
(478.672 12.7697 3.15382e-10)
(478.581 11.6158 1.23932e-10)
(478.374 14.0433 -1.6039e-10)
(478.204 12.7964 -1.32305e-10)
(478.089 15.0123 2.04644e-10)
(477.747 14.1678 3.57215e-10)
(478.771 0.41589 -7.52585e-09)
(478.76 1.13859 2.19908e-09)
(478.75 1.6492 -7.91702e-10)
(478.716 2.50365 -6.89513e-11)
(478.693 3.00021 -1.96781e-10)
(478.645 3.84846 -5.98267e-10)
(478.603 4.3791 -2.8698e-10)
(478.548 5.15406 4.77785e-10)
(478.478 5.78308 8.19189e-10)
(478.425 6.40888 7.07857e-10)
(478.322 7.21292 4.46649e-10)
(478.269 7.60429 3.39352e-10)
(478.135 8.66711 5.10244e-11)
(478.083 8.73661 -3.41334e-10)
(477.917 10.1381 -4.32233e-10)
(477.866 9.81047 -2.2653e-10)
(477.67 11.6085 -1.94377e-10)
(477.613 10.8443 -2.42383e-11)
(477.399 13.0443 3.2939e-10)
(477.318 11.882 1.50896e-10)
(477.114 14.3683 -1.7971e-10)
(476.961 13.0621 -1.37839e-10)
(476.843 15.3947 2.17531e-10)
(476.523 14.4436 3.31114e-10)
(477.375 0.424338 -7.61279e-09)
(477.364 1.15968 2.1803e-09)
(477.354 1.68103 -7.82624e-10)
(477.321 2.55132 -8.19497e-11)
(477.3 3.05712 -2.45547e-10)
(477.255 3.92309 -6.25362e-10)
(477.215 4.46136 -2.75115e-10)
(477.164 5.25585 4.67828e-10)
(477.097 5.89106 8.34659e-10)
(477.047 6.53787 7.46434e-10)
(476.949 7.34732 4.53752e-10)
(476.902 7.7604 3.22127e-10)
(476.773 8.82909 6.34896e-11)
(476.727 8.9195 -3.0774e-10)
(476.567 10.3293 -4.27261e-10)
(476.523 10.0192 -2.49633e-10)
(476.333 11.831 -1.88096e-10)
(476.284 11.0765 9.74297e-12)
(476.076 13.3014 3.3733e-10)
(476.005 12.1321 1.84244e-10)
(475.805 14.6716 -1.10613e-10)
(475.668 13.3114 -1.60043e-10)
(475.548 15.756 1.56359e-10)
(475.25 14.699 3.04258e-10)
(475.926 0.432094 -7.56511e-09)
(475.915 1.1791 2.25223e-09)
(475.907 1.7102 -7.43429e-10)
(475.875 2.59526 -4.23149e-11)
(475.856 3.10932 -2.15597e-10)
(475.813 3.99198 -6.01522e-10)
(475.776 4.53686 -2.56609e-10)
(475.727 5.3499 4.83079e-10)
(475.664 5.99025 8.44233e-10)
(475.619 6.65717 7.48648e-10)
(475.525 7.47088 4.48352e-10)
(475.483 7.90487 3.04405e-10)
(475.359 8.97817 3.77074e-11)
(475.319 9.08887 -3.33195e-10)
(475.165 10.5057 -4.67429e-10)
(475.129 10.2128 -2.96902e-10)
(474.944 12.037 -2.40619e-10)
(474.905 11.2926 2.16273e-11)
(474.702 13.5404 3.39221e-10)
(474.642 12.3657 1.73521e-10)
(474.446 14.9531 -1.23781e-10)
(474.326 13.5429 -1.21116e-10)
(474.204 16.0964 1.95354e-10)
(473.927 14.9354 3.33734e-10)
(474.426 0.439143 -7.61067e-09)
(474.416 1.19682 2.23289e-09)
(474.408 1.73668 -7.83915e-10)
(474.378 2.63541 -4.26786e-11)
(474.36 3.15671 -2.28793e-10)
(474.319 4.05503 -6.30089e-10)
(474.285 4.6055 -2.44092e-10)
(474.24 5.43614 4.79303e-10)
(474.18 6.08056 8.28191e-10)
(474.139 6.7667 7.76437e-10)
(474.05 7.58353 4.55809e-10)
(474.013 8.03763 2.98766e-10)
(473.894 9.11428 7.64869e-11)
(473.861 9.24461 -3.16237e-10)
(473.712 10.667 -4.6262e-10)
(473.683 10.3909 -2.49445e-10)
(473.505 12.2261 -2.08047e-10)
(473.474 11.4918 -2.48514e-11)
(473.278 13.7609 3.40853e-10)
(473.229 12.5821 1.62293e-10)
(473.037 15.2127 -1.64175e-10)
(472.933 13.7568 -1.09703e-10)
(472.809 16.4149 1.96712e-10)
(472.554 15.1526 3.1194e-10)
(472.874 0.445476 -7.69093e-09)
(472.864 1.21282 2.24163e-09)
(472.857 1.76042 -7.49177e-10)
(472.828 2.67172 -8.35928e-11)
(472.813 3.19925 -2.2325e-10)
(472.774 4.11217 -5.85005e-10)
(472.742 4.6672 -2.82987e-10)
(472.7 5.51446 4.88515e-10)
(472.645 6.16191 8.77147e-10)
(472.607 6.8664 7.3989e-10)
(472.523 7.68521 4.63314e-10)
(472.491 8.15867 3.50389e-10)
(472.377 9.23736 4.32001e-11)
(472.35 9.38668 -3.11488e-10)
(472.208 10.8132 -4.10551e-10)
(472.186 10.5534 -2.80377e-10)
(472.014 12.3979 -2.01849e-10)
(471.993 11.6737 2.33331e-11)
(471.803 13.9621 3.08513e-10)
(471.764 12.7804 1.68484e-10)
(471.578 15.4507 -1.1074e-10)
(471.488 13.9541 -1.39036e-10)
(471.364 16.7102 2.0442e-10)
(471.132 15.3488 3.60158e-10)
(471.271 0.451094 -7.68319e-09)
(471.261 1.22709 2.28805e-09)
(471.255 1.78144 -7.20178e-10)
(471.227 2.70419 -4.86475e-11)
(471.214 3.23691 -2.62781e-10)
(471.177 4.16336 -6.28231e-10)
(471.148 4.72191 -2.50433e-10)
(471.109 5.58481 5.18068e-10)
(471.057 6.23421 9.072e-10)
(471.024 6.9562 7.75446e-10)
(470.944 7.77584 4.24053e-10)
(470.917 8.26794 3.05975e-10)
(470.809 9.3474 6.99889e-11)
(470.788 9.51511 -2.87481e-10)
(470.652 10.9442 -3.91588e-10)
(470.637 10.7004 -2.623e-10)
(470.472 12.5524 -2.50767e-10)
(470.459 11.8381 -1.90092e-11)
(470.276 14.1438 3.23906e-10)
(470.248 12.9597 1.81019e-10)
(470.067 15.6668 -9.05778e-11)
(469.993 14.1345 -1.27728e-10)
(469.868 16.9817 1.50756e-10)
(469.659 15.5238 3.13557e-10)
(469.616 0.456003 -7.77313e-09)
(469.606 1.23967 2.22265e-09)
(469.6 1.79975 -8.08104e-10)
(469.574 2.73284 -9.80205e-11)
(469.562 3.26972 -2.63756e-10)
(469.528 4.20861 -6.51368e-10)
(469.502 4.76963 -2.9729e-10)
(469.466 5.64715 4.52452e-10)
(469.418 6.29741 8.23302e-10)
(469.389 7.036 7.30786e-10)
(469.314 7.85535 4.25041e-10)
(469.292 8.36535 2.86908e-10)
(469.189 9.44433 2.19284e-11)
(469.174 9.6299 -3.53713e-10)
(469.044 11.0601 -4.83025e-10)
(469.037 10.8318 -3.00896e-10)
(468.878 12.6895 -2.44437e-10)
(468.874 11.9848 -3.73108e-11)
(468.697 14.3057 2.83564e-10)
(468.681 13.1197 1.26651e-10)
(468.505 15.8603 -1.82211e-10)
(468.446 14.2977 -1.6434e-10)
(468.32 17.229 1.58645e-10)
(468.135 15.6774 3.02706e-10)
(467.909 0.460216 -7.73876e-09)
(467.899 1.25056 2.27088e-09)
(467.894 1.8154 -7.9866e-10)
(467.869 2.75771 -3.37073e-11)
(467.859 3.29774 -2.24545e-10)
(467.827 4.24798 -6.32646e-10)
(467.804 4.81038 -2.30058e-10)
(467.771 5.7015 5.0372e-10)
(467.727 6.3515 8.53996e-10)
(467.702 7.10577 8.08254e-10)
(467.631 7.92363 4.81363e-10)
(467.614 8.45082 3.14453e-10)
(467.517 9.52802 9.81529e-11)
(467.509 9.73095 -3.02815e-10)
(467.384 11.1608 -4.49632e-10)
(467.384 10.9477 -2.88583e-10)
(467.231 12.8094 -2.52176e-10)
(467.237 12.1142 8.03662e-13)
(467.066 14.448 3.06799e-10)
(467.061 13.2601 1.27082e-10)
(466.891 16.0308 -1.33087e-10)
(466.846 14.4424 -1.40273e-10)
(466.722 17.451 1.5963e-10)
(466.559 15.8095 3.47135e-10)
(466.149 0.463744 -7.76347e-09)
(466.14 1.2598 2.28859e-09)
(466.136 1.82843 -7.95767e-10)
(466.112 2.77887 -2.6362e-11)
(466.104 3.32103 -2.18623e-10)
(466.074 4.28153 -6.28023e-10)
(466.054 4.84426 -2.23379e-10)
(466.024 5.74792 5.13644e-10)
(465.983 6.39651 8.64255e-10)
(465.962 7.16553 7.48844e-10)
(465.896 7.98066 4.19877e-10)
(465.885 8.52426 3.28865e-10)
(465.793 9.59835 4.18759e-11)
(465.791 9.81813 -3.57541e-10)
(465.672 11.2462 -4.37295e-10)
(465.68 11.0481 -2.76219e-10)
(465.533 12.912 -2.38883e-10)
(465.548 12.2263 1.40509e-11)
(465.382 14.5709 3.23258e-10)
(465.389 13.3813 1.40041e-10)
(465.225 16.1788 -1.19624e-10)
(465.194 14.5673 -1.28544e-10)
(465.073 17.6461 1.8177e-10)
(464.933 15.92 3.67342e-10)
(464.338 0.466597 -7.81447e-09)
(464.329 1.26741 2.34545e-09)
(464.326 1.83889 -7.72135e-10)
(464.303 2.79637 -8.51676e-11)
(464.297 3.33967 -2.1966e-10)
(464.268 4.30936 -5.72627e-10)
(464.251 4.87134 -2.51126e-10)
(464.224 5.78652 4.66867e-10)
(464.187 6.43255 8.74755e-10)
(464.171 7.21533 8.14378e-10)
(464.109 8.02648 4.70383e-10)
(464.102 8.58565 2.95361e-10)
(464.016 9.65524 6.30004e-11)
(464.02 9.89132 -2.85039e-10)
(463.907 11.316 -4.53112e-10)
(463.923 11.1328 -3.03275e-10)
(463.782 12.9972 -2.10766e-10)
(463.806 12.3211 2.7497e-11)
(463.647 14.6744 3.25433e-10)
(463.664 13.4837 1.27796e-10)
(463.506 16.3052 -1.49722e-10)
(463.489 14.6714 -1.1011e-10)
(463.371 17.8127 1.90175e-10)
(463.254 16.0088 2.99766e-10)
(462.474 0.468783 -7.87501e-09)
(462.466 1.27342 2.28515e-09)
(462.463 1.8468 -8.09443e-10)
(462.442 2.81024 -1.00405e-10)
(462.437 3.3537 -2.82655e-10)
(462.411 4.33153 -6.84045e-10)
(462.396 4.89171 -2.58514e-10)
(462.372 5.81737 5.62898e-10)
(462.339 6.4597 9.2781e-10)
(462.326 7.2553 8.24315e-10)
(462.269 8.06116 5.00165e-10)
(462.267 8.63508 3.44742e-10)
(462.186 9.69869 7.01326e-11)
(462.197 9.95045 -3.20489e-10)
(462.09 11.3702 -4.61981e-10)
(462.113 11.2014 -2.90613e-10)
(461.979 13.0646 -2.40711e-10)
(462.012 12.3984 -3.76076e-11)
(461.86 14.7584 2.75749e-10)
(461.888 13.5671 1.08832e-10)
(461.735 16.41 -1.43536e-10)
(461.732 14.7556 -7.84745e-11)
(461.617 17.951 2.50515e-10)
(461.522 16.0752 3.77102e-10)
(460.558 0.470302 -7.9365e-09)
(460.55 1.27782 2.30336e-09)
(460.548 1.85218 -7.7881e-10)
(460.528 2.82051 -1.0806e-10)
(460.525 3.36317 -2.63254e-10)
(460.5 4.34806 -6.34913e-10)
(460.488 4.90542 -2.51913e-10)
(460.468 5.84055 5.29905e-10)
(460.438 6.47804 8.46585e-10)
(460.429 7.28551 7.70145e-10)
(460.376 8.08481 4.80119e-10)
(460.38 8.67264 2.82661e-10)
(460.304 9.72877 3.37184e-11)
(460.321 9.99559 -3.2891e-10)
(460.22 11.4085 -4.41917e-10)
(460.251 11.254 -2.44086e-10)
(460.123 13.114 -2.33963e-10)
(460.166 12.4577 -4.30287e-12)
(460.019 14.8224 3.44401e-10)
(460.059 13.6313 1.21981e-10)
(459.912 16.4931 -1.74765e-10)
(459.922 14.8202 -1.36406e-10)
(459.811 18.0617 2.14258e-10)
(459.737 16.1198 3.65604e-10)
(458.589 0.471152 -7.90047e-09)
(458.581 1.28061 2.33779e-09)
(458.58 1.85502 -8.03043e-10)
(458.561 2.82717 -9.33842e-11)
(458.559 3.36805 -2.7831e-10)