/*--------------------------------*- C++ -*----------------------------------*\
  =========                 |
  \\      /  F ield         | OpenFOAM: The Open Source CFD Toolbox
   \\    /   O peration     | Website:  https://openfoam.org
    \\  /    A nd           | Version:  10
     \\/     M anipulation  |
\*---------------------------------------------------------------------------*/
FoamFile
{
    format      ascii;
    class       volScalarField;
    location    "0.02";
    object      Ma;
}
// * * * * * * * * * * * * * * * * * * * * * * * * * * * * * * * * * * * * * //

dimensions      [0 0 0 0 0 0 0];

internalField   nonuniform List<scalar> 
4176
(
0.864708
0.864677
0.864638
0.864582
0.864505
0.864407
0.864291
0.864151
0.863997
0.863814
0.863622
0.863394
0.863163
0.862888
0.86262
0.862289
0.861996
0.861587
0.861302
0.86076
0.860565
0.85984
0.859753
0.858938
0.837295
0.837262
0.837219
0.837157
0.837073
0.836966
0.836841
0.83669
0.836523
0.836326
0.836118
0.835873
0.835624
0.835329
0.83504
0.834684
0.834367
0.833933
0.833609
0.833056
0.832785
0.832047
0.831891
0.830948
0.828507
0.828473
0.828429
0.828366
0.82828
0.828171
0.828043
0.827888
0.827719
0.827517
0.827306
0.827055
0.826802
0.826501
0.826207
0.825846
0.825521
0.825086
0.82474
0.824209
0.823871
0.823165
0.82294
0.821902
0.818615
0.818581
0.818536
0.818472
0.818385
0.818274
0.818145
0.817988
0.817818
0.817614
0.817402
0.81715
0.816896
0.816594
0.816299
0.815938
0.815617
0.815174
0.814847
0.814295
0.813994
0.813273
0.81307
0.812066
0.809317
0.809282
0.809237
0.809172
0.809085
0.808974
0.808846
0.808688
0.808519
0.808315
0.808105
0.807853
0.807601
0.8073
0.807009
0.80665
0.806336
0.805889
0.805587
0.805015
0.80476
0.804031
0.80386
0.802923
0.800315
0.80028
0.800235
0.80017
0.800084
0.799973
0.799847
0.79969
0.799523
0.79932
0.799113
0.798863
0.798615
0.798317
0.798031
0.797678
0.797368
0.796931
0.796632
0.796075
0.795822
0.795111
0.794945
0.794035
0.791693
0.791658
0.791613
0.791549
0.791464
0.791354
0.79123
0.791074
0.790911
0.79071
0.790508
0.790261
0.790019
0.789725
0.789445
0.789099
0.788793
0.78837
0.78807
0.787535
0.787278
0.786587
0.78642
0.785526
0.783294
0.783259
0.783216
0.783152
0.783069
0.78296
0.782839
0.782686
0.782526
0.782328
0.782131
0.781888
0.781652
0.781364
0.781091
0.780752
0.780453
0.780041
0.779746
0.779226
0.778974
0.778303
0.778137
0.777269
0.775199
0.775164
0.775121
0.775058
0.774977
0.77487
0.774752
0.774602
0.774446
0.774253
0.77406
0.773823
0.773593
0.773312
0.773046
0.772716
0.772423
0.772023
0.771736
0.771231
0.770984
0.770334
0.770169
0.76933
0.767267
0.767233
0.76719
0.767129
0.767049
0.766945
0.766829
0.766684
0.766531
0.766344
0.766155
0.765925
0.765701
0.765428
0.765169
0.764849
0.764562
0.764176
0.763894
0.763407
0.763164
0.762538
0.762374
0.761563
0.75958
0.759546
0.759504
0.759445
0.759366
0.759266
0.759152
0.759012
0.758862
0.758682
0.758496
0.758276
0.758055
0.757792
0.757539
0.757231
0.756951
0.75658
0.756303
0.755834
0.755596
0.754993
0.75483
0.754049
0.752011
0.751977
0.751935
0.751878
0.751801
0.751705
0.751592
0.751458
0.75131
0.751139
0.750955
0.750745
0.750528
0.750277
0.750029
0.749733
0.74946
0.749104
0.748833
0.748383
0.748149
0.74757
0.747408
0.746656
0.744641
0.744608
0.744567
0.744512
0.744435
0.744345
0.744232
0.744107
0.743959
0.743798
0.743616
0.743417
0.743203
0.742964
0.742721
0.742438
0.742171
0.741833
0.741565
0.741136
0.740905
0.740351
0.74019
0.739469
0.737353
0.73732
0.73728
0.737228
0.737152
0.737066
0.736955
0.736837
0.73669
0.736539
0.736359
0.736172
0.73596
0.735735
0.735496
0.735227
0.734966
0.734644
0.734382
0.733973
0.733745
0.733216
0.733057
0.732365
0.73023
0.730199
0.730158
0.730109
0.730034
0.729954
0.729843
0.729733
0.729588
0.729447
0.729268
0.729094
0.728884
0.728673
0.728438
0.728184
0.727929
0.727623
0.727365
0.726978
0.726753
0.72625
0.726092
0.725431
0.723162
0.72313
0.723091
0.723044
0.72297
0.722895
0.722785
0.722683
0.722539
0.722409
0.722231
0.72207
0.721862
0.721666
0.721434
0.721195
0.720947
0.720657
0.720403
0.720037
0.719816
0.719339
0.719183
0.718551
0.716231
0.7162
0.716161
0.716118
0.716044
0.715975
0.715865
0.715772
0.715628
0.71551
0.715331
0.715186
0.714978
0.714799
0.714568
0.714347
0.714102
0.71383
0.713582
0.713237
0.713019
0.712568
0.712414
0.711813
0.709331
0.709301
0.709262
0.709222
0.709148
0.709086
0.708976
0.708893
0.708747
0.708643
0.708463
0.708333
0.708124
0.707963
0.707731
0.70753
0.707288
0.707034
0.706792
0.706469
0.706254
0.705829
0.705676
0.705106
0.702549
0.702519
0.702482
0.702444
0.702371
0.702314
0.702205
0.702131
0.701985
0.701892
0.701713
0.701598
0.701389
0.701245
0.701014
0.700833
0.700591
0.700358
0.70012
0.69982
0.699608
0.699209
0.699058
0.698518
0.69578
0.695751
0.695714
0.695678
0.695607
0.695555
0.695448
0.69538
0.695238
0.695154
0.694978
0.694874
0.694669
0.694539
0.694312
0.694147
0.693908
0.693696
0.693462
0.693183
0.692975
0.692601
0.692452
0.691943
0.68911
0.689081
0.689047
0.689012
0.688944
0.688895
0.688791
0.688729
0.68859
0.688515
0.688342
0.68825
0.688049
0.687933
0.68771
0.687562
0.687327
0.687135
0.686904
0.686647
0.686442
0.686095
0.685948
0.685469
0.682438
0.682409
0.682376
0.682342
0.682277
0.682231
0.682131
0.682075
0.68194
0.681872
0.681704
0.681623
0.681425
0.681323
0.681104
0.680973
0.680742
0.680569
0.680342
0.680108
0.679906
0.679584
0.67944
0.678991
0.675854
0.675825
0.675795
0.675761
0.6757
0.675656
0.675561
0.675509
0.675379
0.675319
0.675155
0.675084
0.674891
0.674803
0.674588
0.674473
0.674247
0.674093
0.67387
0.673658
0.67346
0.673164
0.673023
0.672603
0.669254
0.669225
0.669197
0.669162
0.669107
0.669063
0.668974
0.668926
0.668801
0.668748
0.66859
0.668528
0.668341
0.668265
0.668056
0.667956
0.667736
0.667599
0.667382
0.667192
0.666997
0.666728
0.666589
0.666199
0.662729
0.662701
0.662675
0.66264
0.662591
0.662547
0.662465
0.662419
0.662302
0.662254
0.662103
0.662049
0.661869
0.661804
0.661602
0.661516
0.661303
0.661183
0.660972
0.660803
0.660613
0.66037
0.660234
0.659874
0.656175
0.656147
0.656122
0.656088
0.656044
0.656
0.655926
0.65588
0.655773
0.655727
0.655585
0.655539
0.655366
0.655311
0.655117
0.655045
0.654839
0.654736
0.654532
0.654382
0.6542
0.653979
0.653848
0.653519
0.649694
0.649666
0.649643
0.649611
0.64957
0.649527
0.649461
0.649416
0.649318
0.649275
0.649144
0.649101
0.648939
0.648893
0.648707
0.648648
0.64845
0.648363
0.648167
0.648036
0.647861
0.647664
0.647536
0.647238
0.64317
0.643142
0.64312
0.64309
0.643052
0.643011
0.642951
0.642908
0.642819
0.642778
0.642657
0.642619
0.642468
0.64243
0.642254
0.642206
0.642016
0.641945
0.641757
0.641645
0.641477
0.641304
0.641179
0.64091
0.636711
0.636684
0.636663
0.636634
0.6366
0.636561
0.636506
0.636465
0.636385
0.636347
0.636237
0.636203
0.636063
0.636032
0.635867
0.635829
0.635649
0.635593
0.635413
0.63532
0.635159
0.635008
0.63489
0.634648
0.630197
0.630171
0.630151
0.630124
0.630092
0.630056
0.630007
0.629968
0.629896
0.629861
0.629761
0.629732
0.629604
0.629578
0.629425
0.629396
0.629228
0.629184
0.629014
0.628938
0.628785
0.628656
0.628543
0.628331
0.623753
0.623727
0.623709
0.623684
0.623655
0.623621
0.623577
0.623542
0.623478
0.623446
0.623356
0.623331
0.623214
0.623194
0.623054
0.623034
0.622877
0.622846
0.622686
0.622628
0.622483
0.622376
0.622269
0.622086
0.617233
0.617208
0.617191
0.617167
0.617141
0.61711
0.617071
0.617039
0.616982
0.616954
0.616874
0.616853
0.616748
0.616734
0.616606
0.616595
0.61645
0.616431
0.616282
0.61624
0.616104
0.616019
0.615919
0.615762
0.610783
0.610758
0.610743
0.610721
0.610697
0.610669
0.610635
0.610606
0.610556
0.610532
0.610461
0.610445
0.610351
0.610344
0.610227
0.610225
0.610091
0.610085
0.609946
0.609922
0.609794
0.609732
0.609637
0.609509
0.604252
0.604228
0.604213
0.604193
0.604172
0.604147
0.604117
0.604092
0.604049
0.604029
0.603967
0.603956
0.603873
0.603871
0.603767
0.603773
0.603651
0.603657
0.603528
0.603521
0.6034
0.603361
0.603271
0.603171
0.597791
0.597767
0.597754
0.597736
0.597717
0.597695
0.59767
0.597649
0.597612
0.597597
0.597544
0.597538
0.597465
0.59747
0.597377
0.597392
0.597282
0.597301
0.597183
0.597192
0.59708
0.597063
0.596978
0.596908
0.591218
0.591194
0.591182
0.591165
0.591149
0.59113
0.591109
0.591092
0.591061
0.59105
0.591005
0.591005
0.590941
0.590954
0.590871
0.590895
0.590796
0.590827
0.590719
0.590744
0.590641
0.590646
0.590565
0.590524
0.584748
0.584725
0.584714
0.584699
0.584686
0.58467
0.584653
0.584639
0.584615
0.584608
0.584571
0.584576
0.584522
0.584541
0.584469
0.584502
0.584414
0.584456
0.584358
0.5844
0.584304
0.584331
0.584255
0.584242
0.578132
0.578109
0.578099
0.578086
0.578075
0.578062
0.578049
0.578039
0.57802
0.578019
0.577989
0.578
0.577955
0.577982
0.57792
0.577962
0.577884
0.577939
0.577851
0.577909
0.577821
0.577869
0.577798
0.577812
0.571623
0.571602
0.571593
0.571581
0.571572
0.571562
0.571553
0.571547
0.571534
0.571537
0.571514
0.571531
0.571495
0.571528
0.571476
0.571528
0.57146
0.571526
0.571448
0.571521
0.571441
0.57151
0.571445
0.571485
0.56496
0.564938
0.56493
0.56492
0.564913
0.564906
0.5649
0.564898
0.56489
0.564898
0.564882
0.564904
0.564876
0.564916
0.564873
0.564934
0.564875
0.564953
0.564882
0.564971
0.564898
0.564986
0.564925
0.564991
0.558435
0.558414
0.558407
0.558399
0.558395
0.55839
0.558388
0.55839
0.558388
0.5584
0.558392
0.558419
0.558401
0.558448
0.558415
0.558484
0.558435
0.558525
0.558464
0.558568
0.558503
0.558611
0.558556
0.558647
0.551661
0.55164
0.551634
0.551626
0.551624
0.551622
0.551623
0.551629
0.551631
0.551647
0.551646
0.551678
0.551667
0.551721
0.551697
0.551773
0.551734
0.551834
0.551782
0.551901
0.551843
0.551969
0.551918
0.552033
0.54516
0.545141
0.545136
0.54513
0.54513
0.545131
0.545136
0.545146
0.545153
0.545174
0.545179
0.545217
0.545214
0.545274
0.545259
0.545344
0.545315
0.545425
0.545383
0.545514
0.545465
0.545609
0.545564
0.545703
0.538259
0.538239
0.538235
0.53823
0.538232
0.538236
0.538243
0.538256
0.538268
0.538293
0.538304
0.538347
0.538352
0.538417
0.538412
0.538504
0.538485
0.538604
0.538573
0.538716
0.538676
0.538837
0.538798
0.538962
0.531738
0.531719
0.531715
0.531713
0.531717
0.531723
0.531734
0.53175
0.531767
0.531796
0.531814
0.531861
0.531874
0.531945
0.531949
0.532048
0.532039
0.532167
0.532145
0.532301
0.532268
0.532447
0.532413
0.5326
0.524778
0.524759
0.524756
0.524754
0.52476
0.524768
0.524782
0.524802
0.524822
0.524856
0.524879
0.524931
0.524952
0.525028
0.52504
0.525146
0.525146
0.525283
0.525269
0.525438
0.525412
0.525607
0.525578
0.525787
0.518149
0.518131
0.518129
0.518128
0.518136
0.518146
0.518163
0.518186
0.518211
0.518248
0.518277
0.518334
0.518362
0.518444
0.518464
0.518577
0.518584
0.518731
0.518725
0.518906
0.518886
0.519098
0.519073
0.519302
0.511189
0.511171
0.51117
0.511171
0.51118
0.511193
0.511212
0.511238
0.511267
0.511308
0.511342
0.511403
0.511438
0.511525
0.511553
0.511672
0.511688
0.511843
0.511844
0.512036
0.512024
0.51225
0.512229
0.512479
0.504417
0.5044
0.504399
0.504401
0.504411
0.504426
0.504449
0.504477
0.50451
0.504555
0.504594
0.504659
0.5047
0.504792
0.504828
0.504953
0.504977
0.50514
0.505149
0.505352
0.505346
0.505587
0.505571
0.50584
0.497456
0.497439
0.497438
0.497442
0.497454
0.497471
0.497495
0.497527
0.497563
0.497611
0.497656
0.497725
0.497772
0.497868
0.497911
0.498042
0.498074
0.498244
0.498262
0.498474
0.498475
0.498728
0.498717
0.499005
0.490557
0.49054
0.490541
0.490545
0.490558
0.490577
0.490604
0.490638
0.490678
0.490729
0.490778
0.490851
0.490904
0.491005
0.491055
0.491191
0.491231
0.491408
0.491433
0.491654
0.491662
0.491929
0.491921
0.492227
0.483563
0.483547
0.483547
0.483552
0.483567
0.483588
0.483617
0.483654
0.483697
0.483751
0.483805
0.483881
0.48394
0.484044
0.484102
0.484242
0.48429
0.484472
0.484505
0.484735
0.48475
0.485028
0.485025
0.485347
0.476565
0.476549
0.47655
0.476556
0.476572
0.476595
0.476626
0.476665
0.476711
0.476768
0.476826
0.476905
0.47697
0.477078
0.477142
0.477286
0.477342
0.477529
0.47757
0.477807
0.477829
0.478118
0.478119
0.478458
0.469513
0.469497
0.469498
0.469505
0.469522
0.469546
0.469579
0.469621
0.469669
0.469729
0.469791
0.469874
0.469943
0.470055
0.470125
0.470273
0.470336
0.470528
0.470577
0.470821
0.470848
0.471148
0.471154
0.471507
0.462432
0.462416
0.462418
0.462426
0.462444
0.462469
0.462504
0.462547
0.462598
0.462661
0.462726
0.462812
0.462886
0.463001
0.463077
0.463228
0.463298
0.463495
0.46355
0.463801
0.463835
0.464144
0.464153
0.464521
0.45531
0.455294
0.455297
0.455305
0.455324
0.455351
0.455387
0.455432
0.455485
0.455551
0.455619
0.455707
0.455785
0.455903
0.455985
0.45614
0.456216
0.456417
0.456479
0.456735
0.456774
0.457092
0.457106
0.457486
0.448153
0.448137
0.44814
0.448149
0.448168
0.448196
0.448234
0.448281
0.448336
0.448404
0.448475
0.448566
0.448648
0.448768
0.448855
0.449013
0.449094
0.449299
0.449367
0.449629
0.449674
0.449999
0.450016
0.450409
0.440958
0.440943
0.440946
0.440955
0.440975
0.441004
0.441043
0.441092
0.441149
0.441218
0.441292
0.441385
0.441471
0.441594
0.441685
0.441845
0.441932
0.442141
0.442214
0.44248
0.44253
0.442863
0.442883
0.443286
0.433728
0.433713
0.433716
0.433726
0.433747
0.433777
0.433816
0.433866
0.433925
0.433996
0.434072
0.434167
0.434256
0.434381
0.434476
0.434639
0.434731
0.434942
0.435021
0.43529
0.435346
0.435684
0.435707
0.43612
0.426463
0.426448
0.426451
0.426461
0.426482
0.426513
0.426554
0.426605
0.426665
0.426737
0.426815
0.426912
0.427004
0.42713
0.427229
0.427394
0.42749
0.427703
0.427787
0.42806
0.428119
0.428463
0.428489
0.42891
0.419164
0.419149
0.419151
0.419161
0.419183
0.419214
0.419256
0.419308
0.419369
0.419443
0.419522
0.419621
0.419715
0.419843
0.419945
0.420111
0.420211
0.420426
0.420514
0.420789
0.420853
0.421201
0.42123
0.421658
0.411831
0.411816
0.411818
0.411829
0.41185
0.411882
0.411924
0.411977
0.412039
0.412114
0.412195
0.412294
0.41239
0.412519
0.412624
0.412791
0.412895
0.413111
0.413202
0.41348
0.413547
0.413898
0.41393
0.414364
0.404466
0.404451
0.404453
0.404464
0.404485
0.404517
0.40456
0.404613
0.404676
0.404751
0.404833
0.404933
0.405031
0.405161
0.405268
0.405435
0.405542
0.405759
0.405854
0.406132
0.406203
0.406556
0.40659
0.407029
0.397071
0.397055
0.397057
0.397068
0.39709
0.397122
0.397164
0.397218
0.397281
0.397357
0.39744
0.39754
0.397639
0.397769
0.397878
0.398046
0.398155
0.398372
0.39847
0.398749
0.398822
0.399177
0.399213
0.399655
0.389646
0.389631
0.389633
0.389643
0.389664
0.389697
0.389739
0.389793
0.389856
0.389932
0.390015
0.390116
0.390216
0.390346
0.390456
0.390623
0.390735
0.390951
0.391052
0.39133
0.391406
0.391762
0.391799
0.392244
0.382195
0.382179
0.38218
0.38219
0.382212
0.382244
0.382286
0.38234
0.382403
0.382479
0.382562
0.382663
0.382763
0.382893
0.383004
0.383171
0.383284
0.383499
0.383601
0.383879
0.383956
0.384312
0.38435
0.384796
0.374718
0.374702
0.374703
0.374713
0.374733
0.374765
0.374807
0.37486
0.374924
0.374999
0.375082
0.375182
0.375283
0.375412
0.375523
0.375689
0.375803
0.376016
0.376121
0.376396
0.376476
0.37683
0.37687
0.377315
0.367218
0.367202
0.367202
0.367212
0.367232
0.367263
0.367304
0.367357
0.36742
0.367495
0.367578
0.367677
0.367777
0.367905
0.368017
0.368181
0.368296
0.368507
0.368612
0.368885
0.368966
0.369317
0.369358
0.369802
0.359697
0.359681
0.359681
0.35969
0.359709
0.35974
0.359781
0.359833
0.359895
0.359969
0.360051
0.360149
0.360249
0.360375
0.360487
0.360648
0.360764
0.360972
0.361078
0.361348
0.36143
0.361778
0.36182
0.36226
0.352158
0.352141
0.352141
0.352149
0.352168
0.352198
0.352238
0.352289
0.35235
0.352423
0.352504
0.352601
0.3527
0.352824
0.352935
0.353095
0.35321
0.353415
0.353521
0.353787
0.35387
0.354213
0.354256
0.354692
0.344604
0.344586
0.344585
0.344593
0.344611
0.34464
0.344679
0.344729
0.344789
0.34486
0.344941
0.345035
0.345133
0.345255
0.345366
0.345522
0.345636
0.345838
0.345944
0.346206
0.346288
0.346627
0.34667
0.3471
0.337036
0.337018
0.337016
0.337023
0.33704
0.337069
0.337106
0.337155
0.337214
0.337284
0.337363
0.337455
0.337552
0.337671
0.33778
0.337934
0.338047
0.338245
0.33835
0.338607
0.338689
0.339022
0.339065
0.339489
0.329458
0.329439
0.329437
0.329443
0.32946
0.329487
0.329523
0.329571
0.329628
0.329696
0.329774
0.329864
0.329959
0.330076
0.330183
0.330333
0.330445
0.330638
0.330742
0.330993
0.331075
0.331401
0.331444
0.33186
0.321873
0.321854
0.321851
0.321856
0.321872
0.321897
0.321933
0.321978
0.322034
0.3221
0.322176
0.322264
0.322357
0.322471
0.322577
0.322722
0.322833
0.323021
0.323124
0.323369
0.32345
0.323768
0.323811
0.324219
0.314284
0.314264
0.314261
0.314264
0.314279
0.314303
0.314338
0.314382
0.314436
0.3145
0.314574
0.314659
0.31475
0.31486
0.314964
0.315106
0.315214
0.315397
0.315499
0.315737
0.315817
0.316126
0.31617
0.316567
0.306693
0.306672
0.306669
0.306671
0.306686
0.306707
0.306741
0.306783
0.306836
0.306898
0.30697
0.307052
0.307142
0.307248
0.30735
0.307487
0.307594
0.307771
0.307871
0.308102
0.308181
0.30848
0.308524
0.30891
0.299104
0.299083
0.299079
0.299079
0.299094
0.299114
0.299146
0.299186
0.299237
0.299297
0.299367
0.299446
0.299534
0.299636
0.299737
0.299868
0.299974
0.300145
0.300244
0.300467
0.300546
0.300835
0.300879
0.301253
0.29152
0.291497
0.291494
0.291492
0.291506
0.291524
0.291556
0.291594
0.291644
0.291701
0.291769
0.291845
0.291931
0.292028
0.292129
0.292253
0.292361
0.292521
0.292623
0.292836
0.292916
0.293195
0.29324
0.293603
0.283943
0.28392
0.283916
0.283913
0.283927
0.283942
0.283974
0.284009
0.284058
0.284113
0.284178
0.284252
0.284336
0.284429
0.284529
0.284645
0.284754
0.284903
0.28501
0.285208
0.285293
0.28556
0.285608
0.285964
0.276375
0.276351
0.276348
0.276342
0.276358
0.27637
0.276402
0.276434
0.276483
0.276535
0.276599
0.276671
0.276752
0.276841
0.276939
0.277049
0.277158
0.277295
0.277405
0.277588
0.277677
0.277928
0.277978
0.27832
0.26882
0.268794
0.268794
0.268782
0.268802
0.268809
0.268844
0.268873
0.268921
0.268972
0.269034
0.269104
0.269183
0.26927
0.269366
0.269469
0.269579
0.269705
0.269817
0.269984
0.270074
0.270303
0.270354
0.270666
0.261277
0.26125
0.261251
0.261238
0.261258
0.261264
0.261298
0.261328
0.261375
0.261425
0.261487
0.261556
0.261633
0.261719
0.261813
0.261913
0.262023
0.262141
0.262256
0.262406
0.262502
0.262711
0.262758
0.263042
0.253748
0.25372
0.25372
0.253708
0.253726
0.253736
0.253767
0.253799
0.253844
0.253896
0.253958
0.254027
0.254105
0.254191
0.254285
0.254386
0.254495
0.254612
0.254727
0.254871
0.25497
0.255168
0.255214
0.255486
0.246231
0.246203
0.246202
0.246192
0.246208
0.24622
0.24625
0.246285
0.246331
0.246385
0.246448
0.246519
0.246599
0.246688
0.246784
0.246888
0.246998
0.247119
0.247235
0.247384
0.247484
0.247681
0.247732
0.248006
0.238723
0.238696
0.238693
0.238686
0.2387
0.238716
0.238746
0.238783
0.238831
0.238887
0.238953
0.239028
0.239112
0.239205
0.239307
0.239417
0.239532
0.239663
0.239781
0.239944
0.240045
0.240259
0.240311
0.240603
0.231223
0.231196
0.231192
0.231188
0.2312
0.231219
0.23125
0.23129
0.23134
0.2314
0.23147
0.23155
0.231639
0.231739
0.231847
0.231967
0.232091
0.232236
0.232361
0.232547
0.23265
0.232897
0.232949
0.233279
0.223726
0.2237
0.223694
0.223693
0.223704
0.223725
0.223757
0.223799
0.223852
0.223916
0.22399
0.224075
0.224171
0.224278
0.224395
0.224527
0.22466
0.224826
0.224959
0.225179
0.225288
0.225585
0.225638
0.226034
0.216229
0.216205
0.216196
0.216198
0.216208
0.216231
0.216263
0.216308
0.216362
0.216428
0.216506
0.216595
0.216696
0.21681
0.216934
0.217078
0.217217
0.217408
0.217546
0.217808
0.217922
0.218282
0.218346
0.218839
0.208733
0.208709
0.208697
0.208702
0.20871
0.208734
0.208766
0.20881
0.208866
0.208933
0.209011
0.209102
0.209206
0.209323
0.20945
0.209604
0.209744
0.209953
0.210092
0.210384
0.210502
0.210912
0.210989
0.211572
0.201238
0.20121
0.201205
0.201199
0.201215
0.201231
0.201266
0.201307
0.201362
0.201427
0.201505
0.201594
0.201697
0.201812
0.201943
0.202082
0.202246
0.202422
0.202601
0.202851
0.203012
0.203389
0.203491
0.204068
0.193747
0.193714
0.193716
0.1937
0.193721
0.193731
0.193765
0.193803
0.193854
0.193916
0.19399
0.194075
0.194173
0.194281
0.19441
0.194533
0.194707
0.194846
0.195053
0.195245
0.195439
0.195748
0.195866
0.196367
0.186266
0.186232
0.18623
0.186216
0.18623
0.186241
0.186268
0.186303
0.186349
0.186405
0.186472
0.18655
0.18664
0.186741
0.186854
0.186977
0.187124
0.187263
0.18744
0.187622
0.187792
0.188071
0.188174
0.188615
0.178802
0.178768
0.178762
0.178749
0.178756
0.178766
0.178787
0.178817
0.178856
0.178905
0.178964
0.179032
0.179111
0.179201
0.179301
0.179411
0.179537
0.179666
0.179816
0.179981
0.180125
0.180372
0.180459
0.180845
0.171366
0.171332
0.171323
0.171308
0.17131
0.171316
0.171331
0.171355
0.171387
0.171427
0.171476
0.171534
0.171601
0.171677
0.171763
0.171857
0.171964
0.172075
0.172201
0.172344
0.172465
0.172677
0.172748
0.173078
0.16397
0.163935
0.163923
0.163906
0.163903
0.163905
0.163914
0.16393
0.163954
0.163985
0.164024
0.16407
0.164124
0.164186
0.164255
0.164333
0.16442
0.164512
0.164615
0.164733
0.164833
0.165006
0.165065
0.165338
0.156624
0.156588
0.156573
0.156554
0.156547
0.156543
0.156546
0.156556
0.156571
0.156592
0.15662
0.156654
0.156694
0.156741
0.156795
0.156854
0.156923
0.156994
0.157076
0.157167
0.157246
0.157382
0.157429
0.157645
0.149341
0.149304
0.149287
0.149265
0.149254
0.149245
0.149242
0.149243
0.14925
0.149262
0.149278
0.1493
0.149327
0.149359
0.149396
0.149438
0.149487
0.149538
0.149599
0.149663
0.149724
0.149822
0.149857
0.150018
0.142133
0.142095
0.142076
0.142052
0.142036
0.142022
0.142012
0.142007
0.142005
0.142007
0.142012
0.142022
0.142036
0.142053
0.142074
0.142099
0.142129
0.142159
0.1422
0.142238
0.14228
0.142342
0.142365
0.142475
0.135011
0.134972
0.134952
0.134924
0.134905
0.134886
0.13487
0.134857
0.134847
0.134839
0.134835
0.134832
0.134833
0.134836
0.134842
0.13485
0.134862
0.134872
0.134893
0.134906
0.134931
0.134958
0.134969
0.135029
0.127986
0.127947
0.127924
0.127895
0.127871
0.127848
0.127826
0.127806
0.127788
0.127772
0.127756
0.127743
0.127731
0.12772
0.127711
0.127703
0.127698
0.127689
0.127692
0.127681
0.127688
0.127682
0.127683
0.127696
0.121069
0.121029
0.121005
0.120973
0.120946
0.120918
0.120891
0.120865
0.120839
0.120814
0.120789
0.120765
0.120741
0.120717
0.120694
0.120671
0.120649
0.120623
0.120607
0.120574
0.120565
0.120528
0.120518
0.120487
0.114268
0.114228
0.114203
0.114169
0.114138
0.114106
0.114074
0.114042
0.114009
0.113976
0.113942
0.113908
0.113873
0.113837
0.1138
0.113763
0.113726
0.113683
0.11365
0.113596
0.113572
0.113505
0.113486
0.113413
0.107593
0.107553
0.107526
0.10749
0.107457
0.107421
0.107385
0.107347
0.107307
0.107266
0.107224
0.107181
0.107135
0.107088
0.10704
0.106989
0.106937
0.106879
0.106831
0.106757
0.106718
0.106625
0.106597
0.106485
0.101051
0.101011
0.100984
0.100947
0.10091
0.100871
0.10083
0.100787
0.100742
0.100694
0.100644
0.100592
0.100537
0.10048
0.10042
0.100357
0.100292
0.100219
0.100157
0.100065
0.100014
0.0998957
0.0998589
0.0997124
0.0946507
0.0946112
0.0945828
0.0945443
0.0945059
0.0944639
0.0944191
0.0943714
0.0943207
0.0942669
0.09421
0.0941499
0.0940865
0.0940196
0.0939492
0.0938752
0.0937981
0.0937127
0.0936369
0.0935292
0.0934653
0.0933254
0.0932806
0.0931024
0.0883981
0.0883591
0.0883301
0.0882907
0.0882503
0.0882057
0.0881576
0.0881058
0.0880503
0.087991
0.0879279
0.0878607
0.0877896
0.0877142
0.0876346
0.0875506
0.0874626
0.0873658
0.087278
0.087156
0.0870811
0.0869213
0.0868696
0.0866629
0.0823001
0.0822617
0.0822323
0.0821921
0.08215
0.0821033
0.0820523
0.081997
0.0819374
0.0818732
0.0818046
0.0817313
0.0816533
0.0815704
0.0814826
0.0813898
0.0812921
0.0811853
0.0810868
0.0809519
0.0808678
0.0806894
0.0806331
0.0804009
0.0763627
0.0763252
0.0762954
0.0762548
0.0762114
0.0761629
0.0761096
0.0760513
0.075988
0.0759198
0.0758464
0.0757677
0.0756838
0.0755944
0.0754995
0.075399
0.0752929
0.0751775
0.0750694
0.0749237
0.074831
0.0746368
0.0745763
0.0743217
0.0705921
0.0705556
0.0705258
0.0704849
0.0704406
0.0703907
0.0703354
0.0702747
0.0702085
0.0701368
0.0700594
0.0699763
0.0698874
0.0697925
0.0696916
0.0695845
0.0694713
0.0693487
0.069232
0.069078
0.0689766
0.0687705
0.0687047
0.0684313
0.0649945
0.0649592
0.0649295
0.0648887
0.0648438
0.0647928
0.0647361
0.0646735
0.064605
0.0645305
0.06445
0.0643632
0.0642702
0.0641709
0.0640651
0.0639526
0.0638336
0.0637052
0.0635812
0.0634206
0.0633117
0.0630963
0.0630255
0.0627371
0.0595765
0.0595425
0.059513
0.0594725
0.0594273
0.0593758
0.0593182
0.0592543
0.0591841
0.0591075
0.0590245
0.058935
0.0588389
0.0587361
0.0586265
0.0585099
0.0583863
0.0582535
0.0581235
0.0579583
0.057843
0.057621
0.0575457
0.057246
0.054345
0.0543124
0.0542834
0.0542434
0.0541983
0.0541466
0.0540885
0.0540238
0.0539525
0.0538746
0.05379
0.0536986
0.0536004
0.0534951
0.0533828
0.0532633
0.0531364
0.0530006
0.0528662
0.0526979
0.0525777
0.0523515
0.0522725
0.0519652
0.0493076
0.0492766
0.0492481
0.049209
0.0491643
0.0491128
0.0490546
0.0489898
0.0489181
0.0488396
0.0487541
0.0486617
0.0485623
0.0484556
0.0483417
0.0482204
0.0480917
0.0479541
0.0478168
0.0476473
0.0475233
0.0472954
0.0472135
0.0469022
0.0444727
0.0444434
0.0444157
0.0443776
0.0443336
0.0442828
0.0442251
0.0441606
0.0440891
0.0440107
0.0439253
0.0438327
0.043733
0.043626
0.0435117
0.0433899
0.0432606
0.0431226
0.0429837
0.0428148
0.0426883
0.0424614
0.0423772
0.0420653
0.0398498
0.0398223
0.0397955
0.0397587
0.0397158
0.039666
0.0396093
0.0395457
0.0394751
0.0393975
0.0393128
0.039221
0.039122
0.0390157
0.0389021
0.038781
0.0386524
0.0385154
0.0383765
0.0382099
0.0380822
0.0378586
0.0377729
0.037464
0.0354494
0.0354237
0.035398
0.0353627
0.0353213
0.0352729
0.0352176
0.0351555
0.0350864
0.0350103
0.0349272
0.0348371
0.0347398
0.0346352
0.0345234
0.0344043
0.0342777
0.034143
0.0340056
0.0338429
0.0337153
0.0334976
0.033411
0.0331085
0.031283
0.0312592
0.0312348
0.0312012
0.0311615
0.0311149
0.0310616
0.0310014
0.0309345
0.0308607
0.03078
0.0306923
0.0305976
0.0304959
0.0303871
0.030271
0.0301477
0.0300168
0.0298823
0.0297252
0.029599
0.0293894
0.0293029
0.02901
0.0273629
0.0273412
0.0273181
0.0272865
0.0272488
0.0272044
0.0271535
0.0270959
0.0270317
0.0269608
0.0268833
0.026799
0.0267079
0.02661
0.0265052
0.0263935
0.0262748
0.0261488
0.0260187
0.0258687
0.0257455
0.0255461
0.0254606
0.0251805
0.0237021
0.0236825
0.023661
0.0236315
0.0235961
0.0235543
0.0235061
0.0234516
0.0233908
0.0233235
0.0232499
0.0231697
0.0230832
0.02299
0.0228904
0.0227841
0.0226712
0.0225515
0.0224272
0.0222858
0.0221669
0.0219797
0.0218961
0.0216318
0.0203135
0.0202959
0.0202761
0.0202489
0.0202161
0.0201771
0.0201322
0.0200813
0.0200243
0.0199613
0.0198922
0.019817
0.0197357
0.0196483
0.0195547
0.019455
0.019349
0.0192367
0.0191197
0.018988
0.0188749
0.0187016
0.018621
0.0183751
0.0172085
0.017193
0.017175
0.0171503
0.0171202
0.0170844
0.017043
0.016996
0.0169434
0.0168852
0.0168213
0.0167517
0.0166765
0.0165956
0.016509
0.0164167
0.0163186
0.0162147
0.0161062
0.0159853
0.0158793
0.0157211
0.0156445
0.0154192
0.0143964
0.0143828
0.0143667
0.0143446
0.0143174
0.014285
0.0142475
0.0142048
0.0141569
0.0141039
0.0140457
0.0139823
0.0139137
0.0138399
0.013761
0.0136768
0.0135874
0.0134928
0.0133938
0.0132844
0.0131869
0.0130446
0.0129731
0.0127699
0.0118826
0.011871
0.0118568
0.0118373
0.0118131
0.0117842
0.0117507
0.0117125
0.0116696
0.0116221
0.0115699
0.0115131
0.0114516
0.0113854
0.0113146
0.0112392
0.0111591
0.0110743
0.0109855
0.0108881
0.0107999
0.010674
0.0106084
0.0104285
0.009668
0.00965825
0.00964594
0.00962894
0.00960783
0.00958254
0.00955311
0.00951952
0.0094818
0.00943994
0.00939396
0.00934387
0.00928966
0.00923135
0.00916896
0.00910248
0.00903195
0.00895735
0.00887909
0.00879391
0.00871562
0.00860622
0.00854719
0.00839071
0.00774778
0.00773973
0.00772924
0.00771474
0.00769662
0.00767487
0.00764949
0.00762049
0.00758789
0.0075517
0.00751192
0.00746858
0.00742167
0.00737123
0.00731726
0.00725978
0.00719882
0.00713439
0.00706676
0.00699352
0.00692547
0.00683221
0.0067802
0.00664677
0.00611122
0.00610469
0.00609594
0.00608378
0.00606853
0.00605017
0.0060287
0.00600414
0.00597651
0.00594581
0.00591206
0.00587527
0.00583547
0.00579266
0.00574688
0.00569814
0.00564647
0.0055919
0.00553462
0.00547284
0.00541493
0.00533699
0.00529213
0.00518069
0.0047417
0.00473651
0.00472935
0.00471937
0.00470678
0.00469158
0.00467378
0.00465339
0.00463043
0.0046049
0.00457683
0.00454624
0.00451313
0.00447753
0.00443947
0.00439897
0.00435606
0.00431077
0.00426324
0.00421217
0.00416394
0.0041001
0.00406225
0.0039711
0.00361744
0.00361341
0.00360767
0.00359963
0.00358945
0.00357713
0.00356266
0.00354608
0.00352739
0.0035066
0.00348373
0.00345879
0.00343182
0.00340282
0.00337183
0.00333887
0.00330396
0.00326715
0.00322852
0.00318715
0.00314791
0.00309667
0.00306544
0.00299243
0.00271267
0.00270959
0.00270509
0.00269876
0.00269069
0.0026809
0.00266939
0.00265618
0.00264128
0.0026247
0.00260645
0.00258656
0.00256503
0.00254191
0.00251719
0.00249092
0.00246312
0.00243383
0.0024031
0.00237026
0.00233908
0.00229877
0.00227358
0.00221635
0.00199915
0.00199686
0.0019934
0.00198851
0.00198225
0.00197464
0.00196567
0.00195536
0.00194373
0.00193078
0.00191652
0.00190098
0.00188417
0.00186611
0.00184682
0.00182632
0.00180465
0.00178185
0.00175791
0.00173239
0.00170812
0.00167707
0.00165724
0.00161331
0.00144787
0.0014462
0.0014436
0.0014399
0.00143515
0.00142935
0.00142251
0.00141464
0.00140574
0.00139584
0.00138493
0.00137304
0.00136019
0.00134638
0.00133163
0.00131598
0.00129943
0.00128206
0.00126384
0.00124438
0.00122588
0.00120248
0.00118721
0.00115422
0.00103059
0.00102939
0.00102748
0.00102474
0.0010212
0.00101687
0.00101176
0.00100587
0.000999214
0.000991795
0.000983626
0.00097472
0.000965089
0.000954748
0.000943714
0.00093201
0.000919643
0.000906639
0.000893141
0.000878557
0.000864776
0.000847489
0.000835998
0.000811731
0.000721082
0.000720247
0.000718866
0.000716876
0.000714297
0.000711133
0.00070739
0.000703072
0.000698188
0.000692743
0.000686749
0.000680213
0.000673148
0.000665564
0.000657474
0.000648896
0.000639851
0.000630293
0.000620498
0.0006098
0.000599771
0.000587245