/*--------------------------------*- C++ -*----------------------------------*\
  =========                 |
  \\      /  F ield         | OpenFOAM: The Open Source CFD Toolbox
   \\    /   O peration     | Website:  https://openfoam.org
    \\  /    A nd           | Version:  10
     \\/     M anipulation  |
\*---------------------------------------------------------------------------*/
FoamFile
{
    format      ascii;
    class       surfaceScalarField;
    location    "0.02";
    object      phi;
}
// * * * * * * * * * * * * * * * * * * * * * * * * * * * * * * * * * * * * * //

dimensions      [1 0 -1 0 0 0 0];

internalField   nonuniform List<scalar> 
8154
(
3.17616e-08
1.24102e-07
2.76016e-07
4.83786e-07
7.42909e-07
1.04437e-06
1.38318e-06
1.74345e-06
2.12139e-06
2.49258e-06
2.85535e-06
3.17597e-06
3.45606e-06
3.6487e-06
3.7665e-06
3.73449e-06
3.62853e-06
3.2149e-06
2.92307e-06
1.90475e-06
1.61043e-06
3.1318e-07
-1.55078e-07
-0.000215691
-0.000647029
4.07244e-08
-0.00107837
1.59007e-07
-0.00150971
3.54319e-07
-0.00194102
6.22574e-07
-0.00237229
9.61049e-07
-0.00280355
1.36009e-06
-0.00323474
1.81772e-06
-0.00366592
2.31745e-06
-0.00409699
2.85924e-06
-0.00452808
3.41867e-06
-0.00495899
3.99837e-06
-0.00538996
4.56564e-06
-0.00582067
5.12507e-06
-0.00625151
5.63673e-06
-0.00668199
6.10719e-06
-0.00711268
6.48882e-06
-0.00754283
6.76089e-06
-0.00797352
6.95751e-06
-0.00840301
6.81013e-06
-0.0088342
6.77011e-06
-0.00926298
5.85097e-06
-0.0096943
5.0598e-06
-0.0101241
3.28596e-06
-0.000215103
-0.000645266
3.25361e-08
-0.00107543
1.27182e-07
-0.00150559
2.83558e-07
-0.00193571
4.97794e-07
-0.0023658
7.68406e-07
-0.00279586
1.08543e-06
-0.00322584
1.45001e-06
-0.00365581
1.8439e-06
-0.00408565
2.27304e-06
-0.0045155
2.70917e-06
-0.00494516
3.16435e-06
-0.00537487
3.60015e-06
-0.0058043
4.03385e-06
-0.00623383
4.42e-06
-0.006663
4.77703e-06
-0.00709231
5.05419e-06
-0.00752116
5.24818e-06
-0.00795024
5.40226e-06
-0.00837861
5.26707e-06
-0.00880766
5.32462e-06
-0.00923534
4.56983e-06
-0.00966442
4.0099e-06
-0.0100915
2.72106e-06
-0.000214483
-0.000643407
1.96415e-08
-0.00107233
7.56433e-08
-0.00150124
1.67915e-07
-0.00193012
2.93213e-07
-0.00235895
4.49934e-07
-0.00278776
6.30486e-07
-0.00321647
8.34067e-07
-0.00364517
1.04823e-06
-0.00407373
1.27364e-06
-0.00450229
1.4926e-06
-0.00493064
1.70784e-06
-0.00535904
1.89619e-06
-0.00578714
2.06376e-06
-0.00621533
2.18013e-06
-0.00664314
2.26008e-06
-0.00707106
2.24934e-06
-0.00749859
2.22181e-06
-0.00792608
2.00403e-06
-0.00835336
1.87799e-06
-0.00878029
1.33683e-06
-0.00920688
1.23183e-06
-0.00963392
5.5081e-07
-0.0100583
1.87585e-07
-0.000213825
-0.000641431
1.6023e-08
-0.00106904
6.11678e-08
-0.00149663
1.35551e-07
-0.00192418
2.36534e-07
-0.00235168
3.62337e-07
-0.00277916
5.07365e-07
-0.00320653
6.69343e-07
-0.00363389
8.40263e-07
-0.00406109
1.01702e-06
-0.0044883
1.18967e-06
-0.00491527
1.3543e-06
-0.0053423
1.49904e-06
-0.00576901
1.6206e-06
-0.00619581
1.70259e-06
-0.00662219
1.74853e-06
-0.00704873
1.72612e-06
-0.00747474
1.69389e-06
-0.00790095
1.47093e-06
-0.0083265
1.40664e-06
-0.0087525
9.52029e-07
-0.00917718
7.43421e-07
-0.00960319
3.20809e-07
-0.0100264
9.63852e-09
-0.000213137
-0.000639367
1.61653e-08
-0.0010656
6.18036e-08
-0.0014918
1.37172e-07
-0.00191798
2.39959e-07
-0.0023441
3.68938e-07
-0.00277018
5.18552e-07
-0.00319616
6.88256e-07
-0.00362212
8.68905e-07
-0.00404791
1.06135e-06
-0.00447371
1.25211e-06
-0.00489927
1.44458e-06
-0.00532487
1.62023e-06
-0.00575014
1.78597e-06
-0.0061755
1.9187e-06
-0.00660043
2.02738e-06
-0.00702555
2.0935e-06
-0.00744998
2.10379e-06
-0.00787494
2.09591e-06
-0.00829872
1.95355e-06
-0.00872355
1.84394e-06
-0.00914663
1.56623e-06
-0.00957135
1.19752e-06
-0.00999345
7.58768e-07
-0.000212422
-0.000637223
1.40235e-08
-0.00106202
5.32547e-08
-0.0014868
1.1796e-07
-0.00191154
2.06649e-07
-0.00233622
3.17129e-07
-0.00276087
4.46676e-07
-0.00318539
5.91448e-07
-0.00360992
7.48514e-07
-0.00403424
9.11874e-07
-0.0044586
1.07852e-06
-0.00488267
1.24086e-06
-0.00530682
1.395e-06
-0.00573059
1.53356e-06
-0.00615449
1.64991e-06
-0.00657792
1.7397e-06
-0.00700153
1.79159e-06
-0.0074245
1.80698e-06
-0.00784787
1.76854e-06
-0.00827024
1.6747e-06
-0.00869344
1.51303e-06
-0.00911499
1.28802e-06
-0.00953818
9.58464e-07
-0.00995854
5.61222e-07
-0.000211679
-0.000634993
1.23144e-08
-0.0010583
4.64554e-08
-0.00148159
1.02642e-07
-0.00190484
1.80181e-07
-0.00232802
2.75935e-07
-0.00275118
3.89636e-07
-0.0031742
5.14707e-07
-0.00359723
6.53143e-07
-0.00402003
7.93801e-07
-0.00444289
9.41407e-07
-0.00486543
1.08067e-06
-0.00528808
1.21801e-06
-0.00571031
1.3362e-06
-0.00613268
1.44063e-06
-0.00655456
1.51586e-06
-0.00697663
1.56187e-06
-0.00739805
1.5736e-06
-0.00781986
1.53534e-06
-0.00824067
1.45633e-06
-0.0086623
1.30359e-06
-0.00908225
1.10446e-06
-0.00950386
8.17098e-07
-0.00992257
4.66611e-07
-0.000210906
-0.000632674
1.0923e-08
-0.00105444
4.09161e-08
-0.00147618
9.01135e-08
-0.00189788
1.58618e-07
-0.00231951
2.42275e-07
-0.00274112
3.43194e-07
-0.00316258
4.52051e-07
-0.00358405
5.7551e-07
-0.00400529
6.97458e-07
-0.00442659
8.2985e-07
-0.00484755
9.50148e-07
-0.00526863
1.07439e-06
-0.00568927
1.1761e-06
-0.00611007
1.27212e-06
-0.00653034
1.33601e-06
-0.00695083
1.38106e-06
-0.00737064
1.38671e-06
-0.00779085
1.35518e-06
-0.00821003
1.28292e-06
-0.00863005
1.15218e-06
-0.00904837
9.69942e-07
-0.00946836
7.18376e-07
-0.00988542
4.06527e-07
-0.000210104
-0.00063027
9.75031e-09
-0.00105043
3.62528e-08
-0.00147056
7.95591e-08
-0.00189067
1.40474e-07
-0.00231068
2.13956e-07
-0.00273069
3.0411e-07
-0.00315053
3.9934e-07
-0.0035704
5.10086e-07
-0.00399001
6.16266e-07
-0.00440969
7.35587e-07
-0.00482902
8.39799e-07
-0.00524848
9.52659e-07
-0.00566748
1.04035e-06
-0.00608665
1.12923e-06
-0.00650528
1.18442e-06
-0.00692413
1.23126e-06
-0.00734228
1.23024e-06
-0.00776084
1.20454e-06
-0.00817836
1.13638e-06
-0.00859672
1.02456e-06
-0.00901336
8.58552e-07
-0.00943168
6.38627e-07
-0.00984706
3.58556e-07
-0.000209274
-0.000627778
8.73904e-09
-0.00104628
3.22129e-08
-0.00146475
7.04405e-08
-0.00188319
1.24754e-07
-0.00230154
1.89534e-07
-0.00271988
2.70276e-07
-0.00313805
3.53898e-07
-0.00355625
4.53413e-07
-0.00397419
5.4614e-07
-0.0043922
6.53727e-07
-0.00480985
7.44056e-07
-0.00522762
8.46362e-07
-0.00564494
9.21424e-07
-0.00606242
1.00273e-06
-0.00647936
1.04844e-06
-0.0068965
1.09153e-06
-0.00731296
1.09164e-06
-0.00772981
1.07289e-06
-0.00814562
1.00818e-06
-0.00856226
9.11757e-07
-0.0089772
7.62496e-07
-0.00939378
5.71224e-07
-0.00980744
3.18132e-07
-0.000208414
-0.0006252
7.82828e-09
-0.00104198
2.85683e-08
-0.00145873
6.22892e-08
-0.00187545
1.1062e-07
-0.00229208
1.67798e-07
-0.00270869
2.39944e-07
-0.00312515
3.13556e-07
-0.00354161
4.02695e-07
-0.00395783
4.83936e-07
-0.0043741
5.80561e-07
-0.00479003
6.59151e-07
-0.00520605
7.5147e-07
-0.00562165
8.15772e-07
-0.00603737
8.89639e-07
-0.00645258
9.26557e-07
-0.00686796
9.66646e-07
-0.00728268
9.64345e-07
-0.00769776
9.53635e-07
-0.00811182
8.93155e-07
-0.00852669
8.12793e-07
-0.00893987
6.77127e-07
-0.00935467
5.11118e-07
-0.00976658
2.81504e-07
-0.000207526
-0.000622535
6.98515e-09
-0.00103754
2.51714e-08
-0.00145251
5.47767e-08
-0.00186745
9.74817e-08
-0.0022823
1.47877e-07
-0.00269713
2.11852e-07
-0.00311181
2.76755e-07
-0.00352648
3.55871e-07
-0.00394093
4.27403e-07
-0.00435539
5.13281e-07
-0.00476956
5.824e-07
-0.00518376
6.64864e-07
-0.00559759
7.20991e-07
-0.00601149
7.87724e-07
-0.00642492
8.17973e-07
-0.00683848
8.54516e-07
-0.00725142
8.43605e-07
-0.00766467
8.43604e-07
-0.00807695
7.89736e-07
-0.00848997
7.23175e-07
-0.00890137
6.00107e-07
-0.00931432
4.56643e-07
-0.00972443
2.48313e-07
-0.000206608
-0.000619783
6.17388e-09
-0.00103295
2.18942e-08
-0.00144609
4.76151e-08
-0.00185919
8.48498e-08
-0.00227221
1.29001e-07
-0.00268519
1.84919e-07
-0.00309804
2.4209e-07
-0.00351085
3.11145e-07
-0.00392348
3.74425e-07
-0.00433608
4.49233e-07
-0.00474843
5.10873e-07
-0.00516075
5.82846e-07
-0.00557277
6.33355e-07
-0.00598478
6.92925e-07
-0.0063964
7.20284e-07
-0.00680807
7.55219e-07
-0.00721919
7.4582e-07
-0.00763055
7.45142e-07
-0.00804099
6.96515e-07
-0.00845212
6.41756e-07
-0.00886168
5.28761e-07
-0.00927273
4.05831e-07
-0.009681
2.16741e-07
-0.000205662
-0.000616944
5.39055e-09
-0.00102822
1.86941e-08
-0.00143947
4.0662e-08
-0.00185067
7.2454e-08
-0.0022618
1.10782e-07
-0.00267288
1.58471e-07
-0.00308385
2.08883e-07
-0.00349475
2.67374e-07
-0.00390549
3.24004e-07
-0.00431617
3.8669e-07
-0.00472664
4.42954e-07
-0.00513704
5.02488e-07
-0.00554718
5.497e-07
-0.00595726
5.99617e-07
-0.006367
6.26939e-07
-0.00677673
6.59946e-07
-0.00718597
6.55295e-07
-0.00759539
6.5662e-07
-0.00800395
6.07513e-07
-0.00841314
5.63111e-07
-0.00882081
4.59189e-07
-0.0092299
3.55527e-07
-0.00963629
1.85762e-07
-0.000204686
-0.000614018
4.62857e-09
-0.00102334
1.55472e-08
-0.00143264
3.38368e-08
-0.00184189
6.00992e-08
-0.00225108
9.30585e-08
-0.00266019
1.32105e-07
-0.00306922
1.76763e-07
-0.00347816
2.23986e-07
-0.00388696
2.75427e-07
-0.00429567
3.25038e-07
-0.0047042
3.77418e-07
-0.00511263
4.22932e-07
-0.00552082
4.68103e-07
-0.00592893
5.05025e-07
-0.00633673
5.33535e-07
-0.00674448
5.58954e-07
-0.00715178
5.57536e-07
-0.0075592
5.73332e-07
-0.00796584
5.16863e-07
-0.00837301
4.80786e-07
-0.00877876
3.86944e-07
-0.00918583
3.03335e-07
-0.0095903
1.53626e-07
-0.000203682
-0.000611006
3.88797e-09
-0.00101832
1.24758e-08
-0.00142561
2.71832e-08
-0.00183285
4.77883e-08
-0.00224003
7.58961e-08
-0.00264713
1.06213e-07
-0.00305415
1.45273e-07
-0.00346108
1.8059e-07
-0.00386787
2.26567e-07
-0.00427457
2.64465e-07
-0.00468109
3.09857e-07
-0.00508751
3.44341e-07
-0.00549369
3.84221e-07
-0.00589978
4.14141e-07
-0.00630557
4.40642e-07
-0.0067113
4.53524e-07
-0.00711661
4.53491e-07
-0.00752196
4.57226e-07
-0.00792663
4.18861e-07
-0.00833174
3.92765e-07
-0.00873552
3.12271e-07
-0.00914053
2.50212e-07
-0.00954303
1.21558e-07
-0.000202648
-0.000607906
3.11262e-09
-0.00101315
9.39841e-09
-0.00141838
2.06945e-08
-0.00182355
3.56337e-08
-0.00222867
5.81483e-08
-0.0026337
7.97335e-08
-0.00303866
1.11516e-07
-0.00344351
1.42734e-07
-0.00384825
1.70509e-07
-0.00425286
2.09432e-07
-0.00465733
2.3359e-07
-0.00506166
2.79378e-07
-0.0054658
2.89822e-07
-0.0058698
3.29654e-07
-0.00627354
3.39894e-07
-0.00667718
3.61048e-07
-0.00708044
3.54526e-07
-0.0074837
3.51916e-07
-0.00788633
3.17654e-07
-0.00828933
3.08494e-07
-0.00869109
2.40287e-07
-0.00909397
1.99599e-07
-0.00949447
9.07863e-08
-0.000201587
-0.000604721
2.27259e-09
-0.00100785
6.25333e-09
-0.00141095
1.4209e-08
-0.00181399
2.49495e-08
-0.00221699
3.85866e-08
-0.00261989
5.76735e-08
-0.00302274
7.63239e-08
-0.00342545
1.02685e-07
-0.00382809
1.22441e-07
-0.00423056
1.54385e-07
-0.00463294
1.71036e-07
-0.00503511
2.05924e-07
-0.00543716
2.15153e-07
-0.005839
2.48994e-07
-0.00624066
2.45849e-07
-0.00664214
2.74276e-07
-0.0070433
2.48692e-07
-0.00744442
2.60831e-07
-0.00784497
2.20344e-07
-0.0082458
2.30408e-07
-0.00864549
1.75361e-07
-0.00904619
1.53041e-07
-0.00944464
6.2483e-08
-0.000200496
-0.000601451
1.55096e-09
-0.00100239
3.34247e-09
-0.00140332
6.82754e-09
-0.00180418
1.28262e-08
-0.002205
2.10558e-08
-0.00260572
3.24184e-08
-0.0030064
4.42128e-08
-0.00340692
6.12114e-08
-0.0038074
7.3806e-08
-0.00420767
9.58086e-08
-0.00460789
1.05977e-07
-0.00500786
1.31794e-07
-0.00540776
1.36402e-07
-0.00580739
1.63772e-07
-0.00620691
1.59523e-07
-0.00660617
1.85303e-07
-0.00700521
1.69753e-07
-0.0074041
1.91928e-07
-0.00780255
1.69049e-07
-0.00820114
1.63271e-07
-0.00859873
1.15268e-07
-0.00899718
1.08303e-07
-0.00939354
3.4746e-08
-0.000199378
-0.000598096
8.38437e-10
-0.000996803
4.27884e-10
-0.00139549
-1.83363e-10
-0.00179412
9.90788e-10
-0.00219271
3.68428e-09
-0.00259118
7.37965e-09
-0.00298963
1.21987e-08
-0.00338791
1.96424e-08
-0.00378617
2.48191e-08
-0.00418419
3.65927e-08
-0.0045822
4.00231e-08
-0.00497991
5.63173e-08
-0.00537762
5.5769e-08
-0.00577498
7.57935e-08
-0.00617232
6.88666e-08
-0.0065693
9.05661e-08
-0.00696617
7.50445e-08
-0.00736279
9.50254e-08
-0.00775905
6.70085e-08
-0.00815536
8.2193e-08
-0.0085508
4.61693e-08
-0.00894696
5.96133e-08
-0.00934119
5.98733e-09
-0.00019823
-0.000594654
1.00467e-10
-0.000991067
-2.81361e-09
-0.00138746
-7.40897e-09
-0.00178379
-9.92598e-09
-0.00218009
-1.37577e-08
-0.00257628
-1.75718e-08
-0.00297244
-2.007e-08
-0.00336842
-2.24225e-08
-0.0037644
-2.48148e-08
-0.00416011
-2.38314e-08
-0.00455586
-2.71344e-08
-0.00495126
-2.12947e-08
-0.00534671
-2.67656e-08
-0.00574175
-1.53083e-08
-0.00613685
-2.39973e-08
-0.00653151
-6.57524e-09
-0.00692615
-1.96571e-08
-0.00732043
1.76261e-09
-0.00771448
-1.75055e-08
-0.00810845
5.02189e-09
-0.00850169
-1.74212e-08
-0.00889549
1.31633e-08
-0.00928755
-2.22797e-08
-0.000197056
-0.000591131
-4.62735e-10
-0.000985196
-5.03209e-09
-0.00137924
-1.18991e-08
-0.00177323
-1.93224e-08
-0.00216718
-3.25068e-08
-0.00256102
-4.23069e-08
-0.00295483
-5.39472e-08
-0.00334847
-6.5674e-08
-0.00374211
-7.61492e-08
-0.00413547
-8.61387e-08
-0.00452889
-9.65919e-08
-0.00492193
-1.01906e-07
-0.00531508
-1.12828e-07
-0.00570775
-1.10977e-07
-0.00610055
-1.2155e-07
-0.00649284
-1.09437e-07
-0.0068852
-1.199e-07
-0.0072771
-9.75031e-08
-0.00766888
-1.0807e-07
-0.00806046
-7.49044e-08
-0.00845146
-7.583e-08
-0.00884286
-3.41362e-08
-0.00923269
-5.21236e-08
-0.000195854
-0.000587525
-1.28047e-09
-0.000979187
-8.23695e-09
-0.00137083
-1.87758e-08
-0.00176241
-3.23126e-08
-0.00215396
-5.08438e-08
-0.0025454
-6.4734e-08
-0.00293682
-9.0713e-08
-0.00332805
-1.09051e-07
-0.0037193
-1.31405e-07
-0.00411026
-1.51455e-07
-0.0045013
-1.70171e-07
-0.00489193
-1.87055e-07
-0.00528271
-2.04563e-07
-0.00567297
-2.13142e-07
-0.00606342
-2.26628e-07
-0.00645328
-2.20695e-07
-0.0068433
-2.289e-07
-0.00723277
-2.05907e-07
-0.00762224
-2.08996e-07
-0.00801139
-1.62864e-07
-0.00840008
-1.73106e-07
-0.00878903
-8.82931e-08
-0.0091766
-8.32933e-08
-0.000194624
-0.000583837
-2.15951e-09
-0.000973042
-1.18106e-08
-0.00136223
-2.6771e-08
-0.00175135
-4.64328e-08
-0.00214044
-6.9898e-08
-0.00252943
-9.45415e-08
-0.00291839
-1.27836e-07
-0.00330718
-1.51055e-07
-0.00369597
-1.94049e-07
-0.00408449
-2.18016e-07
-0.00447308
-2.52824e-07
-0.00486126
-2.7838e-07
-0.00524961
-3.05675e-07
-0.00563741
-3.2441e-07
-0.00602545
-3.43843e-07
-0.00641285
-3.44408e-07
-0.00680048
-3.53568e-07
-0.00718748
-3.31132e-07
-0.00757458
-3.27838e-07
-0.00796122
-2.69818e-07
-0.00834761
-2.5857e-07
-0.00873404
-1.61173e-07
-0.00911931
-1.17666e-07
-0.000193366
-0.000580065
-3.03273e-09
-0.000966755
-1.53916e-08
-0.00135342
-3.49306e-08
-0.00174004
-6.10081e-08
-0.00212662
-9.13793e-08
-0.00251309
-1.26303e-07
-0.00289955
-1.66438e-07
-0.00328582
-2.05304e-07
-0.00367212
-2.53113e-07
-0.00405812
-2.89466e-07
-0.00444422
-3.43602e-07
-0.00482991
-3.75646e-07
-0.00521576
-4.17839e-07
-0.00560106
-4.45457e-07
-0.00598663
-4.74011e-07
-0.00637152
-4.82816e-07
-0.0067567
-4.95986e-07
-0.00714118
-4.77401e-07
-0.00752587
-4.81678e-07
-0.00790997
-4.09851e-07
-0.00829397
-3.67235e-07
-0.00867786
-2.66247e-07
-0.00906076
-1.8818e-07
-0.000192083
-0.000576216
-3.71073e-09
-0.000960341
-1.81437e-08
-0.00134445
-4.10641e-08
-0.0017285
-7.14904e-08
-0.00211251
-1.0828e-07
-0.00249643
-1.50123e-07
-0.00288032
-1.97957e-07
-0.00326405
-2.45037e-07
-0.00364778
-3.00968e-07
-0.00403124
-3.45649e-07
-0.00441479
-4.06191e-07
-0.00479792
-4.40016e-07
-0.00518124
-4.99454e-07
-0.00556399
-5.22162e-07
-0.00594704
-5.68901e-07
-0.00632937
-5.7173e-07
-0.00671206
-5.90789e-07
-0.00709398
-5.60973e-07
-0.00747618
-5.67539e-07
-0.00785773
-4.6363e-07
-0.00823927
-4.18548e-07
-0.00862059
-2.71366e-07
-0.00900112
-2.02226e-07
-0.000190773
-0.000572288
-4.40726e-09
-0.000953794
-2.09634e-08
-0.00133528
-4.73361e-08
-0.00171672
-8.24714e-08
-0.00209812
-1.25271e-07
-0.00247943
-1.74445e-07
-0.0028607
-2.29794e-07
-0.00324182
-2.85807e-07
-0.00362294
-3.497e-07
-0.0040038
-4.03977e-07
-0.00438475
-4.71732e-07
-0.00476528
-5.14639e-07
-0.00514602
-5.79816e-07
-0.00552616
-6.01709e-07
-0.00590664
-6.67537e-07
-0.00628637
-6.47371e-07
-0.00666651
-7.01459e-07
-0.00704582
-6.33257e-07
-0.00742551
-6.01953e-07
-0.00780444
-5.28574e-07
-0.00818351
-4.77993e-07
-0.00856216
-3.18239e-07
-0.00894029
-2.17242e-07
-0.000189438
-0.000568281
-5.20048e-09
-0.000947118
-2.41555e-08
-0.00132593
-5.45039e-08
-0.00170471
-9.50678e-08
-0.00208343
-1.44543e-07
-0.00246208
-2.01982e-07
-0.00284069
-2.65845e-07
-0.00321915
-3.32528e-07
-0.00359762
-4.05066e-07
-0.00397582
-4.71835e-07
-0.00435412
-5.46799e-07
-0.004732
-6.03146e-07
-0.0051101
-6.73198e-07
-0.0054876
-7.06596e-07
-0.00586547
-7.56651e-07
-0.00624254
-7.62535e-07
-0.00662009
-8.4462e-07
-0.00699673
-7.42941e-07
-0.00737388
-6.75228e-07
-0.00775013
-6.28417e-07
-0.00812668
-5.67229e-07
-0.00850264
-3.96216e-07
-0.00887829
-2.41908e-07
-0.000188075
-0.000564195
-6.05886e-09
-0.000940308
-2.75916e-08
-0.0013164
-6.2214e-08
-0.00169245
-1.08567e-07
-0.00206846
-1.65289e-07
-0.00244439
-2.31371e-07
-0.00282028
-3.04667e-07
-0.00319603
-3.82473e-07
-0.00357179
-4.64922e-07
-0.00394729
-5.446e-07
-0.00432288
-6.28289e-07
-0.00469807
-6.98185e-07
-0.00507348
-7.74152e-07
-0.00544828
-8.21178e-07
-0.00582347
-8.78737e-07
-0.00619784
-8.87457e-07
-0.00657276
-9.07405e-07
-0.00694669
-8.73463e-07
-0.00732122
-9.19871e-07
-0.00769476
-7.43467e-07
-0.00806873
-6.51843e-07
-0.00844198
-4.6494e-07
-0.00881507
-3.25769e-07
-0.000186691
-0.000560042
-6.94703e-09
-0.000933387
-3.11611e-08
-0.00130671
-7.023e-08
-0.00168
-1.22639e-07
-0.00205324
-1.87044e-07
-0.00242641
-2.61872e-07
-0.00279954
-3.45067e-07
-0.00317254
-4.3408e-07
-0.00354554
-5.27422e-07
-0.0039183
-6.19873e-07
-0.00429114
-7.13742e-07
-0.00466358
-7.96693e-07
-0.00503626
-8.80348e-07
-0.00540833
-9.38976e-07
-0.00578081
-1.00007e-06
-0.00615244
-1.01757e-06
-0.00652467
-1.03961e-06
-0.00689586
-1.00149e-06
-0.00726773
-1.00626e-06
-0.00763852
-8.49777e-07
-0.00800988
-7.18676e-07
-0.00838034
-5.2817e-07
-0.00875093
-3.33982e-07
-0.000185279
-0.000555807
-7.84017e-09
-0.00092633
-3.47375e-08
-0.00129684
-7.82433e-08
-0.0016673
-1.36719e-07
-0.00203773
-2.0876e-07
-0.00240808
-2.92405e-07
-0.0027784
-3.85599e-07
-0.00314859
-4.85703e-07
-0.00351878
-5.90371e-07
-0.00388874
-6.95251e-07
-0.00425878
-8.00147e-07
-0.00462844
-8.95527e-07
-0.00499833
-9.88084e-07
-0.00536761
-1.05736e-06
-0.00573733
-1.12344e-06
-0.00610618
-1.14782e-06
-0.00647567
-1.17072e-06
-0.00684408
-1.13032e-06
-0.00721325
-1.10696e-06
-0.00758124
-9.58183e-07
-0.00794994
-7.59231e-07
-0.0083176
-5.92903e-07
-0.00868559
-3.68213e-07
-0.000183843
-0.000551501
-8.71209e-09
-0.000919154
-3.82461e-08
-0.00128679
-8.61041e-08
-0.00165439
-1.50532e-07
-0.00202195
-2.30012e-07
-0.00238944
-3.22431e-07
-0.0027569
-4.25564e-07
-0.00312424
-5.36536e-07
-0.00349157
-6.5261e-07
-0.00385869
-7.69521e-07
-0.00422588
-8.85806e-07
-0.00459271
-9.93032e-07
-0.00495976
-1.09518e-06
-0.00532622
-1.17431e-06
-0.00569312
-1.24633e-06
-0.00605915
-1.27647e-06
-0.00642585
-1.30033e-06
-0.00679143
-1.25755e-06
-0.00715786
-1.20719e-06
-0.00752301
-1.07627e-06
-0.00788902
-1.0284e-06
-0.00825383
-6.70112e-07
-0.00861917
-3.72532e-07
-0.000182384
-0.000547124
-9.56066e-09
-0.000911861
-4.16417e-08
-0.00127658
-9.37014e-08
-0.00164127
-1.63874e-07
-0.00200591
-2.50537e-07
-0.0023705
-3.5143e-07
-0.00273505
-4.64163e-07
-0.00309949
-5.85594e-07
-0.00346392
-7.12735e-07
-0.00382815
-8.41145e-07
-0.00419245
-9.68635e-07
-0.0045564
-1.08711e-06
-0.00492057
-1.19891e-06
-0.00528416
-1.28728e-06
-0.00564819
-1.36552e-06
-0.00601136
-1.40077e-06
-0.00637523
-1.42536e-06
-0.00673794
-1.3821e-06
-0.00710158
-1.33447e-06
-0.00746385
-1.17466e-06
-0.00782712
-9.29604e-07
-0.00818903
-7.31486e-07
-0.0085517
-4.75219e-07
-0.000180904
-0.000542686
-1.03671e-08
-0.000904464
-4.48874e-08
-0.00126623
-1.00974e-07
-0.00162796
-1.7667e-07
-0.00198965
-2.70234e-07
-0.00235129
-3.79273e-07
-0.00271289
-5.01206e-07
-0.00307439
-6.32641e-07
-0.00343588
-7.70389e-07
-0.00379718
-9.09704e-07
-0.00415855
-1.048e-06
-0.00451958
-1.17704e-06
-0.00488084
-1.2983e-06
-0.00524152
-1.39528e-06
-0.00560266
-1.4798e-06
-0.00596293
-1.51963e-06
-0.00632394
-1.54549e-06
-0.00668375
-1.49995e-06
-0.00704456
-1.4391e-06
-0.00740392
-1.28614e-06
-0.00776443
-1.21581e-06
-0.00812341
-8.07162e-07
-0.00848338
-4.95906e-07
-0.000179396
-0.000538161
-1.11305e-08
-0.000896923
-4.79463e-08
-0.00125567
-1.07822e-07
-0.00161439
-1.88717e-07
-0.00197307
-2.88784e-07
-0.00233171
-4.055e-07
-0.0026903
-5.36084e-07
-0.00304881
-6.76924e-07
-0.0034073
-8.24598e-07
-0.00376561
-9.74101e-07
-0.004124
-1.12244e-06
-0.00448205
-1.26128e-06
-0.00484034
-1.39132e-06
-0.00519806
-1.49622e-06
-0.00555625
-1.58659e-06
-0.00591356
-1.63059e-06
-0.00627165
-1.65741e-06
-0.00662851
-1.61056e-06
-0.00698645
-1.54986e-06
-0.00734285
-1.36931e-06
-0.00770054
-1.09031e-06
-0.00805653
-8.48925e-07
-0.00841378
-5.27218e-07
-0.000177872
-0.00053359
-1.18481e-08
-0.000889306
-5.08344e-08
-0.00124501
-1.14293e-07
-0.00160068
-2.00117e-07
-0.00195633
-3.06349e-07
-0.00231193
-4.30353e-07
-0.00266749
-5.69131e-07
-0.00302296
-7.18899e-07
-0.00337843
-8.75965e-07
-0.00373373
-1.03509e-06
-0.00408909
-1.19291e-06
-0.00444414
-1.34091e-06
-0.00479943
-1.47921e-06
-0.00515415
-1.59141e-06
-0.00550936
-1.68736e-06
-0.00586369
-1.73512e-06
-0.00621883
-1.76311e-06
-0.0065727
-1.71453e-06
-0.00692774
-1.64834e-06
-0.00728113
-1.45984e-06
-0.00763599
-1.16138e-06
-0.00798897
-9.09696e-07
-0.00834344
-5.58873e-07
-0.000176323
-0.000528944
-1.25186e-08
-0.000881564
-5.35179e-08
-0.00123417
-1.20299e-07
-0.00158676
-2.10685e-07
-0.00193931
-3.22626e-07
-0.00229182
-4.53368e-07
-0.0026443
-5.99746e-07
-0.0029967
-7.57801e-07
-0.00334909
-9.23537e-07
-0.00370132
-1.09164e-06
-0.00405363
-1.25811e-06
-0.00440563
-1.41466e-06
-0.00475787
-1.56034e-06
-0.00510956
-1.67943e-06
-0.00546174
-1.78013e-06
-0.00581304
-1.83157e-06
-0.00616519
-1.86022e-06
-0.00651603
-1.81036e-06
-0.00686813
-1.73879e-06
-0.00721848
-1.54233e-06
-0.00757046
-1.22958e-06
-0.00792038
-9.62663e-07
-0.00827205
-5.87471e-07
-0.000174754
-0.000524237
-1.31487e-08
-0.00087372
-5.60649e-08
-0.00122319
-1.26009e-07
-0.00157264
-2.20747e-07
-0.00192206
-3.3812e-07
-0.00227145
-4.7526e-07
-0.0026208
-6.28865e-07
-0.00297008
-7.94784e-07
-0.00331936
-9.68721e-07
-0.00366849
-1.14529e-06
-0.00401769
-1.31995e-06
-0.00436661
-1.48452e-06
-0.00471576
-1.63714e-06
-0.00506437
-1.76251e-06
-0.0054135
-1.86762e-06
-0.00576173
-1.92212e-06
-0.00611085
-1.95137e-06
-0.00645863
-1.89975e-06
-0.00680774
-1.82338e-06
-0.00715504
-1.61885e-06
-0.00750409
-1.29426e-06
-0.00785093
-1.01117e-06
-0.00819976
-6.14242e-07
-0.000173162
-0.000519464
-1.37674e-08
-0.000865765
-5.8518e-08
-0.00121206
-1.31495e-07
-0.00155833
-2.30383e-07
-0.00190458
-3.52943e-07
-0.00225079
-4.96184e-07
-0.00259697
-6.56647e-07
-0.0029431
-8.30047e-07
-0.00328921
-1.01175e-06
-0.00363519
-1.19643e-06
-0.00398125
-1.37873e-06
-0.00432702
-1.55109e-06
-0.00467304
-1.70996e-06
-0.00501853
-1.84155e-06
-0.00536455
-1.95016e-06
-0.00570966
-2.00778e-06
-0.00605571
-2.03663e-06
-0.00640038
-1.98344e-06
-0.00674646
-1.90158e-06
-0.00709064
-1.68977e-06
-0.00743672
-1.35451e-06
-0.00778043
-1.05549e-06
-0.00812636
-6.38074e-07
-0.00017156
-0.000514659
-1.43644e-08
-0.000857759
-6.09487e-08
-0.00120085
-1.36955e-07
-0.00154392
-2.40012e-07
-0.00188698
-3.67778e-07
-0.00223
-5.17154e-07
-0.002573
-6.84513e-07
-0.00291594
-8.65464e-07
-0.00325888
-1.05506e-06
-0.00360169
-1.24797e-06
-0.00394459
-1.43816e-06
-0.00428721
-1.61849e-06
-0.00463008
-1.78395e-06
-0.00497243
-1.92197e-06
-0.00531533
-2.03437e-06
-0.00565732
-2.09519e-06
-0.00600028
-2.12373e-06
-0.00634182
-2.06833e-06
-0.00668486
-1.98113e-06
-0.00702592
-1.7607e-06
-0.00736902
-1.41159e-06
-0.0077096
-1.09846e-06
-0.00805262
-6.60948e-07
-0.00016992
-0.00050974
-1.49941e-08
-0.000849561
-6.34287e-08
-0.00118938
-1.42498e-07
-0.00152917
-2.49747e-07
-0.00186896
-3.82791e-07
-0.00220871
-5.38413e-07
-0.00254844
-7.12857e-07
-0.00288813
-9.01593e-07
-0.00322781
-1.0994e-06
-0.00356738
-1.30098e-06
-0.00390703
-1.49954e-06
-0.00424642
-1.68861e-06
-0.00458608
-1.86128e-06
-0.00492521
-2.00705e-06
-0.00526491
-2.1239e-06
-0.0056037
-2.18992e-06
-0.0059435
-2.21844e-06
-0.00628185
-2.16249e-06
-0.00662178
-2.06524e-06
-0.00695965
-1.84959e-06
-0.00729967
-1.6929e-06
-0.00763705
-1.15638e-06
-0.0079771
-6.8015e-07
-0.000168287
-0.000504841
-1.566e-08
-0.000841398
-6.61285e-08
-0.00117795
-1.48603e-07
-0.00151449
-2.60538e-07
-0.00185101
-3.99532e-07
-0.00218751
-5.62254e-07
-0.002524
-7.44829e-07
-0.00286044
-9.4261e-07
-0.00319688
-1.15008e-06
-0.00353322
-1.36209e-06
-0.00386965
-1.5708e-06
-0.00420583
-1.77105e-06
-0.00454227
-1.95289e-06
-0.0048782
-2.10995e-06
-0.00521472
-2.23297e-06
-0.00555032
-2.3098e-06
-0.00588697
-2.33855e-06
-0.00622214
-2.29182e-06
-0.00655896
-2.18883e-06
-0.00689363
-1.95925e-06
-0.00723062
-1.56088e-06
-0.00756481
-1.22578e-06
-0.00790187
-7.32066e-07
-0.000166612
-0.000499817
-1.62369e-08
-0.000833024
-6.83441e-08
-0.00116623
-1.53579e-07
-0.00149942
-2.69259e-07
-0.00183261
-4.13005e-07
-0.00216577
-5.81355e-07
-0.00249892
-7.70363e-07
-0.00283203
-9.75228e-07
-0.00316516
-1.1903e-06
-0.00349818
-1.41037e-06
-0.0038313
-1.62704e-06
-0.00416418
-1.83575e-06
-0.00449733
-2.0248e-06
-0.00482999
-2.1901e-06
-0.00516324
-2.31797e-06
-0.00549558
-2.40173e-06
-0.00582899
-2.4305e-06
-0.00616092
-2.38896e-06
-0.00649455
-2.27533e-06
-0.00682598
-2.06819e-06
-0.00715983
-1.8977e-06
-0.00749077
-1.31316e-06
-0.0078248
-7.79235e-07
-0.000164934
-0.000494785
-1.6535e-08
-0.000824639
-6.96203e-08
-0.00115449
-1.56403e-07
-0.00148434
-2.74298e-07
-0.00181417
-4.20724e-07
-0.00214399
-5.9226e-07
-0.00247381
-7.84798e-07
-0.00280359
-9.93448e-07
-0.00313338
-1.21256e-06
-0.00346309
-1.4362e-06
-0.00379289
-1.65709e-06
-0.00412248
-1.86796e-06
-0.00445233
-2.0612e-06
-0.00478172
-2.22556e-06
-0.00511168
-2.35769e-06
-0.00544077
-2.43562e-06
-0.00577093
-2.46936e-06
-0.00609962
-2.41512e-06
-0.00643004
-2.31039e-06
-0.00675825
-2.06364e-06
-0.00708896
-1.65865e-06
-0.00741665
-1.29396e-06
-0.00774765
-7.69314e-07
-0.000163239
-0.000489698
-1.68722e-08
-0.000816162
-7.09262e-08
-0.00114263
-1.59332e-07
-0.00146909
-2.79448e-07
-0.00179554
-4.28688e-07
-0.00212198
-6.03531e-07
-0.00244842
-7.99813e-07
-0.00277484
-1.01254e-06
-0.00310127
-1.23586e-06
-0.00342763
-1.46396e-06
-0.00375408
-1.68891e-06
-0.00408033
-1.90409e-06
-0.00440685
-2.10044e-06
-0.00473292
-2.26827e-06
-0.00505958
-2.40173e-06
-0.00538536
-2.48139e-06
-0.00571225
-2.51396e-06
-0.00603765
-2.45874e-06
-0.00636484
-2.34975e-06
-0.00668976
-2.09997e-06
-0.00701732
-1.69011e-06
-0.00734171
-1.31567e-06
-0.00766962
-7.77377e-07
-0.000161516
-0.000484532
-1.72247e-08
-0.000807553
-7.23518e-08
-0.00113058
-1.62543e-07
-0.00145359
-2.85124e-07
-0.00177661
-4.3748e-07
-0.00209962
-6.1602e-07
-0.00242263
-8.1652e-07
-0.00274563
-1.03389e-06
-0.00306864
-1.26213e-06
-0.0033916
-1.49542e-06
-0.00371465
-1.7253e-06
-0.00403751
-1.94574e-06
-0.00436064
-2.14615e-06
-0.00468334
-2.3187e-06
-0.00500664
-2.45433e-06
-0.00532907
-2.53742e-06
-0.00565264
-2.56922e-06
-0.00597469
-2.51512e-06
-0.00629861
-2.40146e-06
-0.00662019
-2.14907e-06
-0.00694453
-1.73181e-06
-0.00726558
-1.34683e-06
-0.00759035
-7.94677e-07
-0.000159797
-0.000479376
-1.75606e-08
-0.000798961
-7.3664e-08
-0.00111855
-1.65506e-07
-0.00143814
-2.90359e-07
-0.00175773
-4.45622e-07
-0.00207731
-6.27614e-07
-0.0023969
-8.32087e-07
-0.00271649
-1.05383e-06
-0.00303609
-1.28674e-06
-0.00335565
-1.52501e-06
-0.0036753
-1.75966e-06
-0.00399478
-1.9853e-06
-0.00431455
-2.1897e-06
-0.00463388
-2.36725e-06
-0.00495383
-2.50498e-06
-0.00527291
-2.59229e-06
-0.00559316
-2.62311e-06
-0.00591188
-2.57153e-06
-0.00623253
-2.45261e-06
-0.00655078
-2.1994e-06
-0.00687191
-1.7712e-06
-0.00718963
-1.3797e-06
-0.00751126
-8.11622e-07
-0.000158042
-0.00047411
-1.7881e-08
-0.000790186
-7.49395e-08
-0.00110627
-1.68379e-07
-0.00142235
-2.95444e-07
-0.00173843
-4.53523e-07
-0.00205452
-6.38877e-07
-0.00237062
-8.47223e-07
-0.00268672
-1.07323e-06
-0.00300284
-1.31075e-06
-0.00331892
-1.55385e-06
-0.00363511
-1.79333e-06
-0.00395114
-2.02395e-06
-0.00426745
-2.23261e-06
-0.00458335
-2.41477e-06
-0.00489987
-2.55517e-06
-0.00521554
-2.64603e-06
-0.00553239
-2.67677e-06
-0.00584772
-2.62662e-06
-0.00616501
-2.50395e-06
-0.00647987
-2.24872e-06
-0.0067977
-1.80574e-06
-0.00711203
-1.41189e-06
-0.00743045
-8.28813e-07
-0.000156293
-0.000468864
-1.81543e-08
-0.000781443
-7.60106e-08
-0.00109403
-1.70802e-07
-0.00140662
-2.99741e-07
-0.00171922
-4.60227e-07
-0.00203182
-6.48461e-07
-0.00234444
-8.60138e-07
-0.00265706
-1.08984e-06
-0.00296972
-1.33138e-06
-0.00328234
-1.57872e-06
-0.00359507
-1.82247e-06
-0.00390766
-2.0575e-06
-0.00422053
-2.26999e-06
-0.00453301
-2.45632e-06
-0.00484612
-2.59916e-06
-0.00515839
-2.69339e-06
-0.00547186
-2.72406e-06
-0.0057838
-2.6754e-06
-0.00609776
-2.54613e-06
-0.00640925
-2.30644e-06
-0.00672379
-2.07758e-06
-0.00703475
-1.45608e-06
-0.00734996
-8.42922e-07
-0.000154514
-0.000463527
-1.83872e-08
-0.000772548
-7.69246e-08
-0.00108158
-1.72862e-07
-0.00139061
-3.03396e-07
-0.00169966
-4.65922e-07
-0.00200872
-6.56604e-07
-0.0023178
-8.71115e-07
-0.00262688
-1.10397e-06
-0.00293601
-1.34897e-06
-0.00324512
-1.59993e-06
-0.00355433
-1.84741e-06
-0.00386342
-2.0862e-06
-0.00417279
-2.30215e-06
-0.00448179
-2.49197e-06
-0.00479143
-2.63714e-06
-0.00510024
-2.73404e-06
-0.00541026
-2.76494e-06
-0.00571876
-2.71735e-06
-0.00602931
-2.58503e-06
-0.00633739
-2.34259e-06
-0.00664856
-2.114e-06
-0.0069561
-1.47929e-06
-0.00726805
-8.55211e-07
-0.000152734
-0.000458188
-1.85579e-08
-0.000763651
-7.75867e-08
-0.00106912
-1.74363e-07
-0.00137461
-3.06071e-07
-0.0016801
-4.70112e-07
-0.00198561
-6.62622e-07
-0.00229115
-8.79263e-07
-0.0025967
-1.11451e-06
-0.00290229
-1.36215e-06
-0.00320788
-1.61588e-06
-0.00351358
-1.86631e-06