/*--------------------------------*- C++ -*----------------------------------*\
  =========                 |
  \\      /  F ield         | OpenFOAM: The Open Source CFD Toolbox
   \\    /   O peration     | Website:  https://openfoam.org
    \\  /    A nd           | Version:  10
     \\/     M anipulation  |
\*---------------------------------------------------------------------------*/
FoamFile
{
    format      ascii;
    class       volScalarField;
    location    "0.02";
    object      rho;
}
// * * * * * * * * * * * * * * * * * * * * * * * * * * * * * * * * * * * * * //

dimensions      [1 -3 0 0 0 0 0];

internalField   nonuniform List<scalar> 
4176
(
0.0469914
0.0469878
0.0469896
0.0469923
0.0469956
0.0469997
0.0470046
0.0470103
0.0470169
0.0470242
0.0470325
0.0470414
0.0470516
0.0470623
0.047074
0.047087
0.0470996
0.0471161
0.0471279
0.0471502
0.0471581
0.047188
0.0471912
0.0472246
0.0470154
0.0470119
0.0470136
0.0470163
0.0470196
0.0470237
0.0470286
0.0470344
0.0470409
0.0470484
0.0470565
0.0470657
0.0470757
0.0470866
0.0470982
0.0471114
0.0471242
0.0471402
0.0471538
0.0471736
0.0471868
0.0472135
0.047222
0.0472619
0.0474409
0.0474374
0.0474392
0.0474419
0.0474453
0.0474495
0.0474544
0.0474602
0.0474667
0.0474743
0.0474825
0.0474917
0.0475017
0.0475126
0.0475242
0.0475374
0.04755
0.0475662
0.0475792
0.0475993
0.0476118
0.0476386
0.0476465
0.047686
0.0478156
0.0478121
0.0478139
0.0478166
0.04782
0.0478241
0.047829
0.0478349
0.0478414
0.0478489
0.047857
0.0478662
0.047876
0.0478869
0.0478983
0.0479114
0.0479236
0.0479401
0.0479517
0.0479734
0.0479825
0.0480106
0.0480162
0.0480517
0.0481913
0.0481878
0.0481896
0.0481924
0.0481957
0.0481998
0.0482047
0.0482104
0.0482169
0.0482242
0.0482323
0.0482413
0.048251
0.0482617
0.048273
0.0482857
0.0482978
0.048314
0.0483251
0.0483464
0.0483554
0.0483825
0.0483879
0.0484221
0.048553
0.0485495
0.0485512
0.048554
0.0485573
0.0485613
0.0485661
0.0485717
0.0485781
0.0485852
0.0485932
0.0486019
0.0486115
0.0486219
0.048633
0.0486453
0.0486573
0.0486727
0.0486843
0.0487041
0.0487138
0.0487399
0.0487455
0.0487796
0.0489164
0.0489129
0.0489147
0.0489174
0.0489207
0.0489245
0.0489294
0.0489347
0.0489411
0.0489479
0.0489559
0.0489642
0.0489738
0.0489837
0.0489947
0.0490065
0.0490184
0.0490332
0.0490446
0.0490638
0.0490733
0.0490986
0.0491041
0.0491371
0.0492691
0.0492656
0.0492673
0.0492699
0.0492732
0.0492769
0.0492817
0.0492867
0.0492932
0.0492996
0.0493076
0.0493154
0.0493249
0.0493344
0.0493452
0.0493565
0.0493682
0.0493824
0.0493936
0.0494121
0.0494213
0.0494458
0.0494512
0.049483
0.049626
0.0496225
0.0496243
0.0496268
0.04963
0.0496335
0.0496384
0.049643
0.0496495
0.0496555
0.0496635
0.0496708
0.0496803
0.0496892
0.0497
0.0497107
0.0497223
0.0497357
0.0497468
0.0497645
0.0497736
0.049797
0.0498023
0.049833
0.0499746
0.0499711
0.0499728
0.0499752
0.0499784
0.0499817
0.0499865
0.0499909
0.0499973
0.0500029
0.0500108
0.0500177
0.0500271
0.0500355
0.050046
0.0500561
0.0500676
0.0500803
0.0500912
0.050108
0.0501169
0.0501393
0.0501446
0.0501741
0.0503293
0.0503258
0.0503275
0.0503298
0.050333
0.0503361
0.0503409
0.050345
0.0503513
0.0503565
0.0503644
0.0503708
0.05038
0.0503879
0.0503983
0.0504078
0.050419
0.050431
0.0504417
0.0504577
0.0504665
0.0504878
0.050493
0.0505213
0.0506774
0.0506739
0.0506756
0.0506777
0.0506809
0.0506838
0.0506885
0.0506923
0.0506986
0.0507035
0.0507111
0.0507172
0.0507261
0.0507336
0.0507436
0.0507527
0.0507636
0.0507748
0.0507854
0.0508004
0.0508091
0.0508293
0.0508345
0.0508614
0.0510332
0.0510297
0.0510314
0.0510335
0.0510366
0.0510393
0.0510439
0.0510475
0.0510535
0.0510582
0.0510655
0.0510714
0.0510799
0.0510871
0.0510967
0.0511053
0.0511158
0.0511264
0.0511367
0.0511508
0.0511594
0.0511785
0.0511837
0.0512093
0.0513838
0.0513803
0.0513819
0.051384
0.051387
0.0513896
0.051394
0.0513974
0.0514032
0.0514076
0.0514147
0.0514201
0.0514284
0.0514351
0.0514444
0.0514525
0.0514627
0.0514725
0.0514827
0.0514958
0.0515043
0.0515222
0.0515273
0.0515516
0.0517435
0.05174
0.0517416
0.0517435
0.0517464
0.0517489
0.0517531
0.0517563
0.051762
0.051766
0.051773
0.0517779
0.0517861
0.0517922
0.0518012
0.0518088
0.0518185
0.0518278
0.0518377
0.0518499
0.0518582
0.051875
0.05188
0.0519031
0.052099
0.0520955
0.052097
0.0520989
0.0521017
0.052104
0.0521082
0.052111
0.0521167
0.0521201
0.0521272
0.0521313
0.0521396
0.0521448
0.0521539
0.0521606
0.0521702
0.0521786
0.0521884
0.0521995
0.0522079
0.0522233
0.0522284
0.05225
0.0524645
0.052461
0.0524626
0.0524644
0.0524671
0.0524692
0.0524733
0.0524757
0.0524814
0.0524843
0.0524914
0.0524948
0.0525032
0.0525076
0.0525167
0.0525225
0.052532
0.0525396
0.0525492
0.0525593
0.0525674
0.0525818
0.0525867
0.052607
0.0528266
0.0528232
0.0528246
0.0528263
0.052829
0.0528309
0.052835
0.052837
0.0528427
0.0528449
0.0528522
0.0528548
0.0528633
0.0528667
0.0528761
0.0528808
0.0528904
0.052897
0.0529063
0.0529154
0.0529235
0.0529365
0.0529415
0.0529603
0.0531999
0.0531965
0.0531979
0.0531995
0.0532022
0.0532038
0.0532078
0.0532095
0.0532151
0.053217
0.053224
0.0532262
0.0532345
0.0532372
0.0532465
0.0532503
0.0532599
0.0532655
0.0532747
0.0532828
0.0532907
0.0533026
0.0533074
0.053325
0.0535703
0.0535669
0.0535683
0.0535698
0.0535724
0.0535738
0.0535777
0.0535792
0.0535845
0.0535861
0.0535929
0.0535946
0.0536027
0.0536049
0.0536139
0.053617
0.0536264
0.053631
0.0536401
0.0536472
0.053655
0.0536656
0.0536704
0.0536865
0.0539526
0.0539493
0.0539506
0.053952
0.0539545
0.0539558
0.0539595
0.0539609
0.0539659
0.0539673
0.0539737
0.0539751
0.0539828
0.0539845
0.0539932
0.0539956
0.0540049
0.0540086
0.0540176
0.0540236
0.0540312
0.0540407
0.0540454
0.0540601
0.0543323
0.054329
0.0543302
0.0543316
0.054334
0.0543351
0.0543387
0.0543398
0.0543446
0.0543457
0.0543518
0.0543529
0.0543602
0.0543615
0.0543698
0.0543716
0.0543804
0.0543834
0.0543921
0.0543971
0.0544046
0.0544128
0.0544174
0.0544307
0.0547251
0.0547218
0.0547229
0.0547244
0.0547266
0.0547276
0.054731
0.0547319
0.0547365
0.0547372
0.0547431
0.0547438
0.0547508
0.0547516
0.0547596
0.0547608
0.0547693
0.0547715
0.0547799
0.0547839
0.0547912
0.0547982
0.0548027
0.0548146
0.0551154
0.0551122
0.0551132
0.0551147
0.0551165
0.0551176
0.0551208
0.0551214
0.0551258
0.0551262
0.0551319
0.0551321
0.0551388
0.0551391
0.0551467
0.0551473
0.0551554
0.0551569
0.0551649
0.055168
0.0551751
0.0551808
0.0551852
0.0551957
0.0555195
0.0555163
0.0555173
0.0555188
0.0555204
0.0555215
0.0555242
0.0555249
0.055529
0.055529
0.0555345
0.0555342
0.0555408
0.0555404
0.0555478
0.0555477
0.0555556
0.0555562
0.055564
0.0555661
0.055573
0.0555775
0.0555817
0.0555908
0.0559208
0.0559176
0.0559185
0.05592
0.0559213
0.0559225
0.0559248
0.0559254
0.055929
0.055929
0.0559341
0.0559334
0.0559397
0.0559388
0.0559459
0.0559451
0.0559526
0.0559524
0.0559599
0.055961
0.0559676
0.055971
0.0559751
0.0559826
0.0563377
0.0563346
0.0563354
0.0563368
0.056338
0.0563392
0.0563411
0.0563418
0.0563449
0.0563449
0.0563493
0.0563485
0.0563543
0.0563529
0.0563598
0.0563582
0.0563656
0.0563645
0.0563718
0.0563719
0.0563782
0.0563804
0.0563844
0.0563905
0.056751
0.0567479
0.0567487
0.05675
0.0567511
0.0567522
0.0567538
0.0567544
0.0567571
0.056757
0.0567609
0.05676
0.0567652
0.0567635
0.0567698
0.0567678
0.0567747
0.0567729
0.0567798
0.056779
0.056785
0.0567861
0.0567899
0.0567947
0.0571806
0.0571776
0.0571783
0.0571796
0.0571806
0.0571816
0.057183
0.0571835
0.0571858
0.0571855
0.057189
0.0571879
0.0571925
0.0571906
0.0571963
0.0571939
0.0572003
0.0571978
0.0572043
0.0572027
0.0572084
0.0572084
0.057212
0.0572154
0.0576062
0.0576032
0.0576039
0.0576051
0.0576059
0.0576068
0.0576079
0.0576083
0.0576102
0.0576099
0.0576128
0.0576115
0.0576156
0.0576134
0.0576186
0.0576157
0.0576216
0.0576185
0.0576246
0.0576219
0.0576273
0.0576262
0.0576296
0.0576314
0.058051
0.058048
0.0580487
0.0580498
0.0580505
0.0580513
0.0580522
0.0580525
0.058054
0.0580535
0.058056
0.0580546
0.0580581
0.0580557
0.0580602
0.058057
0.0580623
0.0580586
0.0580642
0.0580608
0.0580658
0.0580637
0.0580668
0.0580673
0.0584887
0.0584858
0.0584864
0.0584875
0.0584881
0.0584887
0.0584894
0.0584895
0.0584908
0.0584901
0.0584921
0.0584905
0.0584935
0.0584907
0.0584948
0.0584911
0.0584959
0.0584916
0.0584967
0.0584925
0.0584971
0.0584939
0.0584968
0.058496
0.0589476
0.0589447
0.0589453
0.0589463
0.0589468
0.0589473
0.0589478
0.0589478
0.0589487
0.0589478
0.0589494
0.0589476
0.0589501
0.058947
0.0589505
0.0589464
0.0589506
0.0589458
0.0589504
0.0589454
0.0589497
0.0589452
0.058948
0.0589459
0.0593996
0.0593967
0.0593972
0.0593982
0.0593985
0.0593989
0.0593992
0.059399
0.0593996
0.0593986
0.0593998
0.0593976
0.0593996
0.0593963
0.0593992
0.0593947
0.0593984
0.0593929
0.059397
0.0593912
0.059395
0.0593896
0.0593921
0.0593884
0.0598745
0.0598718
0.0598723
0.0598732
0.0598734
0.0598737
0.0598738
0.0598735
0.0598738
0.0598726
0.0598734
0.0598711
0.0598727
0.0598691
0.0598715
0.0598666
0.0598698
0.0598638
0.0598675
0.0598609
0.0598646
0.0598579
0.0598603
0.0598554
0.0603369
0.0603342
0.0603346
0.0603354
0.0603356
0.0603357
0.0603356
0.0603351
0.0603351
0.0603337
0.0603341
0.0603316
0.0603326
0.0603287
0.0603306
0.0603253
0.0603279
0.0603214
0.0603246
0.0603172
0.0603203
0.0603128
0.060315
0.0603086
0.0608313
0.0608286
0.060829
0.0608298
0.0608298
0.0608298
0.0608296
0.0608289
0.0608287
0.0608271
0.0608271
0.0608243
0.0608249
0.0608207
0.0608221
0.0608163
0.0608184
0.0608113
0.060814
0.0608058
0.0608086
0.0608
0.060802
0.0607942
0.0613062
0.0613035
0.0613039
0.0613046
0.0613046
0.0613045
0.0613041
0.0613033
0.0613028
0.061301
0.0613007
0.0612977
0.0612979
0.0612934
0.0612944
0.0612883
0.0612899
0.0612823
0.0612846
0.0612757
0.0612782
0.0612686
0.0612704
0.0612614
0.0618159
0.0618133
0.0618137
0.0618143
0.0618142
0.061814
0.0618134
0.0618124
0.0618117
0.0618097
0.0618091
0.0618058
0.0618056
0.0618008
0.0618013
0.0617949
0.0617961
0.0617879
0.0617899
0.0617803
0.0617824
0.0617719
0.0617735
0.0617633
0.0623045
0.062302
0.0623023
0.0623029
0.0623026
0.0623023
0.0623015
0.0623004
0.0622994
0.0622972
0.0622962
0.0622927
0.062292
0.0622869
0.0622868
0.0622799
0.0622806
0.0622719
0.0622732
0.0622629
0.0622646
0.0622531
0.0622544
0.0622428
0.0628367
0.0628343
0.0628346
0.0628352
0.0628349
0.0628345
0.0628337
0.0628324
0.0628313
0.062829
0.0628277
0.0628241
0.0628231
0.0628178
0.0628174
0.0628103
0.0628106
0.0628015
0.0628026
0.0627917
0.0627932
0.0627809
0.062782
0.0627696
0.0633264
0.063324
0.0633242
0.0633247
0.0633242
0.0633236
0.0633226
0.0633211
0.0633196
0.0633171
0.0633155
0.0633116
0.0633102
0.0633046
0.0633036
0.0632961
0.0632959
0.0632863
0.0632868
0.0632752
0.0632764
0.0632629
0.0632639
0.0632502
0.0638934
0.0638912
0.0638914
0.0638919
0.0638915
0.0638909
0.0638898
0.0638883
0.0638867
0.063884
0.0638821
0.0638781
0.0638763
0.0638705
0.0638691
0.0638613
0.0638606
0.0638507
0.0638507
0.0638386
0.0638392
0.0638252
0.0638259
0.063811
0.0643806
0.0643783
0.0643784
0.0643788
0.0643782
0.0643775
0.0643761
0.0643744
0.0643725
0.0643697
0.0643675
0.0643632
0.0643611
0.0643551
0.0643533
0.0643452
0.064344
0.0643338
0.0643333
0.0643208
0.0643211
0.0643061
0.0643067
0.0642908
0.0649746
0.0649725
0.0649727
0.0649731
0.0649725
0.0649718
0.0649704
0.0649686
0.0649666
0.0649636
0.0649612
0.0649568
0.0649543
0.064948
0.0649458
0.0649375
0.0649359
0.0649252
0.0649244
0.0649112
0.064911
0.0648956
0.0648958
0.0648789
0.0654763
0.0654742
0.0654743
0.0654747
0.065474
0.0654731
0.0654715
0.0654696
0.0654673
0.0654642
0.0654615
0.0654569
0.0654541
0.0654476
0.065445
0.0654364
0.0654344
0.0654234
0.0654221
0.0654085
0.0654081
0.0653919
0.0653919
0.0653741
0.0660777
0.0660757
0.0660758
0.0660762
0.0660754
0.0660745
0.0660729
0.0660708
0.0660685
0.0660652
0.0660623
0.0660575
0.0660544
0.0660478
0.0660448
0.066036
0.0660336
0.0660223
0.0660206
0.0660066
0.0660058
0.065989
0.0659888
0.0659701
0.0666103
0.0666084
0.0666085
0.0666088
0.066608
0.066607
0.0666053
0.0666031
0.0666006
0.0665972
0.0665941
0.0665891
0.0665857
0.0665789
0.0665756
0.0665666
0.0665638
0.0665522
0.0665501
0.0665357
0.0665345
0.0665171
0.0665168
0.0664972
0.0672096
0.0672077
0.0672078
0.0672081
0.0672073
0.0672062
0.0672044
0.0672021
0.0671995
0.0671959
0.0671926
0.0671876
0.0671839
0.0671769
0.0671733
0.0671641
0.0671609
0.0671491
0.0671466
0.0671318
0.0671303
0.0671125
0.0671118
0.0670915
0.067775
0.0677733
0.0677734
0.0677736
0.0677728
0.0677716
0.0677698
0.0677674
0.0677646
0.067761
0.0677575
0.0677523
0.0677484
0.0677413
0.0677373
0.067728
0.0677244
0.0677124
0.0677096
0.0676944
0.0676928
0.0676741
0.0676734
0.0676524
0.0683757
0.0683741
0.0683741
0.0683744
0.0683735
0.0683723
0.0683703
0.0683679
0.068365
0.0683613
0.0683576
0.0683523
0.0683481
0.068341
0.0683367
0.0683272
0.0683232
0.068311
0.0683079
0.0682925
0.0682905
0.0682714
0.0682704
0.0682488
0.0689673
0.0689657
0.0689658
0.0689661
0.0689651
0.0689639
0.0689619
0.0689594
0.0689564
0.0689526
0.0689487
0.0689434
0.068939
0.0689317
0.0689271
0.0689176
0.0689133
0.0689009
0.0688974
0.0688818
0.0688794
0.0688602
0.0688589
0.0688367
0.0695763
0.0695748
0.0695749
0.0695751
0.0695742
0.0695729
0.0695709
0.0695683
0.0695652
0.0695613
0.0695573
0.0695519
0.0695473
0.06954
0.0695351
0.0695255
0.0695209
0.0695084
0.0695045
0.0694888
0.0694862
0.0694663
0.069465
0.0694423
0.0701876
0.0701863
0.0701864
0.0701866
0.0701856
0.0701843
0.0701823
0.0701797
0.0701765
0.0701725
0.0701684
0.0701629
0.0701581
0.0701508
0.0701457
0.070136
0.0701311
0.0701185
0.0701144
0.0700984
0.0700954
0.0700756
0.0700739
0.0700507
0.0708092
0.0708079
0.0708081
0.0708083
0.0708073
0.070806
0.0708039
0.0708013
0.070798
0.070794
0.0707898
0.0707843
0.0707793
0.0707719
0.0707666
0.0707569
0.0707517
0.0707391
0.0707347
0.0707186
0.0707155
0.0706952
0.0706934
0.0706699
0.0714369
0.0714358
0.0714359
0.0714361
0.0714352
0.0714339
0.0714317
0.0714291
0.0714258
0.0714218
0.0714175
0.0714119
0.0714068
0.0713994
0.0713939
0.0713842
0.0713787
0.0713662
0.0713614
0.0713453
0.0713419
0.0713214
0.0713195
0.0712957
0.0720726
0.0720716
0.0720717
0.0720719
0.072071
0.0720697
0.0720675
0.0720649
0.0720615
0.0720575
0.0720531
0.0720475
0.0720424
0.0720349
0.0720293
0.0720195
0.0720139
0.0720014
0.0719964
0.0719803
0.0719765
0.0719562
0.071954
0.0719299
0.0727152
0.0727143
0.0727144
0.0727147
0.0727138
0.0727125
0.0727103
0.0727076
0.0727043
0.0727003
0.0726959
0.0726903
0.072685
0.0726776
0.0726718
0.0726621
0.0726563
0.0726438
0.0726386
0.0726225
0.0726185
0.0725982
0.0725958
0.0725715
0.0733649
0.0733642
0.0733644
0.0733647
0.0733638
0.0733625
0.0733603
0.0733577
0.0733544
0.0733503
0.0733459
0.0733403
0.073335
0.0733276
0.0733217
0.0733121
0.0733061
0.0732937
0.0732883
0.0732723
0.0732682
0.0732477
0.0732453
0.0732209
0.0740216
0.074021
0.0740212
0.0740215
0.0740206
0.0740194
0.0740173
0.0740146
0.0740113
0.0740073
0.0740029
0.0739974
0.073992
0.0739847
0.0739787
0.0739692
0.0739631
0.0739507
0.0739452
0.0739293
0.073925
0.0739046
0.0739021
0.0738777
0.074685
0.0746845
0.0746848
0.0746852
0.0746843
0.0746831
0.074681
0.0746784
0.0746751
0.0746712
0.0746668
0.0746613
0.0746559
0.0746487
0.0746426
0.0746332
0.074627
0.0746149
0.0746091
0.0745935
0.074589
0.0745687
0.0745661
0.0745418
0.075355
0.0753547
0.075355
0.0753554
0.0753546
0.0753534
0.0753514
0.0753488
0.0753456
0.0753417
0.0753373
0.0753319
0.0753265
0.0753194
0.0753133
0.0753041
0.0752978
0.0752858
0.07528
0.0752645
0.0752599
0.0752399
0.0752371
0.075213
0.0760314
0.0760312
0.0760315
0.076032
0.0760312
0.0760301
0.0760282
0.0760257
0.0760225
0.0760187
0.0760143
0.076009
0.0760037
0.0759967
0.0759906
0.0759816
0.0759752
0.0759635
0.0759576
0.0759423
0.0759376
0.0759179
0.075915
0.0758911
0.076714
0.0767139
0.0767143
0.0767148
0.0767141
0.076713
0.0767112
0.0767087
0.0767057
0.0767019
0.0766976
0.0766925
0.0766872
0.0766803
0.0766743
0.0766654
0.0766591
0.0766476
0.0766416
0.0766267
0.0766219
0.0766024
0.0765995
0.0765759
0.0774025
0.0774025
0.077403
0.0774035
0.0774029
0.0774019
0.0774001
0.0773978
0.0773948
0.0773912
0.077387
0.0773819
0.0773767
0.0773701
0.0773641
0.0773555
0.0773491
0.0773379
0.0773319
0.0773173
0.0773125
0.0772934
0.0772904
0.0772672
0.0780967
0.0780969
0.0780974
0.078098
0.0780975
0.0780966
0.0780949
0.0780926
0.0780897
0.0780862
0.0780822
0.0780773
0.0780722
0.0780657
0.0780598
0.0780514
0.0780451
0.0780342
0.0780282
0.078014
0.0780092
0.0779905
0.0779874
0.0779647
0.0787964
0.0787967
0.0787973
0.078798
0.0787975
0.0787967
0.0787951
0.078793
0.0787902
0.0787868
0.0787829
0.0787782
0.0787732
0.0787669
0.0787611
0.078753
0.0787468
0.0787363
0.0787303
0.0787165
0.0787117
0.0786935
0.0786904
0.0786682
0.0795013
0.0795017
0.0795023
0.0795031
0.0795028
0.079502
0.0795005
0.0794986
0.0794959
0.0794927
0.0794889
0.0794843
0.0794795
0.0794735
0.0794678
0.07946
0.0794539
0.0794438
0.0794379
0.0794246
0.0794197
0.079402
0.0793989
0.0793774
0.080211
0.0802117
0.0802123
0.0802132
0.0802129
0.0802123
0.080211
0.0802091
0.0802066
0.0802035
0.0801999
0.0801956
0.0801909
0.0801851
0.0801796
0.0801722
0.0801662
0.0801564
0.0801506
0.0801378
0.080133
0.0801159
0.0801128
0.080092
0.0809255
0.0809263
0.080927
0.0809279
0.0809278
0.0809273
0.080926
0.0809243
0.080922
0.0809191
0.0809157
0.0809115
0.0809071
0.0809016
0.0808962
0.0808891
0.0808833
0.080874
0.0808683
0.080856
0.0808513
0.0808349
0.0808318
0.0808116
0.0816442
0.0816452
0.081646
0.081647
0.081647
0.0816466
0.0816455
0.081644
0.0816418
0.0816391
0.0816358
0.0816319
0.0816277
0.0816225
0.0816173
0.0816106
0.0816049
0.0815961
0.0815905
0.0815788
0.0815742
0.0815585
0.0815554
0.0815361
0.082367
0.0823681
0.082369
0.0823702
0.0823702
0.08237
0.082369
0.0823676
0.0823656
0.0823631
0.0823601
0.0823564
0.0823524
0.0823475
0.0823426
0.0823362
0.0823308
0.0823224
0.082317
0.082306
0.0823014
0.0822864
0.0822834
0.082265
0.0830936
0.0830948
0.0830958
0.083097
0.0830972
0.0830971
0.0830963
0.0830951
0.0830932
0.083091
0.0830881
0.0830847
0.0830809
0.0830764
0.0830717
0.0830657
0.0830605
0.0830527
0.0830475
0.083037
0.0830326
0.0830184
0.0830154
0.082998
0.0838235
0.0838249
0.0838259
0.0838273
0.0838275
0.0838276
0.0838269
0.0838259
0.0838243
0.0838222
0.0838196
0.0838165
0.083813
0.0838087
0.0838043
0.0837988
0.0837938
0.0837865
0.0837815
0.0837717
0.0837675
0.0837541
0.0837512
0.0837347
0.0845565
0.084558
0.0845591
0.0845606
0.084561
0.0845612
0.0845607
0.0845599
0.0845585
0.0845566
0.0845543
0.0845514
0.0845481
0.0845442
0.0845401
0.084535
0.0845303
0.0845235
0.0845188
0.0845096
0.0845056
0.0844931
0.0844902
0.0844748
0.0852922
0.0852939
0.0852951
0.0852967
0.0852972
0.0852976
0.0852972
0.0852966
0.0852954
0.0852938
0.0852917
0.0852891
0.0852861
0.0852826
0.0852787
0.085274
0.0852696
0.0852634
0.0852589
0.0852505
0.0852466
0.085235
0.0852322
0.0852179
0.0860304
0.0860322
0.0860335
0.0860352
0.0860358
0.0860363
0.0860362
0.0860357
0.0860347
0.0860334
0.0860315
0.0860293
0.0860265
0.0860234
0.0860198
0.0860156
0.0860114
0.0860058
0.0860015
0.0859938
0.0859901
0.0859794
0.0859767
0.0859636
0.0867706
0.0867726
0.0867739
0.0867758
0.0867765
0.0867772
0.0867772
0.086777
0.0867762
0.0867751
0.0867735
0.0867715
0.0867691
0.0867663
0.086763
0.0867593
0.0867554
0.0867504
0.0867463
0.0867394
0.0867358
0.0867261
0.0867233
0.0867113
0.0875126
0.0875148
0.0875161
0.0875181
0.0875189
0.0875198
0.0875199
0.0875199
0.0875193
0.0875185
0.0875172
0.0875155
0.0875134
0.0875109
0.087508
0.0875047
0.0875011
0.0874969
0.0874928
0.087487
0.0874833
0.0874747
0.0874719
0.0874609
0.088256
0.0882584
0.0882597
0.0882619
0.0882627
0.0882638
0.0882641
0.0882643
0.0882639
0.0882633
0.0882622
0.0882608
0.088259
0.0882569
0.0882544
0.0882515
0.0882482
0.0882446
0.0882409
0.0882358
0.0882325
0.088225
0.0882224
0.0882129
0.0890005
0.0890031
0.0890043
0.0890068
0.0890076
0.089009
0.0890093
0.0890098
0.0890095
0.0890091
0.0890083
0.0890072
0.0890057
0.0890039
0.0890017
0.0889993
0.0889962
0.0889933
0.0889898
0.0889857
0.0889824
0.0889763
0.0889738
0.0889662
0.0897458
0.0897485
0.0897498
0.0897524
0.0897533
0.0897548
0.0897554
0.0897559
0.0897559
0.0897557
0.0897551
0.0897542
0.089753
0.0897515
0.0897496
0.0897475
0.0897449
0.0897423
0.089739
0.0897358
0.0897325
0.0897273
0.0897251
0.0897186
0.0904916
0.0904944
0.090496
0.0904984
0.0904997
0.0905011
0.0905019
0.0905025
0.0905028
0.0905027
0.0905024
0.0905017
0.0905007
0.0904994
0.0904978
0.0904959
0.0904936
0.0904913
0.0904884
0.0904855
0.0904823
0.0904781
0.0904756
0.09047
0.0912377
0.0912406
0.0912423
0.0912447
0.0912462
0.0912477
0.0912487
0.0912494
0.0912498
0.09125
0.0912498
0.0912493
0.0912485
0.0912474
0.091246
0.0912444
0.0912424
0.0912402
0.0912376
0.0912348
0.0912319
0.091228
0.0912254
0.0912203
0.0919837
0.0919867
0.0919885
0.091991
0.0919926
0.0919942
0.0919954
0.0919963
0.0919969
0.0919972
0.0919972
0.0919969
0.0919963
0.0919954
0.0919942
0.0919928
0.0919909
0.0919889
0.0919864
0.0919838
0.0919809
0.0919771
0.0919744
0.0919694
0.0927294
0.0927325
0.0927344
0.092737
0.0927387
0.0927405
0.0927418
0.0927429
0.0927437
0.0927442
0.0927444
0.0927443
0.0927439
0.0927433
0.0927422
0.092741
0.0927392
0.0927374
0.0927349
0.0927323
0.0927295
0.0927255
0.0927227
0.0927173
0.0934744
0.0934776
0.0934796
0.0934823
0.0934842
0.0934861
0.0934876
0.0934889
0.09349
0.0934907
0.0934912
0.0934914
0.0934913
0.0934909
0.0934901
0.0934891
0.0934876
0.0934859
0.0934835
0.0934809
0.093478
0.0934737
0.0934707
0.0934644
0.0942183
0.0942215
0.0942237
0.0942265
0.0942286
0.0942307
0.0942324
0.094234
0.0942353
0.0942364
0.0942373
0.0942379
0.0942382
0.0942382
0.0942378
0.0942372
0.0942361
0.0942347
0.0942327
0.0942303
0.0942274
0.0942231
0.0942197
0.0942123
0.0949604
0.0949638
0.0949661
0.0949691
0.0949714
0.0949737
0.0949758
0.0949777
0.0949794
0.0949809
0.0949822
0.0949833
0.0949841
0.0949847
0.0949849
0.094985
0.0949844
0.094984
0.0949824
0.0949812
0.0949785
0.0949754
0.0949719
0.0949656
0.0957003
0.095704
0.095706
0.0957097
0.0957118
0.0957147
0.0957169
0.0957193
0.0957214
0.0957234
0.0957253
0.0957269
0.0957284
0.0957298
0.0957306
0.0957322
0.0957313
0.0957339
0.0957308
0.0957338
0.0957296
0.095731
0.0957272
0.0957257
0.0964372
0.0964411
0.0964432
0.096447
0.0964494
0.0964526
0.0964553
0.0964581
0.0964607
0.0964633
0.0964657
0.0964681
0.0964703
0.0964725
0.0964744
0.0964767
0.0964772
0.0964808
0.0964791
0.0964837
0.0964806
0.0964847
0.0964816
0.0964842
0.0971704
0.0971744
0.0971767
0.0971805
0.0971834
0.0971868
0.09719
0.0971932
0.0971963
0.0971995
0.0972027
0.0972058
0.0972089
0.0972119
0.0972149
0.097218
0.0972202
0.0972244
0.0972247
0.0972304
0.0972291
0.0972352
0.0972334
0.0972389
0.097899
0.097903
0.0979056
0.0979096
0.0979128
0.0979165
0.09792
0.0979237
0.0979275
0.0979313
0.0979351
0.097939
0.097943
0.097947
0.097951
0.0979551
0.0979586
0.097964
0.0979658
0.0979732
0.0979731
0.0979817
0.0979804
0.0979901
0.0986222
0.0986264
0.0986291
0.0986332
0.0986367
0.0986407
0.0986448
0.0986489
0.0986532
0.0986577
0.0986622
0.0986669
0.0986717
0.0986767
0.0986817
0.0986869
0.0986917
0.0986984
0.0987016
0.0987105
0.0987117
0.0987227
0.0987222
0.0987352
0.0993393
0.0993435
0.0993464
0.0993507
0.0993545
0.0993588
0.0993632
0.0993679
0.0993727
0.0993778
0.0993831
0.0993885
0.0993942
0.0994001
0.0994061
0.0994124
0.0994184
0.0994263
0.0994308
0.0994415
0.0994438
0.0994571
0.0994574
0.0994735
0.100049
0.100054
0.100057
0.100061
0.100065
0.10007
0.100075
0.10008
0.100085
0.100091
0.100097
0.100103
0.10011
0.100116
0.100123
0.100131
0.100138
0.100147
0.100153
0.100165
0.100168
0.100184
0.100185
0.100204
0.100752
0.100756
0.100759
0.100764
0.100768
0.100773
0.100779
0.100784
0.10079
0.100796
0.100803
0.10081
0.100817
0.100825
0.100833
0.100841
0.100849
0.10086
0.100866
0.10088
0.100885
0.100902
0.100904
0.100926
0.101446
0.101451
0.101454
0.101459
0.101463
0.101468
0.101474
0.10148
0.101486
0.101493
0.1015
0.101508
0.101516
0.101524
0.101533
0.101542
0.101552
0.101563
0.101571
0.101586
0.101592
0.101611
0.101614
0.101639
0.102132
0.102136
0.102139
0.102144
0.102149
0.102155
0.10216
0.102167
0.102174
0.102181
0.102189
0.102197
0.102206
0.102215
0.102224
0.102235
0.102245
0.102257
0.102266
0.102283
0.102289
0.102311
0.102313
0.102341
0.102808
0.102812
0.102816
0.102821
0.102826
0.102831
0.102837
0.102844
0.102851
0.102859
0.102867
0.102876
0.102885
0.102895
0.102906
0.102917
0.102928
0.102941
0.102951
0.102969
0.102976
0.102999
0.103003
0.103032
0.103474
0.103478
0.103482
0.103487
0.103492
0.103498
0.103504
0.103511
0.103519
0.103527
0.103536
0.103545
0.103555
0.103566
0.103577
0.103588
0.103601
0.103615
0.103626
0.103644
0.103652
0.103677
0.103681
0.103713
0.10413
0.104134
0.104138
0.104143
0.104148
0.104154
0.104161
0.104168
0.104176
0.104185
0.104194
0.104204
0.104214
0.104225
0.104237
0.104249
0.104262
0.104277
0.104289
0.104308
0.104317
0.104343
0.104347
0.104381
0.104775
0.104779
0.104783
0.104788
0.104793
0.1048
0.104806
0.104814
0.104822
0.104831
0.104841
0.104851
0.104862
0.104873
0.104886
0.104899
0.104912
0.104928
0.10494
0.104961
0.10497
0.104997
0.105002
0.105038
0.105409
0.105413
0.105417
0.105422
0.105428
0.105434
0.105441
0.105449
0.105457
0.105466
0.105476
0.105487
0.105498
0.10551
0.105523
0.105537
0.105551
0.105567
0.10558
0.105601
0.105611
0.105639
0.105645
0.105682
0.106032
0.106036
0.10604
0.106045
0.10605
0.106057
0.106064
0.106072
0.10608
0.10609
0.1061
0.106111
0.106123
0.106135
0.106148
0.106162
0.106177
0.106193
0.106207
0.106229
0.10624
0.106269
0.106275
0.106313
0.106643
0.106647
0.10665
0.106656
0.106661
0.106668
0.106675
0.106683
0.106692
0.106701
0.106712
0.106723
0.106735
0.106748
0.106761
0.106776
0.106791
0.106808
0.106822
0.106844
0.106856
0.106885
0.106891
0.106931
0.107241
0.107245
0.107249
0.107254
0.10726
0.107266
0.107274
0.107282
0.107291
0.107301
0.107311
0.107322
0.107335
0.107348
0.107362
0.107376
0.107392
0.107409
0.107424
0.107446
0.107458
0.107489
0.107495
0.107535
0.107828
0.107831
0.107835
0.10784
0.107846
0.107852
0.10786
0.107868
0.107877
0.107887
0.107898
0.107909
0.107922
0.107935
0.107949
0.107964
0.10798
0.107997
0.108012
0.108035
0.108047
0.108078
0.108085
0.108126
0.108401
0.108404
0.108408
0.108413
0.108419
0.108425
0.108433
0.108441
0.10845
0.10846
0.108471
0.108482
0.108495
0.108508
0.108523
0.108538
0.108554
0.108571
0.108587
0.10861
0.108622
0.108653
0.10866
0.108701
0.10896
0.108964
0.108968
0.108972
0.108978
0.108985
0.108992
0.109
0.109009
0.109019
0.10903
0.109042
0.109054
0.109068
0.109082
0.109097
0.109113
0.109131
0.109147
0.10917
0.109183
0.109214
0.109221
0.109262
0.109506
0.109509
0.109513
0.109518
0.109523
0.10953
0.109537
0.109545
0.109554
0.109564
0.109575
0.109587
0.109599
0.109613
0.109627
0.109642
0.109658
0.109676
0.109692
0.109715
0.109728
0.109759
0.109766
0.109808
0.110036
0.11004
0.110043
0.110048
0.110053
0.11006
0.110067
0.110075
0.110084
0.110094
0.110105
0.110116
0.110129
0.110142
0.110157
0.110172
0.110188
0.110205
0.110222
0.110244
0.110257
0.110288
0.110295
0.110336
0.110551
0.110554
0.110558
0.110562
0.110568
0.110574
0.110581
0.110589
0.110598
0.110608
0.110618
0.11063
0.110642
0.110655
0.11067
0.110685
0.110701
0.110718
0.110734
0.110756
0.11077
0.110799
0.110807
0.110848
0.111049
0.111052
0.111055
0.11106
0.111065
0.111071
0.111078
0.111086
0.111095
0.111104
0.111115
0.111126
0.111138
0.111151
0.111165
0.11118
0.111196
0.111213
0.111229
0.11125
0.111264
0.111293
0.111301
0.111341
0.111529
0.111532
0.111535
0.111539
0.111544
0.11155
0.111557
0.111565
0.111573
0.111583
0.111593
0.111604
0.111616
0.111629
0.111642
0.111657
0.111672
0.111689
0.111705
0.111725
0.111739
0.111767
0.111776
0.111814
0.11199
0.111992
0.111995
0.111999
0.112004
0.11201
0.112017
0.112024
0.112032
0.112041
0.112051
0.112062
0.112073
0.112086
0.112099
0.112113
0.112128
0.112144
0.11216
0.11218
0.112194
0.11222
0.112229
0.112266
0.112429
0.112432
0.112435
0.112438
0.112443
0.112449
0.112455
0.112462
0.11247
0.112479
0.112488
0.112498
0.11251
0.112522
0.112534
0.112548
0.112562
0.112578
0.112593
0.112612
0.112626
0.112651
0.11266
0.112695
0.112846
0.112849
0.112851
0.112855
0.112859
0.112864
0.11287
0.112877
0.112885
0.112893
0.112902
0.112912
0.112923
0.112934
0.112946
0.112959
0.112973
0.112988
0.113003
0.11302
0.113034
0.113058
0.113066
0.1131
0.113239
0.113241
0.113243
0.113247
0.113251
0.113256
0.113261
0.113268
0.113275
0.113282
0.113291
0.1133
0.113311
0.113321
0.113333
0.113345
0.113358
0.113372
0.113386
0.113403
0.113416
0.113438
0.113446
0.113478
0.113605
0.113607
0.113609
0.113612
0.113616
0.11362
0.113625
0.113631
0.113638
0.113645
0.113653
0.113662
0.113671
0.113682
0.113692
0.113704
0.113716
0.113729
0.113742
0.113758
0.11377
0.11379
0.113799
0.113828
0.113942
0.113944
0.113946
0.113949
0.113952
0.113957
0.113961
0.113967
0.113973
0.11398
0.113987
0.113995
0.114004
0.114013
0.114023
0.114034
0.114045
0.114057
0.114069
0.114083
0.114095
0.114113
0.114121
0.114148
0.11425
0.114252
0.114254
0.114256
0.114259
0.114263
0.114267
0.114272
0.114278
0.114284
0.114291
0.114298
0.114306
0.114315
0.114324
0.114333
0.114344
0.114354
0.114365
0.114378
0.114389
0.114405
0.114413
0.114437
0.114527
0.114529
0.11453
0.114533
0.114535
0.114539
0.114543
0.114547
0.114552
0.114557
0.114563
0.11457
0.114577
0.114585
0.114593
0.114601
0.114611
0.11462
0.11463
0.114642
0.114651
0.114666
0.114673
0.114694
0.114773
0.114774
0.114775
0.114777
0.11478
0.114783
0.114786
0.11479
0.114794
0.114799
0.114804
0.11481
0.114817
0.114823
0.11483
0.114838
0.114846
0.114855
0.114863
0.114873
0.114882
0.114894
0.114901
0.114919
0.114987
0.114988
0.114989
0.114991
0.114993
0.114995
0.114998
0.115002
0.115005
0.115009
0.115014
0.115019
0.115024
0.11503
0.115036
0.115043
0.11505
0.115057
0.115065
0.115073
0.115081
0.115092
0.115097
0.115113
0.11517
0.115171
0.115172
0.115173
0.115175
0.115177
0.11518
0.115182
0.115186
0.115189
0.115193
0.115197
0.115202
0.115207
0.115212
0.115218
0.115224
0.11523
0.115236
0.115243
0.11525
0.115259
0.115264
0.115276
0.115324
0.115325
0.115326
0.115327
0.115328
0.11533
0.115332
0.115334
0.115337
0.11534
0.115343
0.115347
0.11535
0.115355
0.115359
0.115364
0.115368
0.115374