/*--------------------------------*- C++ -*----------------------------------*\
  =========                 |
  \\      /  F ield         | OpenFOAM: The Open Source CFD Toolbox
   \\    /   O peration     | Website:  https://openfoam.org
    \\  /    A nd           | Version:  10
     \\/     M anipulation  |
\*---------------------------------------------------------------------------*/
FoamFile
{
    format      ascii;
    class       volScalarField;
    location    "0.02";
    object      T;
}
// * * * * * * * * * * * * * * * * * * * * * * * * * * * * * * * * * * * * * //

dimensions      [0 0 0 1 0 0 0];

internalField   nonuniform List<scalar> 
4176
(
224.533
224.555
224.557
224.558
224.563
224.567
224.574
224.58
224.59
224.598
224.611
224.621
224.635
224.649
224.665
224.682
224.698
224.721
224.736
224.767
224.776
224.818
224.821
224.869
226.411
226.433
226.435
226.436
226.441
226.446
226.454
226.46
226.472
226.48
226.494
226.504
226.52
226.534
226.552
226.57
226.588
226.611
226.63
226.66
226.674
226.717
226.724
226.78
227.024
227.045
227.047
227.049
227.054
227.059
227.067
227.074
227.085
227.093
227.108
227.118
227.135
227.149
227.167
227.185
227.204
227.227
227.247
227.275
227.294
227.334
227.346
227.408
227.741
227.762
227.764
227.766
227.771
227.776
227.785
227.791
227.803
227.811
227.825
227.836
227.853
227.866
227.885
227.902
227.922
227.944
227.963
227.993
228.009
228.05
228.06
228.119
228.388
228.409
228.411
228.413
228.418
228.423
228.431
228.438
228.449
228.457
228.472
228.482
228.499
228.512
228.53
228.547
228.566
228.589
228.606
228.637
228.65
228.691
228.7
228.754
229.045
229.067
229.069
229.071
229.076
229.08
229.089
229.095
229.106
229.115
229.128
229.139
229.155
229.168
229.186
229.202
229.221
229.243
229.26
229.29
229.303
229.343
229.351
229.403
229.649
229.67
229.672
229.674
229.679
229.684
229.692
229.698
229.709
229.717
229.73
229.741
229.756
229.769
229.786
229.803
229.821
229.842
229.859
229.887
229.9
229.938
229.946
229.997
230.268
230.29
230.292
230.293
230.298
230.303
230.31
230.317
230.327
230.336
230.348
230.359
230.373
230.386
230.402
230.418
230.436
230.456
230.473
230.499
230.513
230.549
230.557
230.606
230.84
230.861
230.863
230.865
230.869
230.874
230.881
230.888
230.896
230.906
230.917
230.928
230.941
230.955
230.97
230.986
231.002
231.022
231.038
231.064
231.076
231.111
231.119
231.166
231.431
231.452
231.454
231.456
231.459
231.465
231.471
231.478
231.486
231.496
231.505
231.517
231.529
231.543
231.557
231.572
231.588
231.607
231.622
231.647
231.659
231.693
231.701
231.746
231.979
232
232.001
232.004
232.007
232.013
232.017
232.026
232.032
232.042
232.051
232.063
232.074
232.087
232.1
232.116
232.13
232.149
232.163
232.187
232.199
232.231
232.238
232.281
232.549
232.571
232.572
232.574
232.577
232.583
232.587
232.595
232.602
232.611
232.62
232.631
232.641
232.654
232.667
232.681
232.696
232.713
232.727
232.75
232.761
232.792
232.799
232.84
233.081
233.102
233.103
233.105
233.108
233.113
233.118
233.125
233.132
233.14
233.149
233.159
233.17
233.182
233.194
233.208
233.222
233.238
233.252
233.273
233.284
233.313
233.32
233.359
233.637
233.658
233.659
233.661
233.664
233.669
233.674
233.68
233.687
233.695
233.703
233.713
233.723
233.734
233.746
233.759
233.773
233.788
233.801
233.822
233.832
233.86
233.867
233.904
234.157
234.178
234.179
234.181
234.184
234.188
234.193
234.199
234.205
234.212
234.221
234.229
234.24
234.25
234.262
234.273
234.287
234.301
234.314
234.333
234.343
234.369
234.376
234.411
234.704
234.724
234.726
234.727
234.73
234.734
234.739
234.744
234.751
234.758
234.765
234.774
234.783
234.793
234.804
234.815
234.828
234.841
234.854
234.872
234.881
234.906
234.912
234.946
235.216
235.237
235.238
235.239
235.242
235.245
235.25
235.255
235.261
235.268
235.276
235.283
235.292
235.301
235.312
235.322
235.334
235.347
235.359
235.375
235.385
235.408
235.414
235.445
235.758
235.778
235.779
235.78
235.783
235.786
235.791
235.795
235.802
235.807
235.815
235.822
235.831
235.839
235.849
235.859
235.87
235.882
235.893
235.909
235.918
235.94
235.946
235.975
236.265
236.285
236.286
236.287
236.29
236.292
236.298
236.301
236.308
236.312
236.32
236.326
236.335
236.342
236.352
236.361
236.372
236.383
236.393
236.408
236.416
236.437
236.443
236.47
236.803
236.823
236.824
236.825
236.828
236.83
236.836
236.838
236.845
236.849
236.857
236.861
236.871
236.877
236.887
236.895
236.905
236.915
236.925
236.939
236.947
236.966
236.971
236.997
237.309
237.329
237.33
237.33
237.333
237.335
237.34
237.342
237.349
237.352
237.36
237.364
237.373
237.378
237.388
237.395
237.405
237.414
237.423
237.436
237.444
237.461
237.466
237.49
237.848
237.868
237.869
237.869
237.872
237.874
237.879
237.88
237.887
237.889
237.898
237.9
237.91
237.913
237.924
237.929
237.939
237.947
237.956
237.967
237.975
237.991
237.996
238.018
238.353
238.372
238.373
238.373
238.376
238.377
238.382
238.384
238.39
238.392
238.4
238.402
238.411
238.414
238.424
238.428
238.438
238.445
238.454
238.463
238.471
238.485
238.491
238.511
238.893
238.912
238.913
238.914
238.916
238.917
238.922
238.923
238.93
238.931
238.939
238.94
238.949
238.951
238.961
238.964
238.974
238.979
238.989
238.996
239.004
239.017
239.022
239.04
239.399
239.418
239.419
239.42
239.422
239.423
239.427
239.428
239.434
239.435
239.443
239.443
239.452
239.453
239.463
239.465
239.475
239.478
239.488
239.494
239.502
239.513
239.518
239.534
239.946
239.964
239.965
239.966
239.967
239.969
239.972
239.974
239.979
239.979
239.987
239.987
239.996
239.996
240.006
240.006
240.016
240.019
240.028
240.033
240.041
240.05
240.055
240.07
240.452
240.471
240.471
240.472
240.473
240.475
240.478
240.479
240.484
240.484
240.491
240.491
240.499
240.499
240.508
240.508
240.518
240.519
240.528
240.532
240.539
240.547
240.552
240.565
241.003
241.022
241.022
241.023
241.024
241.025
241.028
241.029
241.033
241.034
241.04
241.04
241.047
241.047
241.055
241.055
241.064
241.065
241.073
241.076
241.083
241.09
241.094
241.105
241.515
241.533
241.533
241.533
241.535
241.536
241.538
241.54
241.543
241.544
241.549
241.548
241.555
241.554
241.562
241.561
241.57
241.57
241.578
241.58
241.586
241.592
241.596
241.605
242.074
242.092
242.093
242.093
242.094
242.095
242.097
242.098
242.102
242.102
242.107
242.106
242.112
242.111
242.118
242.117
242.125
242.124
242.132
242.133
242.139
242.144
242.147
242.155
242.584
242.602
242.602
242.602
242.603
242.604
242.606
242.607
242.61
242.61
242.614
242.613
242.619
242.617
242.624
242.622
242.629
242.628
242.635
242.635
242.641
242.644
242.648
242.654
243.156
243.173
243.173
243.174
243.174
243.175
243.177
243.178
243.18
243.18
243.184
243.183
243.188
243.186
243.192
243.19
243.196
243.195
243.2
243.2
243.205
243.207
243.21
243.215
243.671
243.689
243.689
243.689
243.69
243.691
243.692
243.692
243.694
243.694
243.697
243.696
243.701
243.699
243.704
243.702
243.707
243.705
243.71
243.709
243.713
243.715
243.718
243.721
244.249
244.266
244.267
244.267
244.267
244.268
244.269
244.27
244.271
244.271
244.274
244.273
244.276
244.274
244.279
244.276
244.281
244.278
244.283
244.282
244.286
244.286
244.289
244.291
244.765
244.782
244.782
244.782
244.782
244.783
244.784
244.784
244.785
244.785
244.787
244.786
244.788
244.786
244.79
244.787
244.791
244.788
244.792
244.789
244.792
244.791
244.794
244.793
245.367
245.384
245.384
245.384
245.384
245.385
245.386
245.386
245.387
245.386
245.388
245.387
245.389
245.387
245.39
245.386
245.39
245.386
245.39
245.386
245.389
245.387
245.39
245.388
245.873
245.889
245.889
245.889
245.889
245.89
245.89
245.89
245.891
245.89
245.891
245.89
245.892
245.889
245.892
245.888
245.891
245.887
245.891
245.886
245.889
245.886
245.888
245.886
246.492
246.508
246.508
246.508
246.508
246.509
246.509
246.509
246.509
246.508
246.509
246.507
246.508
246.505
246.507
246.503
246.506
246.501
246.503
246.498
246.501
246.497
246.499
246.494
247.005
247.021
247.021
247.021
247.021
247.021
247.021
247.021
247.021
247.02
247.02
247.018
247.019
247.016
247.017
247.013
247.015
247.01
247.012
247.006
247.008
247.002
247.004
246.998
247.639
247.654
247.654
247.654
247.654
247.654
247.654
247.654
247.654
247.653
247.653
247.651
247.652
247.648
247.65
247.645
247.647
247.642
247.644
247.638
247.64
247.634
247.636
247.629
248.133
248.148
248.147
248.147
248.147
248.147
248.146
248.146
248.145
248.144
248.143
248.141
248.141
248.137
248.137
248.132
248.133
248.127
248.128
248.121
248.122
248.115
248.116
248.107
248.831
248.846
248.846
248.846
248.846
248.846
248.846
248.845
248.845
248.844
248.843
248.841
248.841
248.837
248.837
248.832
248.833
248.826
248.827
248.82
248.821
248.814
248.815
248.806
249.259
249.274
249.273
249.273
249.272
249.272
249.271
249.27
249.269
249.268
249.267
249.264
249.263
249.259
249.259
249.254
249.254
249.247
249.247
249.24
249.24
249.232
249.233
249.223
250.036
250.051
250.051
250.051
250.051
250.051
250.05
250.049
250.049
250.047
250.046
250.043
250.042
250.038
250.037
250.031
250.031
250.024
250.024
250.015
250.015
250.006
250.007
249.995
250.431
250.445
250.445
250.444
250.444
250.443
250.442
250.441
250.44
250.438
250.437
250.434
250.432
250.428
250.427
250.421
250.42
250.413
250.412
250.404
250.403
250.394
250.394
250.382
251.22
251.234
251.234
251.234
251.233
251.233
251.232
251.231
251.23
251.228
251.226
251.223
251.222
251.217
251.216
251.21
251.209
251.201
251.2
251.191
251.191
251.18
251.181
251.167
251.659
251.672
251.672
251.672
251.671
251.671
251.67
251.668
251.667
251.665
251.663
251.66
251.658
251.653
251.651
251.645
251.644
251.636
251.635
251.625
251.624
251.613
251.614
251.599
252.397
252.41
252.41
252.409
252.409
252.408
252.407
252.406
252.404
252.402
252.4
252.397
252.395
252.39
252.388
252.382
252.38
252.372
252.37
252.36
252.359
252.348
252.348
252.333
252.914
252.927
252.927
252.927
252.926
252.926
252.925
252.923
252.922
252.919
252.917
252.914
252.911
252.906
252.904
252.897
252.895
252.887
252.885
252.875
252.874
252.862
252.862
252.846
253.595
253.608
253.607
253.607
253.606
253.606
253.605
253.603
253.601
253.599
253.597
253.593
253.591
253.586
253.583
253.576
253.574
253.565
253.563
253.553
253.551
253.54
253.539
253.523
254.176
254.189
254.189
254.188
254.187
254.187
254.186
254.184
254.182
254.18
254.178
254.174
254.171
254.166
254.163
254.157
254.154
254.145
254.143
254.132
254.13
254.118
254.118
254.101
254.825
254.838
254.837
254.837
254.836
254.836
254.834
254.833
254.831
254.828
254.826
254.822
254.819
254.814
254.811
254.804
254.801
254.793
254.79
254.779
254.777
254.765
254.764
254.747
255.443
255.455
255.454
255.454
255.453
255.453
255.452
255.45
255.448
255.445
255.443
255.439
255.436
255.431
255.428
255.421
255.418
255.409
255.406
255.395
255.393
255.38
255.38
255.362
256.084
256.096
256.095
256.095
256.094
256.094
256.092
256.091
256.089
256.086
256.084
256.08
256.077
256.071
256.068
256.061
256.058
256.049
256.046
256.035
256.033
256.02
256.019
256
256.719
256.731
256.731
256.73
256.73
256.729
256.728
256.726
256.724
256.721
256.719
256.715
256.712
256.707
256.703
256.696
256.693
256.684
256.68
256.67
256.667
256.654
256.653
256.634
257.364
257.375
257.375
257.375
257.374
257.373
257.372
257.37
257.368
257.366
257.363
257.359
257.356
257.351
257.347
257.34
257.336
257.328
257.324
257.313
257.31
257.298
257.297
257.277
258.01
258.021
258.021
258.021
258.02
258.02
258.018
258.017
258.015
258.012
258.009
258.006
258.002
257.997
257.993
257.987
257.983
257.974
257.97
257.959
257.956
257.943
257.942
257.923
258.662
258.672
258.672
258.672
258.671
258.671
258.67
258.668
258.666
258.663
258.661
258.657
258.653
258.648
258.645
258.638
258.634
258.625
258.622
258.611
258.608
258.595
258.594
258.574
259.317
259.327
259.327
259.327
259.326
259.326
259.325
259.323
259.321
259.318
259.316
259.312
259.308
259.304
259.3
259.293
259.289
259.281
259.277
259.266
259.263
259.25
259.249
259.229
259.976
259.986
259.986
259.986
259.985
259.985
259.983
259.982
259.98
259.977
259.975
259.971
259.968
259.963
259.959
259.952
259.948
259.94
259.936
259.925
259.922
259.909
259.908
259.889
260.638
260.648
260.648
260.648
260.647
260.647
260.646
260.644
260.643
260.64
260.637
260.634
260.63
260.626
260.622
260.616
260.611
260.603
260.599
260.589
260.585
260.573
260.572
260.552
261.304
261.314
261.314
261.314
261.313
261.313
261.312
261.311
261.309
261.306
261.304
261.3
261.297
261.292
261.288
261.282
261.278
261.27
261.266
261.256
261.253
261.24
261.239
261.22
261.974
261.983
261.983
261.983
261.983
261.983
261.982
261.98
261.978
261.976
261.974
261.97
261.967
261.963
261.959
261.953
261.948
261.941
261.937
261.927
261.923
261.911
261.91
261.891
262.646
262.656
262.656
262.656
262.656
262.655
262.654
262.653
262.651
262.649
262.647
262.644
262.64
262.636
262.632
262.627
262.622
262.615
262.611
262.601
262.598
262.586
262.585
262.566
263.322
263.331
263.331
263.331
263.331
263.331
263.33
263.329
263.327
263.325
263.323
263.32
263.317
263.313
263.309
263.304
263.299
263.293
263.288
263.279
263.276
263.264
263.263
263.245
264.001
264.009
264.01
264.01
264.01
264.01
264.009
264.008
264.007
264.005
264.002
264
263.996
263.993
263.989
263.984
263.98
263.973
263.969
263.96
263.957
263.946
263.945
263.927
264.682
264.691
264.691
264.691
264.691
264.691
264.691
264.69
264.688
264.687
264.684
264.682
264.679
264.675
264.672
264.667
264.663
264.657
264.653
264.644
264.641
264.63
264.629
264.612
265.366
265.374
265.375
265.375
265.375
265.375
265.375
265.374
265.373
265.371
265.369
265.367
265.364
265.361
265.357
265.353
265.349
265.343
265.339
265.331
265.328
265.318
265.317
265.3
266.052
266.06
266.061
266.061
266.062
266.062
266.061
266.061
266.06
266.058
266.056
266.054
266.051
266.048
266.045
266.041
266.037
266.032
266.028
266.02
266.017
266.008
266.007
265.991
266.741
266.748
266.749
266.75
266.75
266.75
266.75
266.75
266.749
266.747
266.746
266.744
266.741
266.738
266.735
266.731
266.728
266.723
266.719
266.712
266.709
266.7
266.7
266.684
267.431
267.439
267.439
267.44
267.44
267.441
267.441
267.44
267.44
267.439
267.437
267.435
267.433
267.43
267.428
267.424
267.421
267.416
267.413
267.406
267.403
267.395
267.394
267.379
268.123
268.13
268.131
268.132
268.133
268.133
268.133
268.133
268.132
268.131
268.13
268.129
268.127
268.124
268.122
268.118
268.116
268.111
268.108
268.102
268.099
268.092
268.091
268.077
268.817
268.824
268.825
268.826
268.826
268.827
268.827
268.827
268.827
268.826
268.825
268.824
268.822
268.82
268.818
268.815
268.812
268.808
268.805
268.8
268.797
268.79
268.79
268.776
269.512
269.519
269.519
269.521
269.521
269.522
269.523
269.523
269.522
269.522
269.521
269.52
269.519
269.517
269.515
269.512
269.51
269.506
269.504
269.499
269.497
269.49
269.49
269.477
270.208
270.214
270.215
270.217
270.218
270.219
270.219
270.219
270.219
270.219
270.219
270.218
270.216
270.215
270.213
270.211
270.209
270.206
270.204
270.199
270.197
270.192
270.191
270.18
270.905
270.911
270.912
270.914
270.915
270.916
270.916
270.917
270.917
270.917
270.917
270.916
270.915
270.914
270.913
270.911
270.909
270.907
270.904
270.901
270.899
270.894
270.894
270.883
271.602
271.609
271.61
271.611
271.612
271.614
271.615
271.615
271.616
271.616
271.616
271.616
271.615
271.614
271.613
271.612
271.61
271.608
271.606
271.603
271.601
271.597
271.598
271.588
272.3
272.307
272.308
272.31
272.311
272.312
272.313
272.314
272.315
272.315
272.315
272.315
272.315
272.315
272.314
272.313
272.312
272.31
272.308
272.306
272.305
272.301
272.301
272.293
272.999
273.005
273.006
273.008
273.009
273.011
273.012
273.013
273.014
273.015
273.015
273.016
273.016
273.015
273.015
273.014
273.014
273.012
273.011
273.009
273.008
273.006
273.006
272.998
273.697
273.703
273.704
273.706
273.708
273.709
273.711
273.712
273.713
273.714
273.715
273.716
273.716
273.716
273.716
273.716
273.716
273.715
273.714
273.713
273.712
273.711
273.711
273.704
274.395
274.401
274.403
274.404
274.406
274.408
274.41
274.411
274.413
274.414
274.415
274.416
274.417
274.417
274.418
274.418
274.418
274.418
274.418
274.417
274.417
274.416
274.417
274.411
275.093
275.098
275.1
275.102
275.104
275.106
275.108
275.11
275.111
275.113
275.114
275.116
275.117
275.118
275.119
275.119
275.12
275.12
275.121
275.121
275.121
275.122
275.122
275.119
275.79
275.795
275.797
275.8
275.801
275.804
275.806
275.808
275.81
275.811
275.813
275.815
275.816
275.818
275.819
275.82
275.821
275.822
275.823
275.824
275.824
275.826
275.827
275.825
276.486
276.491
276.493
276.496
276.498
276.5
276.502
276.505
276.507
276.509
276.511
276.513
276.515
276.517
276.518
276.52
276.521
276.523
276.524
276.527
276.527
276.53
276.531
276.53
277.181
277.186
277.188
277.191
277.193
277.196
277.198
277.201
277.203
277.205
277.208
277.21
277.212
277.215
277.217
277.219
277.221
277.223
277.224
277.228
277.228
277.233
277.233
277.235
277.875
277.88
277.882
277.885
277.887
277.89
277.893
277.895
277.898
277.901
277.903
277.906
277.909
277.911
277.914
277.916
277.919
277.922
277.923
277.927
277.928
277.934
277.934
277.937
278.567
278.572
278.574
278.577
278.58
278.583
278.586
278.589
278.592
278.594
278.597
278.6
278.603
278.606
278.609
278.613
278.615
278.619
278.621
278.626
278.626
278.633
278.633
278.638
279.257
279.262
279.265
279.268
279.271
279.274
279.277
279.28
279.283
279.287
279.29
279.293
279.297
279.3
279.303
279.307
279.31
279.315
279.316
279.322
279.323
279.331
279.331
279.336
279.946
279.951
279.953
279.956
279.959
279.963
279.966
279.969
279.973
279.977
279.98
279.984
279.988
279.992
279.996
280
280.003
280.009
280.011
280.018
280.018
280.027
280.027
280.033
280.631
280.636
280.638
280.642
280.645
280.649
280.653
280.656
280.66
280.664
280.668
280.673
280.677
280.682
280.686
280.691
280.695
280.702
280.704
280.712
280.713
280.723
280.723
280.731
281.314
281.319
281.321
281.325
281.328
281.332
281.336
281.34
281.345
281.349
281.354
281.359
281.364
281.369
281.374
281.379
281.384
281.391
281.395
281.404
281.405
281.417
281.418
281.428
281.993
281.998
282
282.004
282.008
282.012
282.016
282.021
282.026
282.031
282.036
282.041
282.047
282.052
282.058
282.065
282.07
282.079
282.082
282.094
282.095
282.11
282.11
282.124
282.668
282.673
282.676
282.68
282.684
282.688
282.693
282.698
282.703
282.708
282.714
282.72
282.726
282.732
282.739
282.746
282.753
282.762
282.767
282.779
282.782
282.798
282.8
282.815
283.339
283.344
283.347
283.351
283.355
283.36
283.365
283.37
283.375
283.381
283.387
283.394
283.401
283.408
283.415
283.423
283.431
283.441
283.447
283.46
283.464
283.482
283.484
283.502
284.005
284.01
284.013
284.017
284.021
284.026
284.031
284.037
284.043
284.049
284.056
284.063
284.071
284.079
284.087
284.095
284.104
284.115
284.122
284.136
284.141
284.16
284.162
284.183
284.665
284.67
284.673
284.678
284.682
284.688
284.693
284.699
284.705
284.712
284.719
284.727
284.735
284.744
284.752
284.762
284.771
284.783
284.791
284.806
284.812
284.833
284.836
284.859
285.32
285.325
285.328
285.333
285.338
285.343
285.349
285.355
285.362
285.369
285.377
285.385
285.393
285.403
285.412
285.422
285.433
285.445
285.454
285.471
285.476
285.499
285.502
285.528
285.969
285.974
285.977
285.982
285.987
285.992
285.998
286.005
286.012
286.02
286.028
286.036
286.046
286.055
286.066
286.076
286.087
286.101
286.11
286.128
286.135
286.159
286.162
286.19
286.611
286.616
286.619
286.624
286.629
286.635
286.641
286.648
286.656
286.664
286.672
286.681
286.691
286.701
286.712
286.724
286.735
286.749
286.76
286.778
286.785
286.811
286.815
286.845
287.247
287.251
287.255
287.26
287.265
287.271
287.277
287.284
287.292
287.3
287.309
287.319
287.329
287.34
287.351
287.363
287.376
287.39
287.402
287.421
287.429
287.455
287.46
287.491
287.875
287.88
287.883
287.888
287.893
287.899
287.906
287.913
287.921
287.93
287.939
287.949
287.96
287.971
287.983
287.996
288.009
288.024
288.036
288.056
288.065
288.092
288.097
288.13
288.496
288.5
288.504
288.509
288.514
288.521
288.527
288.535
288.543
288.552
288.562
288.572
288.583
288.595
288.607
288.62
288.634
288.65
288.662
288.683
288.692
288.721
288.726
288.761
289.109
289.113
289.117
289.122
289.128
289.134
289.141
289.149
289.157
289.166
289.176
289.187
289.198
289.21
289.223
289.237
289.251
289.267
289.28
289.302
289.311
289.341
289.346
289.382
289.714
289.718
289.722
289.727
289.733
289.739
289.746
289.754
289.763
289.772
289.782
289.793
289.805
289.817
289.83
289.844
289.859
289.876
289.889
289.911
289.922
289.952
289.957
289.995
290.311
290.315
290.318
290.324
290.329
290.336
290.343
290.351
290.36
290.369
290.38
290.391
290.403
290.415
290.429
290.443
290.458
290.475
290.49
290.512
290.523
290.553
290.56
290.598
290.898
290.903
290.906
290.911
290.917
290.924
290.931
290.939
290.948
290.958
290.968
290.98
290.992
291.005
291.018
291.033
291.048
291.066
291.08
291.103
291.114
291.145
291.152
291.191
291.477
291.481
291.485
291.49
291.496
291.502
291.509
291.518
291.527
291.537
291.547
291.559
291.571
291.584
291.598
291.613
291.629
291.646
291.662
291.684
291.696
291.728
291.734
291.774
292.046
292.05
292.054
292.059
292.064
292.071
292.078
292.087
292.096
292.106
292.116
292.128
292.141
292.154
292.168
292.183
292.199
292.217
292.232
292.255
292.268
292.299
292.306
292.346
292.605
292.609
292.612
292.617
292.623
292.63
292.637
292.645
292.654
292.664
292.675
292.687
292.7
292.713
292.727
292.743
292.759
292.776
292.792
292.815
292.828
292.859
292.867
292.907
293.153
293.156
293.16
293.165
293.171
293.177
293.184
293.193
293.202
293.212
293.223
293.235
293.247
293.261
293.275
293.29
293.307
293.324
293.34
293.363
293.376
293.408
293.416
293.456
293.689
293.692
293.696
293.701
293.706
293.713
293.72
293.728
293.738
293.748
293.758
293.77
293.783
293.796
293.811
293.826
293.842
293.86
293.876
293.899
293.912
293.943
293.951
293.992
294.213
294.216
294.219
294.224
294.23
294.236
294.243
294.251
294.26
294.27
294.281
294.293
294.305
294.319
294.333
294.348
294.365
294.382
294.398
294.421
294.434
294.465
294.474
294.514
294.722
294.726
294.729
294.734
294.739
294.745
294.752
294.76
294.769
294.779
294.79
294.801
294.814
294.827
294.841
294.856
294.872
294.89
294.906
294.928
294.942
294.972
294.981
295.02
295.217
295.22
295.223
295.228
295.233
295.239
295.246
295.254
295.263
295.273
295.283
295.294
295.307
295.32
295.334
295.349
295.365
295.381
295.398
295.419
295.433
295.462
295.471
295.51
295.695
295.698
295.701
295.706
295.711
295.717
295.724
295.731
295.74
295.749
295.759
295.771
295.783
295.795
295.809
295.824
295.839
295.856
295.872
295.893
295.907
295.935
295.944
295.982
296.156
296.158
296.161
296.165
296.17
296.176
296.183
296.19
296.198
296.207
296.217
296.228
296.24
296.252
296.266
296.28
296.295
296.311
296.327
296.347
296.361
296.388
296.397
296.433
296.596
296.598
296.601
296.605
296.609
296.615
296.621
296.628
296.636
296.645
296.655
296.665
296.676
296.688
296.701
296.715
296.729
296.745
296.76
296.779
296.793
296.819
296.828
296.863
297.013
297.016
297.018
297.022
297.026
297.032
297.038
297.044
297.052
297.06
297.069
297.079
297.09
297.102
297.114
297.127
297.141
297.155
297.17
297.188
297.202
297.226
297.235
297.268
297.407
297.409
297.411
297.415
297.419
297.424
297.429
297.436
297.443
297.451
297.459
297.469
297.479
297.49
297.501
297.514
297.527
297.541
297.555
297.572
297.585
297.607
297.616
297.647
297.774
297.775
297.778
297.781
297.785
297.789
297.795
297.8
297.807
297.814
297.823
297.831
297.841
297.851
297.862
297.873
297.885
297.898
297.912
297.927
297.939
297.96
297.969
297.997
298.112
298.114
298.116
298.119
298.122
298.126
298.131
298.136
298.143
298.149
298.157
298.165
298.173
298.183
298.193
298.203
298.215
298.227
298.239
298.253
298.264
298.283
298.291
298.317
298.42
298.421
298.423
298.426
298.429
298.433
298.437
298.442
298.447
298.454
298.46
298.468
298.476
298.484
298.493
298.503
298.513
298.524
298.535
298.548
298.558
298.575
298.583
298.606
298.696
298.697
298.699
298.701
298.704
298.707
298.711
298.716
298.721
298.726
298.732
298.739
298.746
298.753
298.761
298.77
298.779
298.789
298.799
298.81
298.82
298.834
298.841
298.862
298.94
298.941
298.943
298.945
298.947
298.95
298.953
298.957
298.962
298.966
298.972
298.977
298.984
298.99
298.997
299.005
299.013
299.021
299.03
299.04
299.048
299.061
299.067
299.085
299.152
299.153
299.154
299.156
299.158
299.161
299.164
299.167
299.171
299.175
299.179
299.184
299.189
299.195
299.201
299.208
299.215
299.222
299.229
299.238
299.245
299.256
299.261
299.276
299.333
299.334
299.335
299.336
299.338
299.34
299.342
299.345
299.348
299.352
299.356
299.36
299.364
299.369
299.374
299.38
299.385
299.392
299.398
299.405
299.411
299.42
299.425
299.437
299.484
299.485
299.485
299.487
299.488
299.49
299.492
299.494
299.497
299.499
299.503
299.506
299.51
299.514
299.518
299.523
299.527
299.532
299.538
299.543
299.549
299.556
299.56
299.57
299.608
299.608
299.609
299.61
299.611
299.612
299.614
299.616
299.618
299.62
299.623
299.626
299.629
299.632
299.635
299.639
299.643
299.647
299.651
299.656
299.66
299.666
299.669
299.677
299.707
299.707
299.708
299.709
299.709
299.711
299.712
299.713
299.715
299.717
299.719
299.721
299.723
299.726
299.729
299.732
299.735
299.738
299.741
299.745
299.748
299.753
299.755
299.762
299.785
299.785
299.786
299.786
299.787
299.788
299.789
299.79
299.791
299.793
299.794
299.796
299.798
299.8
299.802
299.804
299.806
299.809
299.812
299.814
299.817
299.82
299.822
299.827
299.845
299.845
299.846
299.846
299.846
299.847
299.848
299.849
299.85
299.851
299.852
299.853
299.855
299.856
299.858
299.86
299.861
299.863
299.865
299.867
299.869
299.872
299.873
299.877
299.89
299.89
299.891
299.891
299.891
299.892
299.892
299.893
299.894
299.894
299.895
299.896
299.897
299.899
299.9
299.901
299.902
299.904
299.905
299.907
299.908
299.91
299.911
299.914
299.924
299.924
299.924
299.924
299.924
299.925
299.925
299.926
299.926
299.927
299.927
299.928
299.929
299.93
299.93
299.931
299.932
299.933
299.934
299.936
299.937
299.938
299.939
299.941
299.948
299.948
299.948
299.948
299.948
299.948
299.949
299.949
299.949
299.95
299.95
299.951
299.951
299.952
299.953
299.953
299.954
299.955
299.955
299.956
299.957
299.958
299.959
299.96
299.965
299.965
299.965
299.965
299.965
299.965
299.966
299.966
299.966
299.966
299.967
299.967
299.967
299.968
299.968
299.969
299.969
299.97
299.97
299.971
299.971
299.972
299.972
299.973
299.977
299.977
299.977
299.977
299.977
299.977
299.977
299.977
299.978
299.978
299.978
299.978
299.978
299.979
299.979
299.979
299.98
299.98
299.98
299.981
299.981
299.982
299.982
299.982
299.985
299.985
299.985
299.985
299.985
299.985
299.985
299.985
299.985
299.986
299.986
299.986
299.986
299.986
299.986
299.987
299.987
299.987
299.987
299.988
299.988
299.988
299.988
299.989
299.99
299.99
299.99
299.99
299.99
299.99
299.99
299.991
299.991
299.991
299.991
299.991
299.991
299.991
299.991
299.991
299.992
299.992
299.992
299.992
299.992
299.992
299.993
299.993
299.994
299.994
299.994
299.994
299.994
299.994
299.994
299.994
299.994
299.994
299.994
299.994
299.994
299.994
299.995
299.995
299.995
299.995
299.995
299.995
299.995
299.995
299.995
299.995
299.996
299.996
299.996
299.996
299.996
299.996
299.996
299.996
299.996
299.996
299.996
299.996
299.996
299.997
299.997
299.997
299.997
299.997
299.997
299.997
299.997
299.997
299.997
299.997
299.998
299.998
299.998
299.998
299.998
299.998
299.998
299.998
299.998
299.998
299.998
299.998
299.998
299.998
299.998
299.998
299.998
299.998
299.998
299.998
299.998
299.998
299.998
299.998
299.999
299.999
299.999
299.999
299.999
299.999
299.999
299.999
299.999
299.999
299.999
299.999
299.999
299.999
299.999
299.999
299.999
299.999
299.999
299.999
299.999
299.999
299.999
299.999
299.999
299.999
299.999
299.999
299.999
299.999
299.999
299.999
299.999
299.999
299.999
299.999
299.999
299.999
299.999
299.999
299.999
299.999
299.999
299.999
299.999
299.999
299.999
299.999
299.999
299.999
299.999
300
300
300
300
300
300
300
300
300
300
300
300
300
300
300
300
300
300
300
300
300
300
300
300
300
300
300
300
300
300
300
300
300
300
300
300
300
300
300
300
300
300
300
300
300
300
300
300
300
300
300
300
300
300
300
300
300
300
300
300
300
300
300
300
300
300
300
300
300
300
300
300
300
300
300
300
300
300
300
300
300
300
300
300
300
300
300
300
300
300
300
300
300
300
300
300
300
300
300
300
300
300
300
300
300
300
300
300
300
300
300
300
300
300
300
300
300
300
300
300
300
300
300
300
300
300
300
300
300
300
300
300
300
300
300
300
300
300
300
300
300
300
300
300
300
300
300
300
300
300
300
300
300
300
300
300
300
300
300
300
300
300
300
300
300
300
300
300
300
300
300
300
300
300
300
300
300
300
300
300
300
300
300
300
300
300
300
300
300
300
300
300
300
300
300
300
300
300
300
300
300
300
300
300
300
300
300
300
300
300
300
300
300
300
300
300
300
300
300
300
300
300
300
300
300
300
300
300
300
300
300
300
300
300
300
300
300
300
300
300
300
300
300
300
300
300
300
300
300
300
300
300
300
300
300
300
300
300
300
300
300
300
300
300
300
300
300
300
300
300
300
300
300
300
300
300
300
300
300
300
300
300
300
300
300
300
300
300
300
300
300
300
300
300
300
300
300
300
300
300
300
300
300
300
300
300
300
300
300
300
300
300
300
300
300
300
300
300
300
300
300
300
300
300
300
300
300
300
300
300
300
300
300
300
300
300
300
300
300
300
300
300
300
300
300
300
300
300
300
300
300
300
300
300
300
300
300
300
300
300
300
300
300
300
300
300
300
300
300
300
300
300
300
300
300
300
300
300
300
300
300
300
300
300
300
300
300
300
300
300
300
300
300
300
300
300
300
300
300
300
300
300
300
300
300
300
300
300
300
300
300
300
300
300
300
300
300
300
300
300
300
300
300
300
300
300
300
300
300
300
300
300
300
300
300
300
300
300
300
300
300
300
300
300
300
300
300
300
300
300
300
300
300
300
300
300
300
300
300
300
300
300
300
300
300
300
300
300
300
300
300
300
300
300
300
300
300
300
300
300
300
300
300
300
300
300
300
300
300
300
300
300
300
300
300
300
300
300
300
300
300
300
300
300
300
300
300
300
300
300
300
300
300
300
300
300
300
300
300
300
300
300
300
300
300
300
300
300
300
300
300
300
300
300
300
300
300
300
300
300
300
300
300
300
300
300
300
300
300
300
300
300
300
300
300
300
300
300
300