/*--------------------------------*- C++ -*----------------------------------*\
  =========                 |
  \\      /  F ield         | OpenFOAM: The Open Source CFD Toolbox
   \\    /   O peration     | Website:  https://openfoam.org
    \\  /    A nd           | Version:  10
     \\/     M anipulation  |
\*---------------------------------------------------------------------------*/
FoamFile
{
    format      ascii;
    class       volVectorField;
    location    "0.02";
    object      U;
}
// * * * * * * * * * * * * * * * * * * * * * * * * * * * * * * * * * * * * * //

dimensions      [0 1 -1 0 0 0 0];

internalField   nonuniform List<vector> 
4176
(
(260.142 0.0223409 1.82381e-11)
(260.145 0.0133787 1.75065e-12)
(260.134 0.0676479 5.6002e-12)
(260.118 0.0421684 6.21523e-12)
(260.098 0.113012 -2.15006e-12)
(260.071 0.0674152 2.38907e-12)
(260.04 0.160059 3.74745e-12)
(260.001 0.0863858 -7.90486e-12)
(259.961 0.207967 -1.0891e-12)
(259.911 0.0983923 -4.40568e-12)
(259.86 0.254781 -3.61138e-13)
(259.797 0.104115 -5.73336e-13)
(259.736 0.296621 -5.67748e-13)
(259.661 0.107554 2.88234e-12)
(259.59 0.322457 4.97115e-13)
(259.5 0.126389 1.37413e-12)
(259.421 0.307753 4.29111e-12)
(259.311 0.179276 2.17425e-12)
(259.234 0.239892 -1.39997e-12)
(259.089 0.273339 3.43533e-12)
(259.035 0.122719 1.44321e-12)
(258.841 0.398335 2.45824e-13)
(258.817 -0.0354371 2.62945e-12)
(258.599 0.567249 1.34305e-12)
(252.946 0.0304882 1.84892e-11)
(252.948 0.030799 1.01081e-12)
(252.936 0.0967775 6.43567e-12)
(252.918 0.0814057 6.51739e-12)
(252.896 0.164549 -1.05289e-12)
(252.866 0.128803 2.71773e-12)
(252.833 0.234367 3.0437e-12)
(252.79 0.170265 -8.45568e-12)
(252.746 0.305456 -7.34087e-13)
(252.691 0.205214 -4.96933e-12)
(252.636 0.376024 -1.02405e-12)
(252.568 0.234401 -4.34611e-13)
(252.502 0.442583 -1.29137e-12)
(252.42 0.261589 2.52299e-12)
(252.343 0.495084 7.06163e-13)
(252.245 0.303259 1.19375e-12)
(252.159 0.509864 3.7185e-12)
(252.041 0.375848 2.05785e-12)
(251.953 0.47742 -2.01898e-12)
(251.803 0.482122 3.46616e-12)
(251.729 0.386988 1.35783e-12)
(251.53 0.628482 -1.00473e-12)
(251.487 0.221485 2.79044e-12)
(251.232 0.803 1.00475e-12)
(250.629 0.0384807 1.32263e-11)
(250.631 0.0481969 7.82003e-13)
(250.619 0.126359 4.21184e-12)
(250.601 0.121341 7.56114e-12)
(250.578 0.217367 -6.95801e-13)
(250.547 0.191671 2.07914e-12)
(250.513 0.310765 5.05218e-12)
(250.47 0.256425 -7.94318e-12)
(250.425 0.405823 1.45101e-13)
(250.368 0.315125 -5.0773e-12)
(250.312 0.500901 -1.75186e-12)
(250.242 0.368609 -8.58782e-13)
(250.174 0.592859 -1.44045e-13)
(250.091 0.420361 2.77443e-12)
(250.012 0.672769 7.18418e-13)
(249.913 0.486808 2.4912e-12)
(249.824 0.715934 2.41886e-12)
(249.706 0.585461 7.9008e-13)
(249.611 0.716115 -1.58534e-12)
(249.466 0.714922 3.67897e-12)
(249.375 0.670411 7.6435e-13)
(249.182 0.878824 1.30009e-13)
(249.121 0.559321 3.21152e-12)
(248.839 1.0851 1.31827e-12)
(248.028 0.0466534 1.9335e-11)
(248.029 0.0659397 8.68012e-13)
(248.017 0.156552 3.77964e-12)
(247.998 0.161938 9.41656e-12)
(247.975 0.271147 -4.64503e-13)
(247.944 0.255546 1.24597e-13)
(247.909 0.388437 5.1887e-12)
(247.865 0.343911 -9.61289e-12)
(247.82 0.507719 -3.83953e-12)
(247.762 0.42662 -3.45435e-12)
(247.706 0.62748 -1.56635e-12)
(247.635 0.504561 -1.5202e-12)
(247.567 0.744859 9.40203e-13)
(247.483 0.580929 1.75771e-12)
(247.403 0.852267 -2.49059e-12)
(247.303 0.671547 1.71252e-12)
(247.216 0.923882 3.54021e-12)
(247.094 0.796017 4.43349e-13)
(247.005 0.955184 -4.35484e-13)
(246.854 0.95003 3.78093e-12)
(246.771 0.954938 -7.4886e-13)
(246.574 1.13118 -3.61698e-13)
(246.519 0.906644 2.05284e-12)
(246.244 1.37427 -2.78962e-12)
(245.559 0.0548842 1.97207e-11)
(245.56 0.0837654 3.02465e-12)
(245.547 0.186957 6.30915e-12)
(245.528 0.202753 1.00923e-11)
(245.505 0.325241 2.21286e-12)
(245.473 0.319761 2.62919e-12)
(245.439 0.46648 3.92343e-12)
(245.394 0.431815 -8.90395e-12)
(245.349 0.609987 -1.29332e-12)
(245.292 0.53853 -4.95291e-12)
(245.235 0.754359 -1.74718e-12)
(245.164 0.640792 2.093e-13)
(245.096 0.896983 -3.91395e-13)
(245.012 0.741483 1.0091e-12)
(244.933 1.03162 -1.47241e-12)
(244.833 0.854314 3.71121e-13)
(244.747 1.1335 2.99864e-12)
(244.624 1.00074 7.76897e-13)
(244.541 1.19675 -2.88439e-12)
(244.384 1.17539 7.13786e-12)
(244.313 1.22926 3.02524e-12)
(244.113 1.37859 1.06273e-12)
(244.066 1.21718 4.24205e-12)
(243.808 1.64127 1.68961e-12)
(243.177 0.063102 1.1767e-11)
(243.178 0.101512 2.72901e-12)
(243.165 0.217313 7.54825e-12)
(243.146 0.243411 9.49321e-12)
(243.123 0.379194 -3.5199e-12)
(243.091 0.383728 7.09238e-13)
(243.057 0.544248 5.48209e-12)
(243.013 0.51934 -1.06839e-11)
(242.967 0.711794 -1.2926e-12)
(242.91 0.64986 -3.05726e-12)
(242.854 0.880522 -1.78164e-12)
(242.784 0.776141 -2.63946e-12)
(242.716 1.04803 -1.17379e-12)
(242.633 0.900786 2.19766e-12)
(242.554 1.20907 -2.71673e-12)
(242.456 1.03482 1.86759e-12)
(242.371 1.34154 7.67873e-12)
(242.25 1.20116 2.20326e-12)
(242.167 1.43542 1.85454e-12)
(242.013 1.39717 8.56598e-12)
(241.943 1.49618 8.46811e-13)
(241.747 1.6195 -3.97354e-12)
(241.701 1.51324 2.49146e-12)
(241.449 1.89734 1.75444e-12)
(240.874 0.0712355 1.13263e-11)
(240.874 0.119062 2.43477e-12)
(240.862 0.247423 -2.37521e-12)
(240.843 0.283632 1.01722e-11)
(240.819 0.432668 4.93627e-12)
(240.788 0.447012 8.73875e-13)
(240.754 0.621267 -3.2319e-13)
(240.711 0.605899 -8.76336e-12)
(240.666 0.812544 1.67895e-12)
(240.609 0.759888 -5.77853e-12)
(240.554 1.00526 -3.24667e-12)
(240.484 0.909797 2.8779e-12)
(240.417 1.19715 6.47075e-12)
(240.335 1.05801 3.04886e-12)
(240.258 1.38363 -6.62811e-13)
(240.162 1.21339 3.65692e-12)
(240.076 1.54503 3.40772e-12)
(239.959 1.39989 -8.36167e-13)
(239.875 1.66884 -5.83762e-13)
(239.727 1.61495 7.66752e-12)
(239.655 1.76146 1.22306e-13)
(239.464 1.85589 -4.17786e-12)
(239.417 1.80925 3.69583e-12)
(239.169 2.1531 3.91102e-12)
(238.639 0.0792373 4.2823e-12)
(238.64 0.136356 5.55129e-12)
(238.627 0.27709 9.18865e-12)
(238.609 0.323266 1.17486e-11)
(238.586 0.485335 -1.35667e-12)
(238.555 0.509363 2.15644e-12)
(238.521 0.697099 7.89589e-12)
(238.478 0.691138 -9.52558e-12)
(238.434 0.911704 -7.17031e-12)
(238.379 0.868156 -7.00117e-12)
(238.323 1.12797 1.48904e-12)
(238.256 1.0412 2.02775e-13)
(238.189 1.34377 -4.73042e-12)
(238.109 1.21246 -1.24568e-12)
(238.032 1.55501 2.66073e-12)
(237.938 1.38894 -3.89384e-13)
(237.854 1.7446 4.95331e-12)
(237.74 1.59489 7.44643e-12)
(237.656 1.89769 1.2511e-12)
(237.512 1.82843 8.69397e-13)
(237.441 2.02143 -7.49339e-14)
(237.254 2.08772 3.18914e-12)
(237.208 2.09946 2.39141e-12)
(236.965 2.4034 -6.29891e-12)
(236.466 0.087062 -1.35853e-12)
(236.466 0.153364 3.02308e-13)
(236.454 0.306164 -3.24234e-12)
(236.436 0.36221 7.44867e-12)
(236.413 0.536956 -1.09573e-12)
(236.383 0.570594 -1.16531e-12)
(236.349 0.771425 3.53924e-13)
(236.307 0.774787 -1.05422e-11)
(236.263 1.00889 -4.30617e-12)
(236.209 0.974312 -8.71651e-12)
(236.155 1.24823 -4.17085e-12)
(236.089 1.16992 -5.45372e-13)
(236.023 1.48742 -5.29904e-13)
(235.945 1.36367 -6.65309e-13)
(235.869 1.72279 -2.12272e-13)
(235.778 1.56106 1.19643e-12)
(235.694 1.9399 2.91023e-12)
(235.583 1.78552 1.74644e-12)
(235.501 2.1215 -2.54158e-13)
(235.361 2.0371 4.34745e-12)
(235.29 2.27522 -1.05151e-12)
(235.109 2.31429 -1.98313e-12)
(235.062 2.38285 3.27726e-12)
(234.827 2.64742 8.82e-13)
(234.346 0.0946644 1.50816e-11)
(234.346 0.17007 1.23119e-11)
(234.334 0.334518 6.36952e-12)
(234.316 0.400395 1.69097e-11)
(234.293 0.587342 8.48584e-12)
(234.264 0.630577 6.01364e-12)
(234.231 0.844003 8.43129e-12)
(234.19 0.856656 -2.87024e-12)
(234.146 1.10382 4.31193e-12)
(234.094 1.07811 -1.67188e-12)
(234.04 1.36571 3.90693e-12)
(233.976 1.29566 6.89983e-12)
(233.911 1.62774 8.16066e-12)
(233.836 1.51126 5.3004e-12)
(233.761 1.88656 6.09014e-12)
(233.672 1.7294 6.38776e-12)
(233.589 2.13054 8.73112e-12)
(233.482 1.9714 6.89178e-12)
(233.401 2.33984 6.00635e-12)
(233.265 2.24055 9.97464e-12)
(233.194 2.5224 4.61794e-12)
(233.02 2.53515 3.52277e-12)
(232.972 2.65905 8.05022e-12)
(232.744 2.8848 4.93171e-12)
(232.273 0.102006 8.7838e-12)
(232.273 0.186473 7.70287e-12)
(232.26 0.362048 1.25317e-12)
(232.243 0.437774 1.4268e-11)
(232.22 0.636339 5.50943e-12)
(232.192 0.68922 2.72036e-12)
(232.159 0.914638 5.7511e-12)
(232.12 0.936611 -3.17972e-12)
(232.077 1.19626 3.35173e-12)
(232.027 1.17936 -2.70721e-12)
(231.973 1.48018 3.93147e-12)
(231.911 1.41818 8.06666e-12)
(231.847 1.76448 9.74e-12)
(231.774 1.65495 6.10386e-12)
(231.7 2.04606 8.38731e-12)
(231.615 1.89359 9.34132e-12)
(231.533 2.31608 1.1799e-11)
(231.43 2.15235 9.7885e-12)
(231.349 2.55243 1.06934e-11)
(231.218 2.43842 1.51074e-11)
(231.147 2.76268 -8.77375e-13)
(230.979 2.75002 -1.19835e-11)
(230.931 2.92788 -6.39946e-12)
(230.711 3.1153 -8.71436e-12)
(230.241 0.109054 1.09045e-11)
(230.241 0.202568 7.94534e-12)
(230.228 0.388668 -5.95389e-13)
(230.212 0.474305 1.22748e-11)
(230.189 0.683819 3.09663e-12)
(230.162 0.746446 5.82295e-13)
(230.129 0.98317 1.83278e-12)
(230.092 1.01454 -6.94121e-12)
(230.048 1.28604 -1.13826e-12)
(230.001 1.27794 -7.04327e-12)
(229.947 1.59143 -7.30293e-13)
(229.888 1.53734 4.06167e-12)
(229.824 1.89747 5.26041e-12)
(229.755 1.79458 1.66056e-12)
(229.681 2.20118 2.13422e-12)
(229.599 2.05315 2.98748e-12)
(229.518 2.49595 4.13037e-12)
(229.42 2.32823 3.32021e-12)
(229.339 2.75897 2.55838e-12)
(229.214 2.63065 6.45624e-12)
(229.143 2.99606 1.31325e-12)
(228.981 2.95858 1.14621e-12)
(228.932 3.1892 6.13202e-12)
(228.72 3.33874 2.98425e-12)
(228.245 0.115783 1.29884e-11)
(228.245 0.218347 6.89204e-12)
(228.232 0.414311 -4.03231e-12)
(228.216 0.509948 9.91695e-12)
(228.194 0.729679 -9.19193e-13)
(228.168 0.802182 -4.08456e-12)
(228.135 1.04946 -5.04516e-12)
(228.1 1.09034 -1.33665e-11)
(228.056 1.373 -9.11604e-12)
(228.011 1.37372 -1.54818e-11)
(227.957 1.6993 -1.24227e-11)
(227.902 1.653 -7.55011e-12)
(227.838 2.02653 -8.81127e-12)
(227.772 1.93003 -8.74779e-13)
(227.699 2.35179 1.27294e-11)
(227.621 2.20793 1.12609e-11)
(227.54 2.66987 1.19612e-11)
(227.447 2.49881 8.98894e-12)
(227.366 2.95931 8.0303e-12)
(227.247 2.81712 1.11373e-11)
(227.175 3.22245 4.84761e-12)
(227.021 3.16066 3.43336e-12)
(226.971 3.44285 8.59854e-12)
(226.767 3.55494 4.52578e-12)
(226.28 0.12218 2.2616e-11)
(226.28 0.23379 1.4575e-11)
(226.268 0.438933 -5.61945e-12)
(226.253 0.544659 2.73455e-12)
(226.23 0.773838 -2.46668e-12)
(226.206 0.856364 -1.70997e-13)
(226.173 1.1134 4.19705e-12)
(226.14 1.16394 3.0171e-12)
(226.096 1.45697 -4.77205e-13)
(226.054 1.46659 -1.55232e-11)
(226 1.80362 -6.7353e-12)
(225.948 1.76503 2.48118e-12)
(225.884 2.15148 9.89143e-12)
(225.821 2.06111 7.74128e-12)
(225.749 2.49771 -1.41446e-12)
(225.674 2.35783 -7.44516e-12)
(225.595 2.83778 -3.77507e-12)
(225.506 2.66398 2.05173e-13)
(225.425 3.15329 5.4983e-12)
(225.312 2.99768 1.35859e-11)
(225.241 3.44168 -9.42779e-13)
(225.093 3.35606 -9.64516e-12)
(225.042 3.68866 6.27083e-13)
(224.846 3.76375 3.37543e-12)
(224.344 0.128241 2.05673e-11)
(224.344 0.248878 -5.02027e-13)
(224.332 0.462506 -1.95309e-12)
(224.317 0.578399 2.49662e-11)
(224.295 0.816233 8.93353e-12)
(224.272 0.908941 1.31136e-12)
(224.239 1.17488 -5.1433e-12)
(224.207 1.23527 -1.52677e-11)
(224.164 1.53785 -1.60564e-12)
(224.124 1.55649 1.85848e-12)
(224.07 1.90422 2.37945e-12)
(224.021 1.8733 -2.58691e-13)
(223.958 2.27215 -4.85504e-12)
(223.899 2.18764 -1.96338e-12)
(223.827 2.63877 9.26235e-12)
(223.757 2.50249 5.91254e-12)
(223.678 2.99993 5.32228e-13)
(223.594 2.82401 -4.98581e-12)
(223.513 3.34061 -1.21758e-11)
(223.406 3.17209 9.73106e-14)
(223.334 3.65358 4.70026e-12)
(223.194 3.54459 1.10066e-12)
(223.142 3.92645 6.62281e-13)
(222.955 3.965 -7.51076e-12)
(222.431 0.133965 3.16545e-11)
(222.431 0.26359 1.52701e-11)
(222.419 0.485013 -5.32048e-12)
(222.405 0.611142 1.58569e-12)
(222.383 0.856809 -3.92706e-12)
(222.362 0.959891 1.43839e-12)
(222.329 1.23381 7.43139e-12)
(222.3 1.30431 7.36386e-12)
(222.256 1.61549 1.87139e-13)
(222.219 1.64339 -1.54673e-11)
(222.165 2.00098 -3.83362e-12)
(222.12 1.97779 5.41249e-12)
(222.056 2.3884 1.44802e-11)
(222.001 2.30951 -3.21115e-12)
(221.93 2.77483 -1.48007e-11)
(221.863 2.64166 -5.18106e-12)
(221.786 3.15629 3.74948e-13)
(221.706 2.97898 6.35072e-12)
(221.626 3.52116 1.18817e-11)
(221.524 3.34007 2.68105e-12)
(221.452 3.85797 -1.27785e-11)
(221.319 3.72609 -4.82337e-12)
(221.267 4.15605 6.72028e-12)
(221.088 4.15857 8.89398e-12)
(220.54 0.139352 2.62732e-11)
(220.54 0.277908 -5.85096e-13)
(220.528 0.506439 -1.42499e-11)
(220.515 0.642883 -3.41734e-13)
(220.492 0.895501 -1.67131e-13)
(220.472 1.00923 1.22882e-11)
(220.439 1.29009 8.99484e-12)
(220.413 1.37108 4.74333e-13)
(220.369 1.68975 -1.09414e-12)
(220.335 1.72732 -1.08665e-11)
(220.281 2.0937 -8.64231e-12)
(220.239 2.0785 -8.38942e-12)
(220.175 2.50011 6.15498e-12)
(220.125 2.42664 1.00498e-11)
(220.053 2.90588 6.92303e-12)
(219.992 2.7752 5.3594e-12)
(219.915 3.30675 1.93664e-12)
(219.839 3.1285 -1.14616e-12)
(219.759 3.69483 -6.1512e-12)
(219.664 3.50147 -8.18648e-12)
(219.592 4.05468 -1.81233e-11)
(219.467 3.90045 -3.45601e-12)
(219.413 4.37736 1.48724e-11)
(219.243 4.3443 7.64217e-12)
(218.666 0.144391 3.20777e-11)
(218.666 0.291796 8.06564e-12)
(218.655 0.526754 6.01299e-13)
(218.642 0.673654 1.95771e-11)
(218.62 0.932224 9.66124e-12)
(218.601 1.05699 1.08018e-11)
(218.568 1.34361 1.21707e-11)
(218.544 1.43563 1.07879e-11)
(218.5 1.7605 1.65342e-11)
(218.47 1.80832 -6.21007e-12)
(218.414 2.18223 -1.56157e-11)
(218.378 2.17546 -1.05064e-11)
(218.313 2.60712 -7.81551e-12)
(218.268 2.5391 -1.21417e-11)
(218.195 3.03186 -1.07175e-11)
(218.139 2.90304 -5.57678e-12)
(218.061 3.45176 -5.19211e-12)
(217.991 3.27168 -2.77328e-12)
(217.912 3.86104 -7.17885e-13)
(217.823 3.65651 4.04275e-12)
(217.751 4.24368 7.34232e-13)
(217.633 4.0676 2.79576e-12)
(217.578 4.59026 9.77217e-12)
(217.417 4.52211 9.47907e-12)
(216.809 0.149093 2.9643e-11)
(216.809 0.305217 8.35622e-13)
(216.797 0.545921 -9.79232e-12)
(216.785 0.703513 8.98947e-12)
(216.763 0.966867 -5.70427e-12)
(216.746 1.10322 -5.6662e-12)
(216.713 1.39428 -8.18294e-12)
(216.691 1.49788 -8.84204e-12)
(216.647 1.82773 -8.57372e-12)
(216.619 1.88625 -1.63882e-11)
(216.564 2.26656 -1.01252e-11)
(216.531 2.26872 -9.26127e-12)
(216.466 2.70913 -9.67044e-12)
(216.425 2.64715 -1.56079e-11)
(216.352 3.15239 -1.8208e-11)
(216.302 3.02508 -1.54754e-11)
(216.224 3.59137 3.60317e-13)
(216.16 3.40828 1.53202e-11)
(216.08 4.01982 1.60245e-11)
(215.998 3.80493 1.53512e-11)
(215.925 4.42499 9.56969e-12)
(215.815 4.22744 7.70313e-12)
(215.759 4.79467 1.34317e-11)
(215.607 4.69186 1.136e-11)
(214.964 0.153536 2.54086e-11)
(214.964 0.318181 3.37282e-12)
(214.953 0.563896 2.53451e-12)
(214.941 0.732272 1.03267e-11)
(214.92 0.999682 4.63373e-12)
(214.904 1.14757 1.38714e-11)
(214.871 1.44239 8.06442e-13)
(214.851 1.55755 -1.0208e-11)
(214.807 1.89163 -1.30982e-12)
(214.782 1.96091 -7.35269e-13)
(214.728 2.34676 -4.35827e-12)
(214.698 2.358 2.6495e-12)
(214.633 2.80622 1.13376e-11)
(214.596 2.75063 -7.10521e-12)
(214.523 3.26707 9.72077e-13)
(214.478 3.14219 1.04669e-11)
(214.4 3.72461 -1.45033e-12)
(214.342 3.53824 -1.22717e-11)
(214.262 4.1717 -4.86094e-12)
(214.187 3.94656 3.08119e-12)
(214.113 4.59852 -1.35498e-11)
(214.011 4.37987 -4.48795e-12)
(213.954 4.99046 7.96327e-12)
(213.811 4.85347 -4.27511e-12)
(213.131 0.157863 3.48468e-11)
(213.13 0.330587 5.93557e-12)
(213.12 0.580908 1.52382e-12)
(213.108 0.759748 2.33059e-11)
(213.088 1.03072 1.18139e-11)
(213.072 1.19003 -7.57141e-13)
(213.041 1.48789 -1.94746e-11)
(213.022 1.61465 -1.36161e-11)
(212.979 1.9521 -9.45277e-12)
(212.956 2.03227 -1.33658e-11)
(212.903 2.42277 -4.26007e-12)
(212.875 2.44325 2.83726e-13)
(212.811 2.89835 7.43002e-12)
(212.779 2.84933 3.75692e-12)
(212.706 3.37599 8.9351e-12)
(212.665 3.2538 1.2227e-11)
(212.587 3.85117 1.45739e-11)
(212.535 3.66192 -1.6659e-12)
(212.456 4.31709 -1.67746e-11)
(212.386 4.08162 -1.16489e-11)
(212.312 4.7638 -1.39134e-11)
(212.218 4.52471 -1.00823e-11)
(212.16 5.17749 -3.77969e-12)
(212.026 5.00684 -5.2464e-13)
(211.307 0.16214 2.43243e-11)
(211.306 0.34225 -1.29741e-11)
(211.296 0.597 -9.70059e-12)
(211.285 0.785977 2.30578e-11)
(211.265 1.05997 4.17985e-13)
(211.25 1.23055 -7.1474e-13)
(211.22 1.53077 -9.88658e-12)
(211.202 1.66911 3.70987e-12)
(211.16 2.00913 1.71288e-11)
(211.139 2.10029 1.91038e-12)
(211.087 2.49454 1.99978e-12)
(211.062 2.52441 -5.80488e-12)
(210.999 2.98547 -1.10764e-11)
(210.97 2.9432 -5.58048e-12)
(210.899 3.47915 6.96925e-12)
(210.862 3.35988 2.95703e-12)
(210.785 3.9712 -3.75834e-12)
(210.738 3.7795 -1.11057e-11)
(210.659 4.45509 1.81911e-12)
(210.596 4.20968 1.20248e-11)
(210.521 4.92118 1.84979e-13)
(210.435 4.662 -6.46327e-12)
(210.376 5.35572 -9.95692e-12)
(210.251 5.15195 1.47791e-12)
(209.49 0.166398 1.8174e-11)
(209.489 0.35296 -1.45573e-11)
(209.48 0.612306 -1.06315e-11)
(209.469 0.811042 2.48958e-11)
(209.45 1.08743 3.64712e-12)
(209.436 1.26909 2.01705e-12)
(209.406 1.571 -1.03734e-11)
(209.39 1.72087 -1.59474e-11)
(209.349 2.0627 -3.84533e-12)
(209.33 2.1649 4.10341e-12)
(209.279 2.56204 6.43606e-12)
(209.257 2.60144 -2.38318e-12)
(209.195 3.06754 -6.97138e-12)
(209.169 3.03219 -1.81588e-12)
(209.098 3.57647 1.13577e-11)
(209.066 3.46034 4.95513e-12)
(208.99 4.0846 -1.55495e-12)
(208.948 3.89078 -7.35373e-12)
(208.869 4.58565 6.13613e-12)
(208.813 4.33079 1.5716e-11)
(208.738 5.07053 4.27737e-12)
(208.659 4.79169 -2.65377e-12)
(208.6 5.52507 -3.76018e-12)
(208.484 5.28873 -9.9721e-12)
(207.679 0.170507 1.26516e-11)
(207.678 0.362682 -3.11985e-12)
(207.669 0.627194 1.38634e-13)
(207.658 0.834761 7.95461e-12)
(207.641 1.11289 -2.15332e-11)
(207.627 1.30563 -4.15441e-12)
(207.599 1.60859 -1.04314e-13)
(207.583 1.76991 -9.95461e-12)
(207.544 2.11279 -2.1323e-12)
(207.526 2.22602 3.20709e-13)
(207.476 2.62525 -3.92324e-12)
(207.457 2.67426 3.24482e-12)
(207.397 3.14453 1.68197e-11)
(207.374 3.11622 -3.74591e-12)
(207.305 3.6679 -1.6777e-11)
(207.277 3.55512 -5.21118e-12)
(207.201 4.19129 5.15957e-12)
(207.164 3.99572 -5.42888e-12)
(207.086 4.70868 3.9655e-12)
(207.036 4.44486 9.5847e-12)
(206.961 5.21153 -6.84106e-12)
(206.891 4.91363 3.38259e-12)
(206.83 5.68551 1.80981e-11)
(206.724 5.41717 3.9514e-12)
(205.872 0.174436 2.52785e-11)
(205.871 0.371614 2.51575e-12)
(205.863 0.641411 6.41288e-12)
(205.852 0.856417 1.17938e-11)
(205.836 1.13674 -2.11057e-11)
(205.822 1.34032 -4.50511e-12)
(205.796 1.64329 -2.73599e-12)
(205.78 1.81621 6.73067e-12)
(205.743 2.15938 1.34769e-11)
(205.727 2.28363 -7.35249e-12)
(205.679 2.68414 -1.48487e-11)
(205.661 2.74276 -9.56592e-12)
(205.603 3.21638 1.19308e-12)
(205.583 3.19521 4.725e-13)
(205.515 3.75338 8.14076e-12)
(205.491 3.64412 1.50876e-11)
(205.417 4.29121 8.098e-13)
(205.385 4.09419 -1.36044e-11)
(205.308 4.82395 -7.51371e-12)
(205.264 4.55209 -2.80652e-12)
(205.189 5.34381 -1.80071e-13)
(205.126 5.02729 7.66252e-12)
(205.065 5.837 2.04546e-11)
(204.968 5.53724 3.77078e-12)
(204.069 0.178194 2.60854e-11)
(204.068 0.379862 -1.0228e-11)
(204.059 0.654815 -1.99301e-11)
(204.048 0.876067 1.6658e-11)
(204.034 1.15923 -1.20491e-11)
(204.02 1.37241 -6.62709e-12)
(203.996 1.6754 3.57732e-12)
(203.98 1.85993 -2.06372e-12)
(203.946 2.20216 -1.15329e-11)
(203.931 2.3378 -4.00426e-13)
(203.884 2.73866 1.38256e-12)
(203.869 2.80685 -9.99066e-12)
(203.812 3.28303 1.03441e-11)
(203.795 3.26909 -3.44786e-12)
(203.729 3.83287 -1.26199e-11)
(203.709 3.72725 2.38932e-12)
(203.636 4.38428 -3.55401e-12)
(203.609 4.18603 -9.58712e-12)
(203.533 4.93144 4.05887e-12)
(203.495 4.65192 -5.12709e-12)
(203.421 5.46748 -1.66055e-11)
(203.366 5.13294 -4.54369e-13)
(203.304 5.97872 -4.99748e-12)
(203.217 5.64872 -1.11122e-11)
(202.266 0.181733 -6.20631e-12)
(202.265 0.387458 -2.11506e-11)
(202.257 0.667341 -2.01321e-11)
(202.247 0.893945 6.77602e-12)
(202.233 1.18028 -1.30583e-11)
(202.219 1.40186 2.04309e-12)
(202.197 1.70525 -1.48697e-12)
(202.182 1.90028 4.64369e-12)
(202.15 2.24149 6.88425e-12)
(202.135 2.38847 4.64378e-12)
(202.092 2.78839 1.58858e-11)
(202.078 2.86695 -7.99364e-12)
(202.023 3.3443 -1.24771e-12)
(202.009 3.33782 -5.78442e-12)
(201.945 3.90621 -3.0906e-12)
(201.928 3.80443 9.0669e-15)
(201.857 4.4704 3.65099e-12)
(201.835 4.27106 5.40037e-12)
(201.76 5.03135 8.78547e-12)
(201.728 4.7441 7.52483e-12)
(201.655 5.58233 -1.69487e-11)
(201.606 5.23098 -1.09259e-11)
(201.544 6.11017 -5.09072e-12)
(201.467 5.75107 -4.86288e-12)
(200.464 0.185017 1.12711e-11)
(200.463 0.394377 -4.50106e-12)
(200.456 0.678884 4.84704e-12)
(200.446 0.910271 1.22938e-11)
(200.433 1.19985 -2.81753e-11)
(200.419 1.42877 -8.74623e-12)
(200.399 1.73271 -8.74255e-12)
(200.384 1.93736 1.93061e-12)
(200.355 2.27749 6.43872e-12)
(200.34 2.43519 9.85406e-12)
(200.3 2.83372 2.21658e-12)
(200.287 2.92266 -1.75098e-11)
(200.235 3.39993 -5.98205e-12)
(200.223 3.40168 -7.79909e-12)
(200.161 3.9733 -7.13259e-13)
(200.148 3.87573 6.22611e-12)
(200.078 4.54949 1.59076e-11)
(200.061 4.34932 2.07338e-11)
(199.987 5.12347 3.90682e-12)
(199.961 4.82886 -1.42469e-11)
(199.889 5.68814 -1.19739e-11)
(199.848 5.32154 -2.00658e-12)
(199.785 6.23236 9.37976e-12)
(199.717 5.84451 1.4659e-11)
(198.662 0.188047 1.60488e-11)
(198.66 0.400625 -1.65664e-11)
(198.653 0.689421 -2.63794e-11)
(198.643 0.925071 1.05174e-11)
(198.632 1.21786 -6.2659e-13)
(198.618 1.45317 5.56818e-12)
(198.6 1.7577 -1.41819e-11)
(198.586 1.97116 1.73843e-12)
(198.558 2.31012 -7.85679e-12)
(198.545 2.47795 -1.94918e-11)
(198.507 2.87472 2.76231e-12)
(198.495 2.97376 9.65746e-12)
(198.446 3.45021 3.70348e-12)
(198.436 3.46039 -1.20998e-11)
(198.377 4.03388 1.70454e-12)
(198.367 3.9412 1.50704e-11)
(198.299 4.62153 6.33281e-12)
(198.286 4.42103 -6.06159e-12)
(198.214 5.20762 8.8469e-12)
(198.194 4.90607 -3.20596e-12)
(198.122 5.7853 -1.94819e-11)
(198.088 5.404 -4.11277e-12)
(198.025 6.34501 1.42004e-11)
(197.966 5.92973 3.32561e-12)
(196.857 0.190809 -8.49328e-12)
(196.856 0.406206 -2.81155e-11)
(196.849 0.698934 -1.98663e-11)
(196.84 0.938341 7.11429e-12)
(196.828 1.23422 -2.04184e-11)
(196.816 1.47509 -3.06222e-12)
(196.799 1.7802 -1.03701e-11)
(196.785 2.00165 -3.18328e-12)
(196.76 2.33939 -2.75944e-12)
(196.747 2.51666 -5.07851e-12)
(196.713 2.91141 5.57051e-12)
(196.701 3.02015 2.59831e-12)
(196.656 3.49519 8.67963e-12)
(196.647 3.51376 2.06538e-12)
(196.591 4.08818 4.16834e-12)
(196.584 4.00073 5.79423e-12)
(196.519 4.68628 9.02279e-12)
(196.51 4.48596 7.77712e-12)
(196.44 5.28387 1.13114e-11)
(196.425 4.97595 1.06352e-11)
(196.354 5.87371 8.66548e-12)
(196.327 5.4781 -1.29555e-11)
(196.264 6.44749 -1.16366e-11)
(196.215 6.00658 -8.38975e-12)
(195.049 0.193295 2.321e-11)
(195.048 0.411127 -7.94736e-12)
(195.041 0.707404 -2.12714e-12)
(195.033 0.950088 2.31984e-11)
(195.022 1.24883 -8.62106e-12)
(195.01 1.4945 7.20828e-12)
(194.995 1.8002 -3.61295e-12)
(194.982 2.02879 1.47384e-12)
(194.959 2.36528 3.78333e-13)
(194.947 2.55126 -4.6991e-12)
(194.915 2.94378 3.62403e-12)
(194.905 3.06174 -4.86641e-12)
(194.863 3.53486 -1.30639e-12)
(194.855 3.56167 -7.19009e-12)
(194.803 4.13617 -1.1108e-11)
(194.798 4.05421 -1.31582e-11)
(194.736 4.74371 -1.16697e-11)
(194.73 4.54421 1.24234e-11)
(194.662 5.35183 1.12896e-11)
(194.653 5.03828 6.48848e-12)
(194.584 5.9532 3.93542e-12)
(194.564 5.54438 3.15401e-12)
(194.501 6.53921 3.61761e-12)
(194.461 6.0738 2.89307e-12)
(193.238 0.195496 1.24763e-11)
(193.236 0.415392 -1.9557e-11)
(193.23 0.714822 -1.61769e-11)
(193.222 0.960331 2.35679e-11)
(193.212 1.26162 -1.33297e-11)
(193.201 1.51139 -2.34968e-12)
(193.187 1.81766 7.89234e-13)
(193.175 2.05258 -1.10064e-12)
(193.154 2.38777 -6.71008e-12)
(193.143 2.58172 5.67336e-12)
(193.113 2.97182 6.66781e-12)
(193.105 3.09847 -7.68162e-12)
(193.065 3.56922 1.39399e-11)
(193.06 3.60406 4.01864e-13)
(193.01 4.17782 -8.86912e-12)
(193.008 4.10151 5.47064e-12)
(192.949 4.79379 1.08181e-12)
(192.947 4.59562 -6.48172e-12)
(192.882 5.41149 1.1184e-11)
(192.877 5.09302 2.05156e-12)
(192.81 6.02356 -1.16576e-11)
(192.797 5.60218 8.11529e-12)
(192.734 6.62092 3.42103e-12)
(192.703 6.13279 -6.50187e-12)
(191.421 0.197411 -1.94391e-11)
(191.42 0.419002 -2.28417e-11)
(191.414 0.72118 9.3227e-13)
(191.406 0.969067 1.0954e-11)
(191.397 1.27255 -1.07233e-11)
(191.387 1.52577 1.64317e-11)
(191.374 1.83255 -1.51291e-11)
(191.363 2.07303 1.28728e-12)
(191.344 2.40682 1.17621e-11)
(191.334 2.60803 -8.83723e-12)
(191.307 2.9955 9.46124e-12)
(191.299 3.13028 1.15722e-11)
(191.263 3.59824 1.08832e-12)
(191.259 3.64084 3.12867e-12)
(191.213 4.21311 1.18274e-11)
(191.213 4.14254 -6.80639e-12)
(191.157 4.83645 3.67303e-12)
(191.159 4.64011 1.25469e-11)
(191.096 5.46271 -2.31455e-12)
(191.097 5.14015 4.68979e-12)
(191.031 6.08452 1.00415e-11)
(191.025 5.6514 -3.56043e-12)
(190.963 6.69253 5.87911e-12)
(190.941 6.1833 1.23477e-11)
(189.599 0.199033 -1.46387e-11)
(189.597 0.421954 -1.15984e-11)
(189.592 0.726467 1.5963e-11)
(189.584 0.97629 2.50579e-11)
(189.576 1.2816 -2.48377e-11)
(189.567 1.53767 1.84592e-12)
(189.555 1.84481 -3.03956e-12)
(189.545 2.09014 1.13422e-11)
(189.528 2.4224 2.29709e-11)
(189.519 2.63017 4.05836e-12)
(189.495 3.01481 -6.09611e-12)
(189.488 3.15716 -5.47496e-12)
(189.455 3.62191 1.1425e-11)
(189.453 3.67197 1.32929e-11)
(189.41 4.24202 1.93803e-11)
(189.413 4.17725 1.26414e-13)
(189.36 4.87168 -1.52327e-11)
(189.365 4.67762 -4.39635e-12)
(189.305 5.50545 2.94364e-12)
(189.311 5.17969 9.89316e-12)
(189.246 6.13589 1.86374e-11)
(189.247 5.69214 1.15889e-12)
(189.185 6.75372 -1.6334e-11)
(189.173 6.22471 -6.84578e-12)
(187.769 0.200365 -5.08939e-11)
(187.768 0.42425 -3.86022e-11)
(187.763 0.730681 -1.56918e-11)
(187.756 0.982002 9.23578e-12)
(187.748 1.28875 -2.448e-11)
(187.74 1.54712 -4.86677e-12)
(187.729 1.85442 -2.19364e-11)
(187.72 2.10391 -1.42337e-11)
(187.705 2.43449 -1.00638e-11)
(187.697 2.64816 -1.39158e-11)
(187.675 3.02972 -6.10393e-12)
(187.671 3.1791 -1.33287e-11)
(187.64 3.64021 -7.11078e-12)
(187.64 3.69743 -1.17217e-11)
(187.6 4.26455 -1.55488e-11)
(187.605 4.20561 -1.49911e-11)
(187.555 4.89947 -1.28271e-11)
(187.565 4.70811 -1.20222e-11)
(187.507 5.53965 -1.34978e-11)
(187.518 5.21148 -1.16374e-11)
(187.455 6.17774 -1.65114e-11)
(187.463 5.72455 -1.34236e-11)
(187.401 6.80416 -1.40982e-11)
(187.398 6.25672 -1.18089e-11)
(185.933 0.201404 -3.51246e-11)
(185.931 0.425891 -2.51445e-11)
(185.927 0.733821 -9.70585e-12)
(185.92 0.986208 3.27181e-11)
(185.913 1.29402 -8.11964e-12)
(185.906 1.55414 3.86462e-12)
(185.896 1.86136 3.47502e-12)
(185.888 2.11439 3.84151e-12)
(185.875 2.44307 9.78105e-13)
(185.868 2.662 1.43086e-11)
(185.849 3.04021 1.49849e-11)
(185.846 3.19613 -3.38848e-12)
(185.818 3.65315 2.17764e-11)
(185.82 3.71723 8.15816e-12)
(185.783 4.28071 -2.47449e-12)
(185.791 4.2276 -1.02639e-11)
(185.744 4.91983 -1.58668e-11)
(185.757 4.73156 2.50795e-12)
(185.701 5.56536 -5.49294e-12)
(185.717 5.23564 -1.14944e-11)
(185.656 6.20991 3.19847e-12)
(185.672 5.74854 -3.9112e-12)
(185.61 6.84401 -1.45351e-11)
(185.616 6.27933 5.45796e-12)
(184.088 0.202151 -4.72554e-11)
(184.086 0.42688 -2.32893e-11)
(184.082 0.735887 -6.25256e-12)
(184.076 0.988913 3.62333e-11)
(184.069 1.29739 -4.6142e-12)
(184.063 1.55876 7.098e-12)
(184.055 1.86563 5.6737e-12)
(184.048 2.12157 6.27167e-12)
(184.036 2.44813 3.81125e-12)
(184.031 2.67172 -9.14006e-12)
(184.014 3.04629 -9.19366e-12)
(184.012 3.20825 1.51772e-12)
(183.987 3.66072 1.42004e-13)
(183.991 3.73138 -1.19476e-11)
(183.957 4.2905 2.70093e-12)
(183.967 4.24322 -5.64362e-12)
(183.923 4.93278 -1.09291e-11)
(183.94 4.74795 7.49795e-12)
(183.887 5.58255 1.35361e-13)
(183.908 5.25203 -6.4202e-12)
(183.848 6.23246 9.13776e-12)
(183.871 5.76422 8.41938e-13)
(183.81 6.8733 -6.45613e-12)
(183.825 6.29263 1.3393e-11)
(182.234 0.202611 -7.23938e-11)
(182.232 0.42722 -7.72287e-12)
(182.228 0.736889 6.47533e-12)
(182.222 0.990135 1.57964e-11)
(182.217 1.29889 -4.23555e-12)
(182.211 1.56101 2.92205e-11)
(182.204 1.86724 -5.30291e-12)
(182.198 2.1255 -1.19769e-11)
(182.188 2.4497 6.87669e-12)
(182.184 2.67736 1.36928e-11)
(182.169 3.04799 9.25011e-12)
(182.169 3.21551 -1.21399e-11)
(182.147 3.66296 7.69318e-12)
(182.153 3.73994 1.59751e-11)
(182.122 4.29397 -2.70381e-12)
(182.135 4.25254 -1.6053e-11)
(182.094 4.93839 -1.57988e-13)
(182.114 4.75733 1.26145e-11)
(182.063 5.59136 3.93435e-13)
(182.09 5.26073 -1.1107e-11)
(182.032 6.24554 -1.56689e-12)
(182.061 5.77153 8.28149e-12)
(182.001 6.89206 -3.72786e-12)
(182.025 6.2968 -1.33421e-11)
(180.37 0.202786 -1.02271e-10)
(180.368 0.426915 -3.10378e-11)
(180.364 0.736832 -4.312e-12)
(180.359 0.989879 9.55953e-12)
(180.354 1.2985 -2.74447e-11)
(180.349 1.56093 -9.09389e-12)
(180.344 1.86621 -8.73518e-12)
(180.339 2.12619 2.2073e-11)
(180.33 2.44779 2.61863e-11)
(180.328 2.67896 1.58481e-11)
(180.315 3.04532 1.95406e-11)
(180.316 3.21795 5.31119e-12)
(180.297 3.6599 1.0259e-11)
(180.305 3.74294 3.12583e-12)
(180.277 4.29116 -5.69288e-12)
(180.292 4.25558 -1.12407e-11)
(180.254 4.93671 -1.14282e-11)
(180.278 4.75975 -1.2682e-11)
(180.23 5.59184 -1.89937e-11)
(180.261 5.26177 -1.8587e-11)
(180.205 6.24922 1.5081e-12)
(180.24 5.77052 2.10543e-11)
(180.181 6.90036 1.92146e-11)
(180.214 6.29194 1.69064e-11)
(178.495 0.202678 -1.31894e-10)
(178.494 0.425968 -2.75395e-11)
(178.49 0.735722 9.9715e-12)
(178.486 0.988161 6.23058e-12)
(178.482 1.29625 -1.98838e-11)
(178.477 1.55853 1.04514e-11)
(178.473 1.86256 -6.71134e-12)
(178.469 2.1237 9.07317e-12)
(178.462 2.44243 -5.75211e-12)
(178.461 2.67655 -5.79856e-12)
(178.45 3.03832 1.09393e-11)
(178.453 3.21561 -1.87729e-11)
(178.436 3.6516 -3.83459e-12)
(178.446 3.74044 3.00355e-13)
(178.421 4.28214 2.55814e-12)
(178.439 4.25246 6.56772e-12)
(178.404 4.92783 -8.89182e-12)
(178.431 4.75531 -1.54807e-13)
(178.385 5.58412 6.33803e-12)
(178.421 5.25528 -1.36891e-11)
(178.367 6.2437 -9.39977e-12)
(178.409 5.76129 -1.39195e-12)
(178.35 6.89838 5.17561e-12)
(178.391 6.2782 1.25711e-11)
(176.61 0.202297 -1.12827e-10)
(176.608 0.424392 -1.78795e-11)
(176.605 0.733575 3.33693e-12)