/*--------------------------------*- C++ -*----------------------------------*\
  =========                 |
  \\      /  F ield         | OpenFOAM: The Open Source CFD Toolbox
   \\    /   O peration     | Website:  https://openfoam.org
    \\  /    A nd           | Version:  10
     \\/     M anipulation  |
\*---------------------------------------------------------------------------*/
FoamFile
{
    format      ascii;
    class       volScalarField;
    location    "0.04";
    object      Ma;
}
// * * * * * * * * * * * * * * * * * * * * * * * * * * * * * * * * * * * * * //

dimensions      [0 0 0 0 0 0 0];

internalField   nonuniform List<scalar> 
4176
(
0.970192
0.970168
0.970113
0.970048
0.96994
0.969825
0.969664
0.969501
0.969285
0.969072
0.968804
0.968536
0.968224
0.967884
0.967548
0.967108
0.966785
0.966197
0.965931
0.965166
0.964986
0.964043
0.963985
0.962918
0.948662
0.948635
0.948576
0.948504
0.948389
0.948265
0.948092
0.947916
0.947685
0.947457
0.947171
0.946883
0.94655
0.94619
0.945822
0.945369
0.944994
0.944409
0.944068
0.943306
0.943049
0.942061
0.941953
0.940719
0.945477
0.94545
0.945389
0.945316
0.945198
0.945071
0.944895
0.944715
0.94448
0.944247
0.943955
0.943663
0.943322
0.942959
0.942577
0.942132
0.941722
0.94117
0.940769
0.940046
0.939726
0.938737
0.938581
0.937217
0.941061
0.941033
0.940971
0.940897
0.940777
0.940649
0.940469
0.940288
0.940049
0.939814
0.939517
0.939222
0.938879
0.938507
0.938134
0.937667
0.937283
0.936693
0.936333
0.93557
0.935289
0.934284
0.934145
0.932814
0.937911
0.937882
0.93782
0.937746
0.937624
0.937496
0.937314
0.937132
0.936891
0.936655
0.936356
0.93606
0.935717
0.935337
0.934976
0.934486
0.934134
0.933507
0.933188
0.932391
0.932149
0.93114
0.931019
0.929755
0.935223
0.935194
0.935131
0.935057
0.934935
0.934806
0.934624
0.934441
0.934199
0.933963
0.933662
0.933367
0.93302
0.932644
0.932278
0.931792
0.931436
0.930812
0.930495
0.929698
0.929459
0.928453
0.928333
0.927076
0.933438
0.933409
0.933346
0.933273
0.933151
0.933022
0.932839
0.932657
0.932415
0.932179
0.931878
0.931584
0.931235
0.930864
0.930492
0.930017
0.92965
0.929037
0.928716
0.927925
0.927683
0.926682
0.926557
0.925297
0.931974
0.931945
0.931882
0.93181
0.931687
0.931559
0.931376
0.931195
0.930952
0.930718
0.930416
0.930124
0.929773
0.929405
0.929032
0.92856
0.928193
0.927583
0.92726
0.926476
0.92623
0.925238
0.925109
0.923856
0.931199
0.93117
0.931106
0.931034
0.930911
0.930785
0.930601
0.930422
0.930178
0.929945
0.929644
0.929354
0.929001
0.928636
0.928263
0.927793
0.927426
0.926819
0.926495
0.925716
0.925468
0.924483
0.924351
0.923106
0.930768
0.930739
0.930676
0.930605
0.930482
0.930357
0.930173
0.929997
0.929752
0.929522
0.92922
0.928934
0.928581
0.928222
0.927846
0.927383
0.927015
0.926417
0.926087
0.925322
0.925068
0.924097
0.92396
0.922732
0.930903
0.930874
0.930811
0.930742
0.930618
0.930495
0.930311
0.930137
0.929892
0.929665
0.929363
0.92908
0.928726
0.928374
0.927996
0.927538
0.927168
0.926577
0.926245
0.925488
0.925231
0.924269
0.924129
0.92291
0.931305
0.931276
0.931213
0.931145
0.931022
0.930901
0.930716
0.930545
0.9303
0.930078
0.929775
0.929496
0.929142
0.928797
0.928416
0.927967
0.927594
0.927013
0.926677
0.925931
0.92567
0.924721
0.924577
0.92337
0.932119
0.932091
0.932029
0.931962
0.931838
0.93172
0.931535
0.931368
0.931122
0.930904
0.930601
0.930327
0.929974
0.929634
0.929251
0.928811
0.928436
0.927865
0.927526
0.926792
0.926527
0.925591
0.925444
0.92425
0.933196
0.933169
0.933106
0.933041
0.932918
0.932803
0.932617
0.932454
0.932208
0.931994
0.931691
0.931423
0.93107
0.930736
0.93035
0.929921
0.929542
0.928983
0.928639
0.927919
0.927649
0.926727
0.926576
0.925397
0.934571
0.934545
0.934482
0.934419
0.934296
0.934183
0.933998
0.933838
0.933592
0.933383
0.93308
0.932817
0.932464
0.932138
0.93175
0.931332
0.930949
0.930402
0.930055
0.929349
0.929075
0.928168
0.928012
0.926849
0.936165
0.936139
0.936077
0.936015
0.935892
0.935782
0.935597
0.935441
0.935195
0.934992
0.934688
0.934432
0.934079
0.93376
0.933371
0.932964
0.932579
0.932044
0.931694
0.931002
0.930724
0.929833
0.929673
0.928527
0.937961
0.937935
0.937874
0.937814
0.937692
0.937585
0.9374
0.937248
0.937002
0.936804
0.9365
0.93625
0.935897
0.935586
0.935196
0.934802
0.934413
0.933892
0.933538
0.932861
0.932579
0.931705
0.931542
0.930412
0.939959
0.939933
0.939872
0.939814
0.939692
0.939588
0.939404
0.939257
0.939011
0.938818
0.938515
0.938272
0.937919
0.937616
0.937226
0.936845
0.936451
0.935945
0.935588
0.934928
0.934642
0.933785
0.933619
0.932507
0.942111
0.942086
0.942026
0.94197
0.941849
0.941748
0.941564
0.941421
0.941177
0.94099
0.940688
0.940452
0.9401
0.939805
0.939416
0.939046
0.938649
0.938159
0.937799
0.937156
0.936866
0.936029
0.935859
0.934766
0.944391
0.944367
0.944307
0.944253
0.944133
0.944035
0.943853
0.943714
0.943471
0.94329
0.942989
0.94276
0.94241
0.942124
0.941737
0.941378
0.940977
0.940504
0.940141
0.939517
0.939223
0.938406
0.938232
0.937161
0.946782
0.946758
0.946699
0.946646
0.946528
0.946433
0.946253
0.946118
0.945877
0.945702
0.945404
0.945182
0.944834
0.944557
0.944171
0.943825
0.943421
0.942967
0.9426
0.941995
0.941697
0.940902
0.940725
0.939675
0.949257
0.949233
0.949175
0.949125
0.949008
0.948916
0.948738
0.948607
0.948369
0.948199
0.947904
0.94769
0.947345
0.947077
0.946694
0.946359
0.945956
0.945522
0.94515
0.944565
0.944263
0.943491
0.94331
0.942284
0.951795
0.951771
0.951715
0.951665
0.951551
0.951462
0.951286
0.95116
0.950925
0.950762
0.95047
0.950263
0.949921
0.949664
0.949283
0.948961
0.948559
0.948145
0.947769
0.947206
0.9469
0.946152
0.945967
0.944965
0.954372
0.954349
0.954293
0.954246
0.954133
0.954047
0.953875
0.953754
0.953522
0.953364
0.953076
0.952878
0.95254
0.952293
0.951916
0.951607
0.951207
0.950813
0.950433
0.949894
0.949584
0.948862
0.948674
0.947698
0.956968
0.956946
0.956892
0.956846
0.956736
0.956653
0.956484
0.956368
0.95614
0.955989
0.955705
0.955516
0.955182
0.954946
0.954573
0.954278
0.953881
0.953505
0.953122
0.952609
0.952298
0.951603
0.951412
0.950465
0.959562
0.95954
0.959487
0.959443
0.959336
0.959256
0.95909
0.958979
0.958755
0.958611
0.958331
0.958152
0.957822
0.957599
0.957229
0.956949
0.956557
0.956199
0.955815
0.955328
0.955016
0.95435
0.954158
0.953243
0.962134
0.962113
0.962061
0.962019
0.961915
0.961838
0.961677
0.96157
0.961351
0.961214
0.960939
0.96077
0.960444
0.960234
0.959869
0.959604
0.959216
0.958878
0.958494
0.958034
0.957722
0.957086
0.956892
0.95601
0.964662
0.964641
0.964591
0.964551
0.96445
0.964376
0.96422
0.964118
0.963905
0.963775
0.963506
0.963345
0.963027
0.962828
0.96247
0.96222
0.961838
0.961518
0.961138
0.960707
0.960391
0.959787
0.95959
0.958742
0.967131
0.96711
0.967062
0.967024
0.966926
0.966856
0.966704
0.966608
0.966401
0.966278
0.966016
0.965865
0.965554
0.965368
0.965017
0.964783
0.964407
0.964106
0.96373
0.963329
0.963011
0.962438
0.96224
0.961426
0.969515
0.969495
0.969449
0.969413
0.969319
0.969252
0.969106
0.969015
0.968815
0.9687
0.968446
0.968305
0.968002
0.967829
0.967486
0.967269
0.9669
0.966621
0.96625
0.965877
0.965558
0.965018
0.964818
0.96404
0.971804
0.971784
0.97174
0.971706
0.971616
0.971554
0.971413
0.971328
0.971134
0.971028
0.970781
0.970653
0.970357
0.9702
0.969864
0.969666
0.969305
0.969048
0.968685
0.968339
0.968018
0.967514
0.967314
0.966574
0.973972
0.973952
0.97391
0.973879
0.973793
0.973735
0.9736
0.973521
0.973335
0.973238
0.972999
0.972884
0.972595
0.972455
0.972126
0.971949
0.971595
0.971362
0.971007
0.970689
0.970368
0.969903
0.969702
0.969004
0.976009
0.97599
0.97595
0.975921
0.97584
0.975787
0.975658
0.975587
0.975407
0.975321
0.97509
0.974988
0.974707
0.974585
0.974263
0.974108
0.973761
0.973553
0.973204
0.972916
0.9726
0.972174
0.971973
0.971318
0.977892
0.977873
0.977835
0.977809
0.977732
0.977684
0.977561
0.977498
0.977326
0.977251
0.977028
0.97694
0.976667
0.976563
0.976248
0.976117
0.975775
0.975595
0.975252
0.974994
0.974686
0.974301
0.974101
0.973492
0.979615
0.979596
0.979561
0.979538
0.979466
0.979422
0.979306
0.97925
0.979086
0.979021
0.978807
0.978734
0.978469
0.978385
0.978076
0.97797
0.977633
0.977484
0.977145
0.976922
0.976619
0.976277
0.976079
0.975515
0.981153
0.981135
0.981102
0.981081
0.981013
0.980975
0.980865
0.980817
0.980661
0.980607
0.9804
0.980343
0.980085
0.980022
0.97972
0.979642
0.979308
0.979194
0.978859
0.978673
0.978376
0.978073
0.977878
0.977362
0.982502
0.982485
0.982454
0.982436
0.982372
0.982339
0.982236
0.982195
0.982046
0.982004
0.981805
0.981765
0.981515
0.981475
0.981178
0.981131
0.980801
0.980724
0.98039
0.980245
0.979953
0.97969
0.979495
0.979028
0.983638
0.983621
0.983593
0.983577
0.983518
0.98349
0.983393
0.98336
0.98322
0.98319
0.983
0.982977
0.982736
0.982719
0.982429
0.982412
0.982087
0.982046
0.981715
0.98161
0.98132
0.9811
0.980906
0.980489
0.98456
0.984544
0.984517
0.984504
0.984451
0.984428
0.984339
0.984316
0.984183
0.984167
0.983987
0.983982
0.983748
0.983757
0.983474
0.983485
0.983167
0.983158
0.982832
0.982766
0.982477
0.982302
0.982114
0.981748
0.985254
0.985238
0.985215
0.985204
0.985156
0.985139
0.985058
0.985043
0.984921
0.984917
0.984745
0.984759
0.984533
0.984564
0.984291
0.984326
0.984018
0.984037
0.983718
0.983689
0.983405
0.983277
0.983093
0.982781
0.985724
0.985707
0.985687
0.985679
0.985637
0.985624
0.98555
0.985544
0.985429
0.985437
0.985272
0.985302
0.985085
0.985133
0.98487
0.984929
0.984631
0.98468
0.984372
0.984387
0.984109
0.984031
0.983849
0.98359
0.985979
0.985963
0.985945
0.985939
0.985901
0.985892
0.985823
0.985823
0.985712
0.985732
0.985573
0.985617
0.985407
0.985471
0.985216
0.985294
0.985006
0.985092
0.984794
0.984847
0.984576
0.984541
0.984363
0.984154
0.985898
0.985882
0.985867
0.985863
0.985831
0.985828
0.985769
0.985782
0.985683
0.985721
0.985577
0.985642
0.985452
0.985546
0.985312
0.985428
0.985158
0.985276
0.984988
0.985078
0.984815
0.98482
0.984646
0.984482
0.985609
0.985594
0.985582
0.985582
0.985558
0.985562
0.985512
0.985535
0.985447
0.985496
0.985364
0.985443
0.985262
0.98537
0.985143
0.985273
0.985009
0.985146
0.984865
0.984985
0.984729
0.984789
0.984622
0.984535
0.985013
0.984997
0.984987
0.984988
0.984966
0.984974
0.984927
0.984955
0.984873
0.98493
0.984807
0.984899
0.984731
0.98486
0.98465
0.984813
0.984567
0.984753
0.984491
0.984669
0.984427
0.984541
0.984379
0.984332
0.984137
0.984122
0.984116
0.98412
0.984107
0.984122
0.984087
0.984127
0.98406
0.984133
0.984027
0.984139
0.983989
0.984141
0.983945
0.984132
0.983897
0.984103
0.983846
0.984043
0.983803
0.983943
0.983785
0.983794
0.983029
0.983013
0.98301
0.983014
0.983007
0.983023
0.982995
0.983038
0.982979
0.983058
0.982959
0.98308
0.982937
0.983102
0.982915
0.983121
0.982898
0.983136
0.982894
0.983141
0.982915
0.983123
0.982973
0.983049
0.981566
0.981551
0.981552
0.981557
0.981559
0.981576
0.981561
0.981613
0.981567
0.98166
0.981577
0.981718
0.981593
0.981784
0.981617
0.981855
0.981649
0.981922
0.981692
0.981973
0.981753
0.98199
0.981842
0.981953
0.979898
0.979883
0.979886
0.979893
0.979902
0.979921
0.979919
0.979974
0.979938
0.980041
0.979968
0.980121
0.980006
0.980211
0.980052
0.980307
0.98011
0.980405
0.980185
0.980499
0.98029
0.980579
0.98044
0.980624
0.977854
0.977839
0.977845
0.977854
0.977868
0.97789
0.977901
0.977957
0.977936
0.978049
0.977988
0.978157
0.978057
0.978284
0.978143
0.978426
0.978248
0.97858
0.978376
0.978734
0.978535
0.978871
0.978736
0.978964
0.975605
0.97559
0.975598
0.97561
0.975629
0.975656
0.975678
0.975735
0.975733
0.975851
0.975804
0.975988
0.9759
0.976145
0.976016
0.97632
0.976153
0.976508
0.976314
0.9767
0.97651
0.976884
0.976757
0.977041
0.972968
0.972953
0.972963
0.972978
0.973003
0.973034
0.973065
0.973125
0.97314
0.97326
0.973232
0.973426
0.973352
0.973616
0.973501
0.973829
0.973678
0.974065
0.973887
0.974314
0.974137
0.974562
0.974441
0.974783
0.970139
0.970124
0.970136
0.970154
0.970183
0.970219
0.970258
0.970322
0.970354
0.970475
0.970469
0.97067
0.970612
0.970893
0.970792
0.971142
0.971005
0.971417
0.971252
0.971709
0.971542
0.972003
0.971888
0.972277
0.966899
0.966885
0.966899
0.966919
0.966953
0.966994
0.967041
0.967112
0.967158
0.967282
0.967297
0.967501
0.967465
0.967759
0.967673
0.968046
0.967923
0.968363
0.968212
0.968705
0.96855
0.969058
0.968951
0.969399
0.963497
0.963483
0.963499
0.963522
0.963559
0.963605
0.963658
0.963735
0.963793
0.963921
0.963954
0.964163
0.964148
0.964451
0.964382
0.964774
0.964665
0.965131
0.964993
0.965516
0.965372
0.965918
0.965817
0.96631
0.959658
0.959644
0.959662
0.959687
0.959729
0.959779
0.95984
0.959924
0.959993
0.960127
0.960178
0.960392
0.960399
0.96071
0.960662
0.961072
0.960977
0.961469
0.961345
0.961901
0.961768
0.962356
0.962262
0.96281
0.955689
0.955675
0.955694
0.955721
0.955767
0.955822
0.955889
0.955978
0.956057
0.956196
0.956263
0.956481
0.956507
0.956825
0.956797
0.95722
0.957141
0.957656
0.957545
0.958129
0.958008
0.958632
0.958545
0.959139
0.951264
0.951251
0.951271
0.951301
0.951351
0.95141
0.951483
0.951579
0.951668
0.951813
0.951895
0.952119
0.952165
0.952491
0.952484
0.95292
0.952858
0.953396
0.953299
0.953912
0.953803
0.954464
0.954383
0.955027
0.946735
0.946721
0.946743
0.946775
0.946828
0.946891
0.946971
0.947072
0.947169
0.94732
0.947415
0.947645
0.947708
0.94804
0.948052
0.948498
0.948455
0.94901
0.948926
0.949565
0.949467
0.950161
0.950087
0.950774
0.941748
0.941734
0.941758
0.941791
0.941848
0.941915
0.942
0.942107
0.942213
0.94237
0.942478
0.942714
0.942794
0.943133
0.943164
0.943622
0.943596
0.944169
0.944099
0.944764
0.944676
0.945405
0.945337
0.946069
0.936673
0.93666
0.936685
0.936719
0.936779
0.93685
0.93694
0.937052
0.937165
0.937329
0.937448
0.937689
0.937784
0.938129
0.938177
0.938644
0.938635
0.939223
0.939166
0.939854
0.939777
0.940535
0.940474
0.941246
0.931153
0.931139
0.931165
0.931201
0.931264
0.931338
0.931433
0.93155
0.93167
0.93184
0.931969
0.932216
0.932325
0.932678
0.932742
0.933217
0.933225
0.933827
0.933784
0.934494
0.934427
0.935216
0.93516
0.935972
0.925555
0.925541
0.925568
0.925605
0.925671
0.925747
0.925846
0.925967
0.926094
0.926269
0.926408
0.926661
0.926782
0.927141
0.927219
0.927703
0.927726
0.92834
0.92831
0.92904
0.928982
0.929797
0.929747
0.930595
0.919533
0.919519
0.919547
0.919585
0.919653
0.919732
0.919836
0.91996
0.920093
0.920273
0.920421
0.920678
0.920811
0.921176
0.921268
0.92176
0.921796
0.922423
0.922405
0.923153
0.923104
0.923945
0.923899
0.924782
0.91344
0.913425
0.913454
0.913493
0.913563
0.913644
0.913752
0.91388
0.914018
0.914203
0.914358
0.91462
0.914763
0.915133
0.915237
0.915736
0.915785
0.916422
0.916415
0.91718
0.91714
0.918003
0.917961
0.918876
0.906952
0.906937
0.906967
0.907006
0.907079
0.907161
0.907272
0.907403
0.907546
0.907735
0.907897
0.908163
0.908315
0.90869
0.908805
0.909311
0.909371
0.910018
0.910021
0.910801
0.910768
0.911652
0.911614
0.912558
0.900398
0.900383
0.900413
0.900453
0.900527
0.900611
0.900725
0.900859
0.901006
0.901198
0.901366
0.901635
0.901796
0.902175
0.902299
0.902812
0.902881
0.903538
0.903549
0.904343
0.904316
0.905219
0.905185
0.906154
0.893484
0.893468
0.893498
0.893538
0.893614
0.893699
0.893815
0.893951
0.894102
0.894297
0.89447
0.894742
0.894911
0.895293
0.895425
0.895943
0.896021
0.896686
0.896705
0.89751
0.897488
0.898409
0.898377
0.89937
0.886509
0.886493
0.886524
0.886564
0.88664
0.886726
0.886845
0.886982
0.887137
0.887334
0.887512
0.887785
0.887961
0.888346
0.888486
0.889008
0.889093
0.889765
0.88979
0.890607
0.890589
0.891525
0.891494
0.892509
0.879209
0.879192
0.879223
0.879263
0.87934
0.879427
0.879547
0.879685
0.879843
0.880041
0.880223
0.880498
0.88068
0.881067
0.881212
0.881739
0.881829
0.882508
0.882537
0.883363
0.883348
0.884298
0.884267
0.8853
0.871858
0.871841
0.871872
0.871911
0.871989
0.872075
0.872198
0.872336
0.872496
0.872695
0.872881
0.873157
0.873344
0.873731
0.873882
0.874412
0.874506
0.875191
0.875223
0.876058
0.876043
0.877006
0.876975
0.878024
0.864216
0.864198
0.864229
0.864267
0.864346
0.864432
0.864556
0.864694
0.864856
0.865055
0.865244
0.86552
0.865712
0.866099
0.866255
0.866787
0.866883
0.867573
0.867606
0.86845
0.868434
0.869408
0.869375
0.870437
0.856532
0.856513
0.856544
0.856582
0.856662
0.856747
0.856873
0.85701
0.857175
0.857373
0.857565
0.85784
0.858037
0.858423
0.858582
0.859116
0.859213
0.859908
0.85994
0.860791
0.860773
0.861757
0.861722
0.862795
0.848591
0.848571
0.848602
0.848639
0.848719
0.848804
0.84893
0.849067
0.849234
0.849431
0.849626
0.8499
0.8501
0.850485
0.850647
0.851182
0.851279
0.85198
0.852006
0.852868
0.852843
0.853836
0.853797
0.854879
0.84062
0.8406
0.84063
0.840666
0.840747
0.84083
0.840958
0.841093
0.841261
0.841457
0.841654
0.841927
0.842131
0.842513
0.842679
0.843214
0.843311
0.844017
0.84404
0.844907
0.844876
0.845878
0.845833
0.846922
0.832426
0.832405
0.832436
0.83247
0.83255
0.832632
0.832759
0.832893
0.833062
0.833256
0.833454
0.833725
0.833932
0.83431
0.834481
0.835014
0.835111
0.835823
0.835838
0.836718
0.836678
0.837688
0.837636
0.838729
0.82422
0.824199
0.824228
0.824261
0.82434
0.824419
0.824546
0.824677
0.824845
0.825036
0.825235
0.825501
0.82571
0.826082
0.826257
0.826787
0.826886
0.8276
0.827613
0.828501
0.828454
0.829475
0.829415
0.830513
0.81583
0.815808
0.815836
0.815866
0.815944
0.81602
0.816146
0.816272
0.816439
0.816625
0.816822
0.817083
0.817291
0.817655
0.817832
0.818354
0.818456
0.819165
0.819177
0.820072
0.820017
0.821052
0.820987
0.822097
0.807445
0.807422
0.80745
0.807477
0.807555
0.807627
0.807751
0.807873
0.808038
0.808217
0.808413
0.808666
0.808872
0.809226
0.809401
0.809913
0.810013
0.810712
0.810719
0.811614
0.811545
0.812594
0.812523
0.813654
0.798904
0.798879
0.798908
0.798932
0.79901
0.799078
0.799203
0.79932
0.799486
0.799657
0.799854
0.800097
0.800303
0.800646
0.800819
0.801323
0.801405
0.80211
0.80208
0.802991
0.802883
0.803936
0.803846
0.804972
0.790363
0.790336
0.790369
0.790388
0.790471
0.790536
0.790666
0.790778
0.790951
0.791116
0.791321
0.791553
0.791767
0.792097
0.792273
0.792779
0.792823
0.793562
0.793469
0.79441
0.794246
0.795299
0.795169
0.796245
0.781651
0.781621
0.781658
0.781678
0.781766
0.781835
0.78197
0.782088
0.782268
0.782438
0.782652
0.782886
0.783112
0.783438
0.783631
0.784127
0.784163
0.784928
0.784795
0.785762
0.785552
0.786617
0.786441
0.787477
0.772878
0.772849
0.772888
0.772917
0.773006
0.773091
0.773231
0.773369
0.773556
0.773749
0.773973
0.774231
0.774472
0.774814
0.775036
0.775514
0.775605
0.77636
0.776229
0.777235
0.776992
0.778099
0.777886
0.778938
0.763858
0.763831
0.763872
0.763913
0.764009
0.764114
0.764265
0.76443
0.764633
0.76486
0.765105
0.7654
0.765668
0.766047
0.766309
0.766799
0.766975
0.767708
0.767644
0.768685
0.768431
0.769615
0.769377
0.770497
0.754665
0.754642
0.754686
0.754741
0.754848
0.754974
0.755144
0.75534
0.75557
0.755837
0.756116
0.756461
0.756772
0.757205
0.757523
0.758063
0.758336
0.759072
0.759135
0.760198
0.759996
0.761287
0.761038
0.76228
0.745119
0.745098
0.745147
0.745215
0.745335
0.745482
0.745675
0.745902
0.746164
0.746474
0.746796
0.747196
0.747563
0.748064
0.748453
0.74907
0.749446
0.750231
0.750461
0.75156
0.751499
0.752918
0.752692
0.754127
0.735295
0.735277
0.735329
0.735408
0.735541
0.735708
0.735922
0.736178
0.736471
0.736821
0.737186
0.737639
0.738063
0.738633
0.739098
0.739802
0.740282
0.741154
0.741562
0.742724
0.742889
0.744451
0.744333
0.746067
0.725049
0.725033
0.725088
0.725175
0.725317
0.725499
0.725731
0.726009
0.726327
0.726709
0.727108
0.727605
0.728075
0.728703
0.729231
0.730011
0.730579
0.731543
0.732102
0.73334
0.733763
0.735439
0.735553
0.737695
0.714487
0.714473
0.714529
0.71462
0.714769
0.714959
0.715201
0.715493
0.715827
0.716229
0.71665
0.717173
0.717674
0.718338
0.718907
0.719734
0.72036
0.721385
0.722034
0.723333
0.723937
0.725664
0.726027
0.728527
0.70352
0.703505
0.703561
0.703653
0.703803
0.703996
0.704242
0.704538
0.704879
0.705287
0.705718
0.70625
0.706764
0.707439
0.708026
0.708867
0.709516
0.710557
0.711234
0.712558
0.713192
0.71495
0.715351
0.717907
0.692286
0.692268
0.692322
0.692411
0.692559
0.692749
0.692994
0.693286
0.693626
0.694028
0.694458
0.694983
0.695497
0.696161
0.696748
0.697576
0.698221
0.699245
0.699913
0.701222
0.701805
0.703562
0.703875
0.70629
0.680728
0.680705
0.680757
0.680841
0.680985
0.681166
0.681405
0.681687
0.682019
0.682407
0.682829
0.683333
0.683839
0.684477
0.685052
0.685847
0.686474
0.687459
0.688105
0.689361
0.689904
0.691598
0.691875
0.694157
0.668995
0.668966
0.669018
0.669091
0.669232
0.669399
0.669632
0.669894
0.670219
0.67058
0.670996
0.671463
0.671963
0.672554
0.673121
0.673864
0.674472
0.675402
0.67602
0.677206
0.677715
0.67932
0.679577
0.681728
0.657047
0.657011
0.657065
0.65712
0.657264
0.657405
0.657642
0.657867
0.658199
0.658509
0.658936
0.659339
0.659853
0.660366
0.660947
0.661603
0.662216
0.663063
0.663659
0.664763
0.665243
0.666743
0.666987
0.669001
0.645027
0.644986
0.64504
0.64508
0.645223
0.64534
0.645575
0.645765
0.646098
0.64636
0.64679
0.647131
0.647649
0.648088
0.648673
0.649243
0.649858
0.650609
0.651195
0.652208
0.652663
0.654053
0.654286
0.65616
0.632897
0.632853
0.6329
0.632935
0.63306
0.633173
0.633381
0.633565
0.633863
0.634113
0.634504
0.634824
0.635303
0.635706
0.636256
0.636771
0.637356
0.638034
0.638595
0.639515
0.639954
0.64123
0.641452
0.643183
0.620795
0.620749
0.620786
0.62082
0.620925
0.621036
0.621213
0.621395
0.62165
0.621898
0.622237
0.622551
0.622971
0.62336
0.623849
0.624336
0.624865
0.625491
0.62601
0.626841
0.62727
0.628426
0.628636
0.630224
0.608668
0.608619
0.608649
0.608678
0.608768
0.60887
0.609024
0.609194
0.609418
0.609653
0.609949
0.610248
0.610616
0.610986
0.611417
0.611875
0.612347
0.612926
0.613398
0.614152
0.61456
0.615592
0.615794
0.617239
0.59665
0.5966
0.596623
0.596646
0.596723
0.596814
0.596949
0.597103
0.5973
0.597516
0.597777
0.598054
0.598379
0.598721
0.599104
0.599525
0.599947
0.600475
0.600903
0.601584
0.601962
0.602875
0.603074
0.604379
0.584678
0.584625
0.584643
0.584659
0.584724
0.584803
0.584921
0.585058
0.585231
0.585425
0.585655
0.585906
0.586193
0.586503
0.586843
0.587223
0.5876
0.588075
0.588459
0.589069
0.589412
0.590223
0.590416
0.591584
0.572879
0.572825
0.572837
0.572847
0.572902
0.572968
0.57307
0.57319
0.57334
0.573512
0.573714
0.573937
0.574189
0.574466
0.574765
0.575104
0.575438
0.57586
0.576202
0.576743
0.577048
0.577767
0.577951
0.578988
0.561168
0.561113
0.56112
0.561123
0.561167
0.561223
0.561308
0.561412
0.56154
0.561691
0.561864
0.562061
0.56228
0.562524
0.562785
0.563084
0.563377
0.563748
0.56405
0.564525
0.564792
0.565426
0.565591
0.566499
0.549707
0.54965
0.549653
0.549651
0.549685
0.549729
0.5498
0.549887
0.549995
0.550124
0.550272
0.550442
0.550629
0.550841
0.551066
0.551325
0.551579
0.551899
0.552162
0.552573
0.552806
0.553358
0.553498
0.554279
0.538321
0.538263
0.538262
0.538254
0.538279
0.538313
0.538368
0.538441
0.538529
0.538638
0.53876
0.538906
0.539063
0.539244
0.539434
0.539655
0.539872
0.540145
0.540371
0.540721
0.54092
0.541394
0.54151
0.542179
0.527289
0.527231
0.527226
0.527212
0.527229
0.527252
0.527295
0.527352
0.527422
0.527511
0.52761
0.52773
0.527859
0.528009
0.528167
0.52835
0.528533
0.528757
0.528949
0.529238
0.529408
0.529803
0.529895
0.530463
0.516285
0.516226
0.516217
0.516199
0.516207
0.516221
0.516251
0.516294
0.516346
0.516417
0.516493
0.51659
0.516691
0.516813
0.51694
0.517087
0.517237
0.517417
0.517577
0.517808
0.51795
0.518271
0.518345
0.518814
0.50572
0.505661
0.50565
0.505627
0.505628
0.505633
0.50565
0.50568
0.505716
0.505768
0.505824
0.505897
0.505974
0.506067
0.506165
0.506278
0.506397
0.506533
0.506662
0.506838
0.506955
0.507202
0.507262
0.507634
0.495169
0.49511
0.495096
0.495069
0.495062
0.495059
0.495065
0.495082
0.495101
0.495137
0.495172
0.495224
0.495276
0.495343
0.495413
0.495493
0.495581
0.495678
0.495776
0.4959
0.495991
0.496168
0.496215
0.496492
0.485069
0.485011
0.484994
0.484963
0.48495
0.484939
0.484934
0.484939
0.484944
0.484964
0.48498
0.485012
0.485041
0.485083
0.485127
0.485177
0.485236
0.485295
0.485364
0.48544
0.485504
0.485617
0.485648
0.485834
0.475032
0.474974
0.474954
0.47492
0.474901
0.474882
0.474868
0.474861
0.474853
0.474857
0.474855
0.474868
0.474875
0.474893
0.474912
0.474932
0.474964
0.474986
0.475027
0.475057
0.475097
0.475148
0.475164
0.475263
0.465393
0.465336
0.465314
0.465277
0.465252
0.465227
0.465203
0.465186
0.465165
0.465155
0.465137
0.465131
0.465119
0.465114
0.465111
0.465103
0.465111
0.465098
0.465116
0.465101
0.46512
0.465113
0.465117
0.465136
0.455895
0.455838
0.455815
0.455775
0.455745
0.455713
0.45568
0.455654
0.45562
0.455596
0.455563
0.45554
0.45551
0.455483
0.455459
0.455424
0.455409
0.455363
0.455358
0.455301
0.455302
0.455239
0.455233
0.455176
0.446727
0.446671
0.446647
0.446604
0.446569
0.446532
0.446491
0.446455
0.446411
0.446375
0.446328
0.446288
0.446242
0.446194
0.446152
0.446092
0.446057
0.44598
0.445955
0.445859
0.445843
0.445729
0.445714
0.44559
0.437761
0.437707
0.43768
0.437635
0.437596
0.437553
0.437506
0.437461
0.437407
0.437358
0.437299
0.437243
0.437182
0.437115
0.437055
0.436971
0.436918
0.436811
0.436769
0.436635
0.436604
0.436442
0.436419
0.436231
0.429079
0.429025
0.428998
0.428951
0.428908
0.42886
0.428806
0.428753
0.428689
0.42863
0.428559
0.428489
0.428413
0.428328
0.428253
0.428146
0.428077
0.427942
0.427884
0.427715
0.427671
0.427465
0.427434
0.42719
0.420628
0.420575
0.420547
0.420498
0.420452
0.420399
0.420339
0.420279
0.420207
0.420137
0.420055
0.419971
0.419883
0.419781
0.419692
0.419564
0.419479
0.419318
0.419245
0.419044
0.418988
0.418741
0.418702
0.418405
0.412434
0.412383
0.412354
0.412303
0.412254
0.412197
0.412131
0.412064
0.411985
0.411904
0.411813
0.411716
0.411617
0.411498
0.411396
0.411249
0.41115
0.410965
0.410879
0.410647
0.41058
0.410294
0.410249
0.409904
0.40448
0.40443
0.4044
0.404348
0.404296
0.404235
0.404165
0.404091
0.404004
0.403915
0.403815
0.403706
0.403596
0.403462
0.403348
0.403182
0.40307
0.402863
0.402764
0.402505
0.402426
0.402105
0.402054
0.401662
0.39677
0.396721
0.39669
0.396637
0.396583
0.396518
0.396443
0.396363
0.39627
0.396172
0.396064
0.395943
0.395824
0.395676
0.39555
0.395368
0.395243
0.395016
0.394904
0.394619
0.39453
0.394176
0.394119
0.393686
0.389295
0.389248
0.389217
0.389162
0.389106
0.389037
0.388959
0.388872
0.388774
0.388667
0.388552
0.388421
0.388293
0.388131
0.387995
0.387797
0.387661
0.387415
0.387291
0.386983
0.386883
0.386499
0.386436
0.385962
0.382054
0.382008
0.381976
0.381921
0.381863
0.38179
0.381709
0.381616
0.381514
0.381398
0.381277
0.381136
0.380999
0.380826
0.38068
0.380467
0.38032
0.380057
0.379921
0.379592
0.379482
0.37907
0.379001
0.37849
0.375041
0.374997
0.374965
0.374908
0.374848
0.374773
0.374688
0.37459
0.374484
0.374361
0.374234
0.374082
0.373939
0.373754
0.3736
0.373373
0.373216
0.372936
0.372789
0.372441
0.37232
0.371884
0.371807
0.371262
0.368252
0.368209
0.368177
0.36812
0.368058
0.36798
0.367893
0.36779
0.367679
0.367549
0.367418
0.367256
0.367108
0.366911
0.366749
0.366509
0.366343
0.366049
0.365892
0.365525
0.365395
0.364935
0.364853
0.364275
0.361682
0.36164
0.361608
0.36155
0.361487
0.361406
0.361317
0.361209
0.361095
0.360958
0.360823
0.360653
0.360499
0.360291
0.360124
0.359871
0.359699
0.359388
0.359224
0.358839
0.358702
0.35822
0.358134
0.357525
0.355325
0.355285
0.355252
0.355194
0.35513
0.355046
0.354955
0.354843
0.354727
0.354583
0.354445
0.354265
0.354108
0.353889
0.353718
0.353452
0.353276
0.352949
0.352782
0.352378
0.352239
0.351733
0.351648
0.351012
0.349177
0.349138
0.349105
0.349046
0.348982
0.348895
0.348803
0.348686
0.348568
0.348418
0.348277
0.34809
0.34793
0.3477
0.347527
0.347247
0.347069
0.346726
0.346559
0.346134
0.345998
0.345467
0.345384
0.344727
0.343232
0.343194
0.343162
0.343102
0.343037
0.342948
0.342855
0.342734
0.342614
0.342458
0.342315
0.34212
0.341958
0.341719
0.341543
0.341251
0.341072
0.340714
0.340546
0.340104
0.339968
0.339419
0.339336
0.33866
0.337485
0.337449
0.337416
0.337356
0.33729
0.337199
0.337105
0.33698
0.336859
0.336698
0.336553
0.336351
0.336186
0.335939
0.33576
0.335459
0.335276
0.334907
0.334737
0.334281
0.334143
0.333578
0.333494
0.332801
0.33193
0.331895
0.331863
0.331802
0.331736
0.331643
0.331548
0.33142
0.331297
0.331132
0.330984
0.330777
0.330608
0.330355
0.330172
0.329863
0.329677
0.329298
0.329125
0.328657
0.328517
0.327938
0.327853
0.327143
0.326563
0.326529
0.326496
0.326435
0.326369
0.326275
0.326178
0.326047
0.325923
0.325754
0.325604
0.325392
0.32522
0.324962
0.324774
0.324459
0.324268
0.323882
0.323704
0.323227
0.323083
0.322492
0.322405
0.321679
0.321377
0.321345
0.321312
0.321251
0.321184
0.321088
0.32099
0.320858
0.320731
0.320559
0.320406
0.320191
0.320016
0.319753
0.319561
0.319241
0.319045
0.318652
0.318469
0.317984
0.317836
0.317235
0.317145
0.316405
0.316368
0.316337
0.316304
0.316243
0.316175
0.316079
0.31598
0.315845
0.315717
0.315542
0.315387
0.315168
0.314989
0.314723
0.314527
0.314202
0.314001
0.313604
0.313416
0.312924
0.312771
0.31216
0.312068
0.311314
0.31153
0.3115
0.311467
0.311406
0.311338
0.311241
0.31114
0.311004
0.310874
0.310697
0.310539
0.310318
0.310136
0.309866
0.309666
0.309338
0.309133
0.30873
0.308538
0.308039
0.307883
0.307263
0.30717
0.306403
0.306858
0.30683
0.306796
0.306736
0.306667
0.306569
0.306468
0.30633
0.306199
0.30602
0.305859
0.305636
0.305451
0.305178
0.304975
0.304643
0.304434
0.304026
0.30383
0.303326
0.303167
0.302538
0.302444
0.301665
0.302348
0.302321
0.302287
0.302227
0.302157
0.302059
0.301956
0.301818
0.301685
0.301504
0.301342
0.301117
0.300929
0.300653
0.300447
0.300111
0.2999
0.299488
0.299289
0.298778
0.298618
0.29798
0.297886
0.297097
0.297994
0.297968
0.297934
0.297874
0.297804
0.297706
0.297602
0.297463
0.297328
0.297146
0.296982
0.296755
0.296565
0.296287
0.296079
0.295739
0.295526
0.295108
0.294909
0.294391
0.294231
0.293584
0.293491
0.292693
0.293792
0.293767
0.293733
0.293674
0.293602
0.293504
0.293399
0.29326
0.293123
0.292941
0.292774
0.292545
0.292354
0.292073
0.291864
0.29152
0.291307
0.290883
0.290686
0.29016
0.290002
0.289346
0.289255
0.288448
0.289737
0.289713
0.289678
0.28962
0.289547
0.289449
0.289343
0.289204
0.289065
0.288882
0.288715