/*--------------------------------*- C++ -*----------------------------------*\
  =========                 |
  \\      /  F ield         | OpenFOAM: The Open Source CFD Toolbox
   \\    /   O peration     | Website:  https://openfoam.org
    \\  /    A nd           | Version:  10
     \\/     M anipulation  |
\*---------------------------------------------------------------------------*/
FoamFile
{
    format      ascii;
    class       volScalarField;
    location    "0.04";
    object      p;
}
// * * * * * * * * * * * * * * * * * * * * * * * * * * * * * * * * * * * * * //

dimensions      [1 -1 -2 0 0 0 0];

internalField   nonuniform List<scalar> 
4176
(
2834.25
2834.33
2834.5
2834.75
2835.11
2835.52
2836.06
2836.64
2837.35
2838.12
2838.99
2839.97
2840.96
2842.21
2843.26
2844.88
2845.86
2847.99
2848.79
2851.5
2852.04
2855.3
2855.52
2859.05
2843.89
2843.97
2844.15
2844.41
2844.77
2845.2
2845.75
2846.35
2847.08
2847.86
2848.76
2849.76
2850.79
2852.04
2853.18
2854.71
2855.94
2857.82
2859.03
2861.45
2862.43
2865.66
2866.18
2870.46
2864.33
2864.42
2864.6
2864.86
2865.23
2865.67
2866.23
2866.84
2867.58
2868.38
2869.29
2870.3
2871.35
2872.62
2873.77
2875.33
2876.55
2878.47
2879.65
2882.11
2883.07
2886.35
2886.86
2891.26
2880.74
2880.82
2881.01
2881.27
2881.65
2882.09
2882.66
2883.27
2884.03
2884.83
2885.76
2886.77
2887.82
2889.13
2890.22
2891.9
2892.95
2895.09
2896.03
2898.71
2899.44
2902.77
2903.18
2907.27
2894.97
2895.06
2895.25
2895.51
2895.89
2896.33
2896.91
2897.52
2898.29
2899.08
2900.02
2901.03
2902.09
2903.4
2904.48
2906.19
2907.21
2909.37
2910.29
2912.98
2913.68
2917
2917.38
2921.37
2907.17
2907.26
2907.45
2907.71
2908.1
2908.53
2909.11
2909.72
2910.49
2911.29
2912.23
2913.24
2914.31
2915.59
2916.72
2918.36
2919.45
2921.55
2922.5
2925.17
2925.88
2929.19
2929.59
2933.63
2917.58
2917.67
2917.86
2918.12
2918.51
2918.94
2919.52
2920.13
2920.9
2921.69
2922.64
2923.64
2924.72
2925.99
2927.12
2928.75
2929.85
2931.93
2932.89
2935.53
2936.25
2939.54
2939.95
2943.97
2926.46
2926.54
2926.73
2926.99
2927.38
2927.81
2928.39
2928.99
2929.77
2930.55
2931.5
2932.49
2933.58
2934.83
2935.97
2937.58
2938.68
2940.75
2941.71
2944.32
2945.07
2948.31
2948.73
2952.72
2934.15
2934.23
2934.42
2934.67
2935.07
2935.49
2936.08
2936.67
2937.45
2938.22
2939.18
2940.15
2941.25
2942.48
2943.63
2945.23
2946.33
2948.37
2949.35
2951.93
2952.69
2955.9
2956.33
2960.29
2940.39
2940.47
2940.66
2940.91
2941.31
2941.72
2942.31
2942.9
2943.68
2944.44
2945.39
2946.35
2947.46
2948.66
2949.82
2951.39
2952.5
2954.51
2955.5
2958.04
2958.81
2961.98
2962.42
2966.33
2945.57
2945.65
2945.84
2946.09
2946.48
2946.89
2947.48
2948.05
2948.83
2949.58
2950.54
2951.48
2952.59
2953.77
2954.94
2956.47
2957.6
2959.57
2960.58
2963.08
2963.86
2966.99
2967.44
2971.32
2949.77
2949.85
2950.04
2950.28
2950.67
2951.08
2951.67
2952.23
2953.01
2953.75
2954.7
2955.63
2956.74
2957.89
2959.07
2960.57
2961.71
2963.64
2964.67
2967.11
2967.92
2971
2971.46
2975.29
2953.3
2953.38
2953.57
2953.81
2954.2
2954.59
2955.18
2955.73
2956.51
2957.23
2958.19
2959.09
2960.2
2961.33
2962.52
2963.98
2965.14
2967.02
2968.06
2970.46
2971.27
2974.3
2974.77
2978.55
2956.04
2956.11
2956.3
2956.54
2956.93
2957.31
2957.9
2958.44
2959.22
2959.92
2960.87
2961.76
2962.86
2963.96
2965.17
2966.58
2967.75
2969.59
2970.64
2972.99
2973.82
2976.79
2977.27
2981.01
2958.27
2958.34
2958.53
2958.76
2959.15
2959.52
2960.11
2960.63
2961.41
2962.1
2963.05
2963.91
2965.02
2966.09
2967.3
2968.67
2969.85
2971.64
2972.71
2975
2975.84
2978.76
2979.25
2982.93
2960.03
2960.1
2960.29
2960.51
2960.9
2961.27
2961.85
2962.36
2963.14
2963.8
2964.76
2965.6
2966.7
2967.74
2968.96
2970.28
2971.47
2973.21
2974.29
2976.52
2977.38
2980.24
2980.74
2984.35
2961.41
2961.48
2961.67
2961.89
2962.27
2962.63
2963.21
2963.71
2964.48
2965.13
2966.07
2966.89
2967.99
2969.01
2970.22
2971.49
2972.7
2974.38
2975.48
2977.65
2978.52
2981.31
2981.82
2985.37
2962.52
2962.59
2962.77
2962.99
2963.37
2963.71
2964.29
2964.77
2965.54
2966.17
2967.11
2967.91
2969
2969.99
2971.2
2972.42
2973.65
2975.27
2976.38
2978.48
2979.37
2982.08
2982.6
2986.09
2963.46
2963.52
2963.7
2963.91
2964.29
2964.63
2965.19
2965.67
2966.42
2967.04
2967.97
2968.74
2969.83
2970.78
2971.98
2973.17
2974.41
2975.96
2977.08
2979.12
2980.02
2982.66
2983.19
2986.6
2964.28
2964.35
2964.52
2964.73
2965.09
2965.42
2965.99
2966.44
2967.19
2967.79
2968.71
2969.45
2970.53
2971.45
2972.65
2973.79
2975.04
2976.53
2977.66
2979.62
2980.53
2983.1
2983.64
2986.97
2965.09
2965.15
2965.32
2965.52
2965.89
2966.21
2966.76
2967.2
2967.94
2968.51
2969.43
2970.14
2971.21
2972.1
2973.29
2974.38
2975.63
2977.05
2978.2
2980.08
2981.01
2983.49
2984.04
2987.29
2965.96
2966.02
2966.19
2966.38
2966.74
2967.05
2967.59
2968.02
2968.75
2969.3
2970.2
2970.89
2971.94
2972.79
2973.97
2975.02
2976.27
2977.61
2978.77
2980.58
2981.52
2983.91
2984.47
2987.64
2966.96
2967.02
2967.18
2967.37
2967.72
2968.02
2968.55
2968.97
2969.68
2970.21
2971.09
2971.75
2972.79
2973.61
2974.77
2975.78
2977.01
2978.28
2979.45
2981.18
2982.13
2984.44
2985
2988.07
2968.17
2968.23
2968.39
2968.57
2968.91
2969.2
2969.72
2970.12
2970.81
2971.32
2972.19
2972.82
2973.84
2974.62
2975.76
2976.72
2977.94
2979.14
2980.32
2981.96
2982.91
2985.12
2985.7
2988.67
2969.65
2969.71
2969.87
2970.04
2970.37
2970.65
2971.16
2971.54
2972.22
2972.7
2973.56
2974.15
2975.16
2975.89
2977.02
2977.92
2979.13
2980.26
2981.45
2982.99
2983.95
2986.05
2986.64
2989.5
2971.48
2971.54
2971.69
2971.86
2972.18
2972.45
2972.94
2973.3
2973.97
2974.43
2975.26
2975.82
2976.81
2977.5
2978.61
2979.45
2980.65
2981.71
2982.9
2984.34
2985.3
2987.3
2987.88
2990.62
2973.73
2973.78
2973.93
2974.09
2974.4
2974.66
2975.13
2975.48
2976.13
2976.55
2977.37
2977.89
2978.86
2979.5
2980.59
2981.38
2982.55
2983.55
2984.72
2986.07
2987.03
2988.92
2989.51
2992.13
2976.44
2976.5
2976.64
2976.79
2977.09
2977.34
2977.8
2978.12
2978.75
2979.15
2979.94
2980.43
2981.37
2981.97
2983.03
2983.77
2984.92
2985.84
2987
2988.24
2989.21
2990.98
2991.58
2994.07
2979.7
2979.75
2979.89
2980.03
2980.32
2980.55
2980.99
2981.3
2981.9
2982.27
2983.04
2983.49
2984.41
2984.95
2985.99
2986.66
2987.79
2988.64
2989.78
2990.91
2991.89
2993.54
2994.14
2996.5
2983.55
2983.6
2983.73
2983.87
2984.14
2984.36
2984.78
2985.06
2985.65
2985.99
2986.73
2987.13
2988.02
2988.51
2989.52
2990.13
2991.23
2992
2993.12
2994.15
2995.12
2996.65
2997.25
2999.48
2988.06
2988.11
2988.23
2988.36
2988.62
2988.82
2989.22
2989.48
2990.04
2990.35
2991.06
2991.42
2992.28
2992.71
2993.7
2994.23
2995.3
2995.99
2997.07
2998
2998.98
3000.37
3000.98
3003.05
2993.28
2993.32
2993.44
2993.56
2993.81
2993.99
2994.37
2994.61
2995.14
2995.41
2996.09
2996.41
2997.24
2997.61
2998.57
2999.02
3000.06
3000.66
3001.71
3002.54
3003.51
3004.75
3005.36
3007.27
2999.26
2999.3
2999.41
2999.53
2999.76
2999.92
3000.28
3000.49
3000.99
3001.23
3001.88
3002.14
3002.95
3003.25
3004.18
3004.55
3005.57
3006.07
3007.1
3007.82
3008.75
3009.85
3010.46
3012.21
3006.05
3006.1
3006.2
3006.3
3006.52
3006.66
3007
3007.18
3007.66
3007.85
3008.48
3008.68
3009.46
3009.69
3010.6
3010.88
3011.87
3012.27
3013.28
3013.87
3014.79
3015.73
3016.33
3017.91
3013.71
3013.75
3013.84
3013.94
3014.14
3014.27
3014.58
3014.73
3015.18
3015.33
3015.93
3016.08
3016.82
3016.97
3017.86
3018.04
3019.02
3019.3
3020.29
3020.76
3021.65
3022.44
3023.03
3024.44
3022.26
3022.31
3022.4
3022.48
3022.66
3022.77
3023.07
3023.18
3023.6
3023.71
3024.28
3024.36
3025.08
3025.15
3026.02
3026.09
3027.06
3027.2
3028.19
3028.52
3029.39
3030.04
3030.62
3031.84
3031.77
3031.81
3031.89
3031.97
3032.13
3032.22
3032.49
3032.58
3032.97
3033.03
3033.57
3033.59
3034.28
3034.26
3035.12
3035.07
3036.04
3036.04
3037.02
3037.2
3038.06
3038.55
3039.13
3040.16
3042.26
3042.3
3042.37
3042.44
3042.59
3042.66
3042.9
3042.95
3043.32
3043.34
3043.84
3043.8
3044.47
3044.36
3045.2
3045.03
3045.98
3045.86
3046.83
3046.85
3047.7
3048.02
3048.59
3049.44
3053.77
3053.81
3053.87
3053.93
3054.06
3054.11
3054.33
3054.35
3054.69
3054.66
3055.14
3055.03
3055.68
3055.47
3056.28
3056.02
3056.93
3056.69
3057.63
3057.51
3058.35
3058.51
3059.05
3059.71
3066.32
3066.36
3066.41
3066.46
3066.57
3066.6
3066.8
3066.8
3067.11
3067.03
3067.48
3067.3
3067.92
3067.63
3068.4
3068.05
3068.91
3068.57
3069.47
3069.21
3070.03
3070.01
3070.55
3071.01
3079.94
3079.98
3080.03
3080.07
3080.17
3080.18
3080.36
3080.31
3080.6
3080.46
3080.9
3080.64
3081.23
3080.88
3081.6
3081.16
3081.98
3081.52
3082.37
3081.97
3082.76
3082.58
3083.11
3083.38
3094.61
3094.65
3094.69
3094.72
3094.81
3094.8
3094.96
3094.88
3095.15
3094.95
3095.36
3095.06
3095.61
3095.19
3095.87
3095.37
3096.14
3095.55
3096.37
3095.84
3096.59
3096.24
3096.75
3096.81
3110.55
3110.59
3110.62
3110.64
3110.69
3110.66
3110.77
3110.65
3110.88
3110.64
3111
3110.63
3111.11
3110.61
3111.23
3110.61
3111.34
3110.67
3111.45
3110.78
3111.5
3110.99
3111.49
3111.34
3127.71
3127.75
3127.77
3127.79
3127.82
3127.77
3127.87
3127.72
3127.91
3127.63
3127.93
3127.5
3127.94
3127.36
3127.93
3127.22
3127.89
3127.08
3127.8
3126.98
3127.66
3126.95
3127.42
3127.04
3146.06
3146.1
3146.11
3146.12
3146.13
3146.06
3146.13
3145.95
3146.1
3145.77
3146.04
3145.55
3145.94
3145.29
3145.8
3145.01
3145.62
3144.71
3145.39
3144.43
3145.07
3144.19
3144.64
3144.06
3165.63
3165.68
3165.67
3165.68
3165.66
3165.58
3165.61
3165.4
3165.51
3165.15
3165.37
3164.83
3165.16
3164.45
3164.9
3164.02
3164.58
3163.55
3164.18
3163.08
3163.68
3162.64
3163.07
3162.27
3186.45
3186.5
3186.48
3186.48
3186.43
3186.35
3186.34
3186.11
3186.17
3185.77
3185.94
3185.34
3185.63
3184.84
3185.24
3184.26
3184.77
3183.64
3184.21
3182.98
3183.54
3182.32
3182.73
3181.73
3208.54
3208.58
3208.55
3208.55
3208.47
3208.39
3208.33
3208.08
3208.1
3207.66
3207.78
3207.13
3207.36
3206.5
3206.84
3205.78
3206.23
3204.99
3205.51
3204.14
3204.66
3203.27
3203.65
3202.44
3231.91
3231.96
3231.92
3231.92
3231.82
3231.72
3231.61
3231.35
3231.33
3230.84
3230.91
3230.21
3230.39
3229.46
3229.74
3228.59
3228.98
3227.63
3228.09
3226.59
3227.06
3225.5
3225.86
3224.43
3256.61
3256.66
3256.61
3256.59
3256.47
3256.37
3256.2
3255.94
3255.85
3255.34
3255.36
3254.6
3254.73
3253.73
3253.95
3252.72
3253.04
3251.59
3251.99
3250.35
3250.78
3249.05
3249.38
3247.74
3282.63
3282.68
3282.63
3282.6
3282.46
3282.34
3282.13
3281.87
3281.7
3281.18
3281.14
3280.33
3280.4
3279.33
3279.5
3278.18
3278.44
3276.88
3277.22
3275.45
3275.83
3273.93
3274.23
3272.37
3310.01
3310.06
3310
3309.96
3309.8
3309.66
3309.42
3309.15
3308.91
3308.39
3308.26
3307.42
3307.43
3306.29
3306.39
3304.99
3305.19
3303.52
3303.8
3301.91
3302.23
3300.17
3300.44
3298.37
3338.74
3338.8
3338.73
3338.68
3338.5
3338.34
3338.07
3337.79
3337.48
3336.96
3336.74
3335.88
3335.81
3334.61
3334.66
3333.17
3333.3
3331.54
3331.76
3329.73
3330
3327.78
3328.02
3325.74
3368.86
3368.92
3368.84
3368.78
3368.59
3368.41
3368.11
3367.8
3367.44
3366.91
3366.6
3365.74
3365.57
3364.34
3364.32
3362.75
3362.81
3360.95
3361.1
3358.96
3359.17
3356.79
3356.99
3354.51
3400.37
3400.42
3400.34
3400.27
3400.06
3399.87
3399.54
3399.21
3398.79
3398.25
3397.86
3396.99
3396.72
3395.47
3395.36
3393.72
3393.72
3391.77
3391.85
3389.59
3389.74
3387.21
3387.37
3384.68
3433.28
3433.33
3433.25
3433.17
3432.94
3432.73
3432.38
3432.02
3431.56
3430.99
3430.53
3429.65
3429.29
3428.02
3427.81
3426.12
3426.05
3424.01
3424.02
3421.64
3421.74
3419.05
3419.18
3416.29
3467.59
3467.65
3467.56
3467.47
3467.23
3467
3466.62
3466.23
3465.74
3465.15
3464.62
3463.72
3463.28
3461.98
3461.68
3459.95
3459.8
3457.67
3457.61
3455.13
3455.16
3452.33
3452.42
3449.34
3503.33
3503.39
3503.29
3503.2
3502.95
3502.7
3502.29
3501.88
3501.35
3500.74
3500.15
3499.23
3498.7
3497.38
3496.99
3495.22
3494.98
3492.78
3492.65
3490.06
3490.04
3487.07
3487.13
3483.85
3540.49
3540.55
3540.45
3540.35
3540.08
3539.82
3539.39
3538.95
3538.38
3537.75
3537.1
3536.16
3535.56
3534.21
3533.73
3531.93
3531.59
3529.34
3529.14
3526.45
3526.37
3523.27
3523.28
3519.83
3579.08
3579.15
3579.04
3578.93
3578.65
3578.38
3577.92
3577.47
3576.86
3576.21
3575.5
3574.54
3573.86
3572.5
3571.93
3570.1
3569.68
3567.35
3567.09
3564.31
3564.17
3560.94
3560.92
3557.28
3619.1
3619.17
3619.06
3618.94
3618.65
3618.36
3617.88
3617.41
3616.77
3616.09
3615.34
3614.36
3613.61
3612.23
3611.57
3609.71
3609.2
3606.83
3606.49
3603.63
3603.43
3600.08
3600.02
3596.22
3660.55
3660.63
3660.51
3660.39
3660.09
3659.79
3659.29
3658.8
3658.13
3657.43
3656.63
3655.63
3654.82
3653.41
3652.68
3650.79
3650.21
3647.79
3647.37
3644.43
3644.17
3640.71
3640.61
3636.66
3703.43
3703.51
3703.39
3703.27
3702.96
3702.64
3702.13
3701.62
3700.93
3700.2
3699.36
3698.34
3697.47
3696.04
3695.24
3693.33
3692.66
3690.21
3689.72
3686.7
3686.38
3682.82
3682.69
3678.58
3747.75
3747.83
3747.72
3747.59
3747.27
3746.94
3746.41
3745.89
3745.17
3744.42
3743.54
3742.51
3741.58
3740.14
3739.27
3737.33
3736.59
3734.1
3733.54
3730.47
3730.09
3726.43
3726.26
3722.02
3793.49
3793.58
3793.46
3793.33
3793
3792.67
3792.12
3791.58
3790.84
3790.08
3789.16
3788.11
3787.13
3785.68
3784.74
3782.78
3781.97
3779.45
3778.82
3775.7
3775.26
3771.52
3771.32
3766.94
3840.66
3840.76
3840.64
3840.51
3840.17
3839.83
3839.27
3838.72
3837.96
3837.18
3836.23
3835.17
3834.15
3832.67
3831.68
3829.71
3828.83
3826.28
3825.58
3822.42
3821.93
3818.11
3817.87
3813.38
3889.25
3889.35
3889.22
3889.1
3888.75
3888.41
3887.84
3887.28
3886.49
3885.7
3884.73
3883.65
3882.59
3881.1
3880.06
3878.07
3877.14
3874.56
3873.81
3870.6
3870.07
3866.17
3865.9
3861.3
3939.26
3939.36
3939.24
3939.11
3938.76
3938.42
3937.84
3937.27
3936.47
3935.67
3934.67
3933.59
3932.48
3930.99
3929.9
3927.9
3926.91
3924.32
3923.51
3920.26
3919.68
3915.73
3915.43
3910.73
3990.66
3990.78
3990.66
3990.53
3990.18
3989.83
3989.24
3988.67
3987.85
3987.04
3986.02
3984.94
3983.79
3982.3
3981.17
3979.15
3978.12
3975.51
3974.66
3971.37
3970.76
3966.75
3966.43
3961.65
4043.48
4043.6
4043.48
4043.36
4043.01
4042.66
4042.06
4041.49
4040.66
4039.85
4038.81
4037.72
4036.54
4035.05
4033.88
4031.86
4030.79
4028.16
4027.27
4023.95
4023.32
4019.25
4018.91
4014.06
4097.68
4097.81
4097.69
4097.58
4097.22
4096.87
4096.27
4095.7
4094.86
4094.05
4092.99
4091.9
4090.7
4089.2
4088
4085.98
4084.88
4082.23
4081.31
4077.98
4077.31
4073.21
4072.85
4067.93
4153.28
4153.42
4153.31
4153.19
4152.83
4152.49
4151.88
4151.31
4150.46
4149.65
4148.58
4147.49
4146.27
4144.78
4143.55
4141.53
4140.4
4137.75
4136.81
4133.45
4132.77
4128.62
4128.26
4123.29
4210.26
4210.4
4210.29
4210.18
4209.82
4209.48
4208.87
4208.31
4207.45
4206.64
4205.56
4204.47
4203.22
4201.74
4200.49
4198.47
4197.33
4194.67
4193.72
4190.32
4189.65
4185.47
4185.1
4180.09
4268.61
4268.77
4268.66
4268.56
4268.2
4267.87
4267.25
4266.69
4265.83
4265.02
4263.93
4262.85
4261.58
4260.11
4258.83
4256.82
4255.66
4252.99
4252.03
4248.65
4247.96
4243.76
4243.39
4238.35
4328.32
4328.48
4328.38
4328.28
4327.93
4327.6
4326.99
4326.44
4325.57
4324.77
4323.67
4322.6
4321.31
4319.87
4318.56
4316.56
4315.38
4312.7
4311.77
4308.32
4307.66
4303.44
4303.08
4298.02
4389.37
4389.55
4389.45
4389.37
4389.02
4388.7
4388.1
4387.55
4386.69
4385.9
4384.8
4383.74
4382.44
4381.02
4379.69
4377.7
4376.51
4373.82
4372.87
4369.43
4368.77
4364.52
4364.18
4359.11
4451.73
4451.92
4451.83
4451.76
4451.42
4451.12
4450.52
4449.99
4449.13
4448.37
4447.27
4446.24
4444.93
4443.55
4442.19
4440.24
4439.02
4436.35
4435.41
4431.9
4431.28
4426.98
4426.65
4421.57
4515.39
4515.58
4515.5
4515.44
4515.12
4514.84
4514.25
4513.75
4512.9
4512.16
4511.07
4510.08
4508.78
4507.44
4506.08
4504.18
4502.94
4500.33
4499.36
4495.86
4495.25
4490.9
4490.57
4485.42
4580.31
4580.51
4580.44
4580.4
4580.08
4579.82
4579.24
4578.76
4577.92
4577.22
4576.14
4575.18
4573.9
4572.61
4571.26
4569.43
4568.2
4565.65
4564.71
4561.26
4560.71
4556.33
4556.02
4550.77
4646.53
4646.76
4646.68
4646.66
4646.33
4646.1
4645.5
4645.06
4644.2
4643.54
4642.44
4641.54
4640.24
4639.02
4637.67
4635.86
4634.77
4632.12
4631.47
4627.86
4627.58
4623.21
4623.03
4617.95
4714.13
4714.38
4714.27
4714.28
4713.92
4713.7
4713.07
4712.65
4711.74
4711.12
4709.95
4709.11
4707.75
4706.59
4705.19
4703.37
4702.47
4699.63
4699.24
4695.55
4695.48
4691.15
4691.17
4686.43
4783.25
4783.51
4783.4
4783.39
4783.02
4782.75
4782.12
4781.62
4780.7
4780.01
4778.81
4777.91
4776.49
4775.32
4773.81
4772.09
4771.05
4768.2
4767.9
4764.08
4764.18
4759.75
4759.95
4755.28
4854.11
4854.37
4854.25
4854.2
4853.81
4853.46
4852.79
4852.19
4851.22
4850.4
4849.13
4848.09
4846.58
4845.29
4843.61
4841.96
4840.55
4837.81
4837.37
4833.35
4833.56
4828.89
4829.21
4824.36
4926.97
4927.23
4927.1
4926.99
4926.57
4926.13
4925.39
4924.66
4923.58
4922.59
4921.2
4919.95
4918.27
4916.77
4914.88
4913.08
4911.22
4908.59
4907.64
4903.54
4903.68
4898.59
4898.98
4893.72
5002.1
5002.36
5002.22
5002.05
5001.57
5001.04
5000.19
4999.33
4998.11
4996.93
4995.34
4993.86
4991.94
4990.15
4987.95
4985.84
4983.51
4980.78
4979.1
4974.93
4974.57
4969
4969.34
4963.42
5079.76
5080.01
5079.85
5079.64
5079.1
5078.48
5077.53
5076.53
5075.16
5073.79
5072
5070.26
5068.07
5065.95
5063.39
5060.88
5058.06
5055
5052.43
5048.06
5046.81
5040.56
5040.67
5033.67
5160.08
5160.33
5160.16
5159.91
5159.33
5158.63
5157.6
5156.49
5154.99
5153.46
5151.49
5149.54
5147.09
5144.69
5141.79
5138.88
5135.58
5132.07
5128.67
5123.98
5121.42
5114.56
5113.8
5105.13
5243.13
5243.38
5243.21
5242.94
5242.33
5241.6
5240.51
5239.33
5237.75
5236.11
5234.02
5231.92
5229.3
5226.69
5223.55
5220.37
5216.73
5212.85
5208.86
5203.84
5200.06
5192.87
5190.63
5179.87
5328.83
5329.08
5328.92
5328.64
5328.03
5327.28
5326.18
5324.97
5323.36
5321.69
5319.54
5317.38
5314.68
5312
5308.75
5305.46
5301.66
5297.63
5293.4
5288.24
5283.92
5276.74
5273.44
5261.59
5417
5417.27
5417.12
5416.87
5416.26
5415.54
5414.44
5413.27
5411.65
5410.02
5407.86
5405.75
5403.05
5400.41
5397.15
5393.92
5390.12
5386.16
5381.97
5376.82
5372.79
5365.48
5362.86
5351.82
5507.36
5507.66
5507.53
5507.31
5506.73
5506.06
5505
5503.89
5502.31
5500.76
5498.66
5496.65
5494
5491.5
5488.32
5485.25
5481.56
5477.8
5473.74
5468.84
5465.09
5458.08
5455.69
5445.46
5599.63
5599.96
5599.85
5599.68
5599.13
5598.54
5597.52
5596.51
5595
5593.58
5591.54
5589.71
5587.14
5584.85
5581.77
5578.95
5575.42
5571.94
5568.07
5563.54
5560.01
5553.46
5551.23
5541.76
5693.41
5693.79
5693.68
5693.6
5693.07
5692.59
5691.6
5690.76
5689.27
5688.07
5686.05
5684.51
5681.95
5680.02
5676.97
5674.53
5671.1
5667.98
5664.33
5660.22
5656.92
5650.93
5648.81
5640.13
5788.4
5788.82
5788.69
5788.74
5788.16
5787.9
5786.84
5786.29
5784.72
5783.9
5781.76
5780.7
5777.99
5776.62
5773.43
5771.6
5768.09
5765.54
5762
5758.38
5755.29
5749.91
5747.89
5740.02
5884.2
5884.65
5884.54
5884.66
5884.14
5883.96
5882.99
5882.56
5881.1
5880.46
5878.45
5877.62
5875.05
5873.98
5870.92
5869.49
5866.09
5864.05
5860.61
5857.52
5854.61
5849.86
5847.94
5840.9
5980.49
5980.95
5980.91
5981.01
5980.66
5980.44
5979.72
5979.24
5978.09
5977.42
5975.76
5974.95
5972.73
5971.77
5969.04
5967.83
5964.73
5963.02
5959.84
5957.26
5954.46
5950.37
5948.56
5942.36
6076.91
6077.38
6077.39
6077.52
6077.27
6077.09
6076.53
6076.1
6075.17
6074.55
6073.18
6072.41
6070.57
6069.67
6067.35
6066.25
6063.55
6062.09
6059.23
6057.12
6054.44
6051.05
6049.34
6043.98
6173.19
6173.67
6173.73
6173.89
6173.72
6173.61
6173.17
6172.83
6172.07
6171.55
6170.42
6169.76
6168.21
6167.44
6165.45
6164.54
6162.18
6160.99
6158.43
6156.73
6154.26
6151.57
6149.95
6145.4
6269.03
6269.51
6269.61
6269.8
6269.71
6269.66
6269.34
6269.09
6268.49
6268.09
6267.16
6266.65
6265.34
6264.75
6263.05
6262.35
6260.3
6259.4
6257.13
6255.84
6253.59
6251.55
6249.98
6246.24
6364.17
6364.67
6364.8
6365.03
6365.01
6365.03
6364.81
6364.66
6364.2
6363.93
6363.18
6362.82
6361.74
6361.33
6359.89
6359.43
6357.66
6357.07
6355.07
6354.19
6352.19
6350.68
6349.2
6346.23
6458.38
6458.88
6459.04
6459.31
6459.35
6459.44
6459.31
6459.27
6458.93
6458.79
6458.21
6458.01
6457.14
6456.92
6455.72
6455.49
6453.99
6453.69
6451.97
6451.46
6449.72
6448.73
6447.34
6445.11
6551.47
6551.97
6552.16
6552.46
6552.56
6552.72
6552.68
6552.73
6552.52
6552.51
6552.08
6552.04
6551.36
6551.33
6550.36
6550.35
6549.1
6549.09
6547.62
6547.47
6545.97
6545.44
6544.24
6542.74
6643.21
6643.72
6643.93
6644.26
6644.42
6644.63
6644.68
6644.83
6644.73
6644.84
6644.56
6644.67
6644.17
6644.32
6643.57
6643.78
6642.76
6643.02
6641.79
6642
6640.71
6640.63
6639.6
6638.8
6733.52
6734.02
6734.26
6734.62
6734.82
6735.1
6735.22
6735.45
6735.47
6735.69
6735.55
6735.8
6735.48
6735.8
6735.25
6735.67
6734.87
6735.4
6734.39
6734.93
6733.86
6734.21
6733.37
6733.12
6822.17
6822.66
6822.91
6823.3
6823.55
6823.88
6824.08
6824.39
6824.51
6824.84
6824.83
6825.22
6825.05
6825.54
6825.17
6825.8
6825.2
6825.98
6825.18
6826.05
6825.16
6825.92
6825.23
6825.53
6909.14
6909.63
6909.9
6910.32
6910.6
6910.99
6911.25
6911.64
6911.85
6912.28
6912.4
6912.91
6912.9
6913.54
6913.35
6914.16
6913.76
6914.77
6914.16
6915.33
6914.62
6915.78
6915.2
6916.03
6994.23
6994.71
6995
6995.43
6995.75
6996.18
6996.51
6996.97
6997.26
6997.79
6998.02
6998.65
6998.77
6999.56
6999.53
7000.53
7000.3
7001.54
7001.11
7002.56
7002
7003.54
7003.07
7004.39
7077.49
7077.96
7078.26
7078.71
7079.07
7079.54
7079.92
7080.44
7080.82
7081.43
7081.77
7082.51
7082.76
7083.69
7083.81
7084.97
7084.91
7086.35
7086.1
7087.81
7087.41
7089.3
7088.94
7090.73
7158.72
7159.18
7159.49
7159.95
7160.34
7160.85
7161.28
7161.87
7162.31
7163.01
7163.44
7164.28
7164.66
7165.7
7165.97
7167.28
7167.38
7169
7168.91
7170.86
7170.62
7172.82
7172.55
7174.83
7238.01
7238.46
7238.78
7239.25
7239.67
7240.21
7240.69
7241.33
7241.84
7242.61
7243.13
7244.07
7244.55
7245.71
7246.1
7247.55
7247.79
7249.59
7249.65
7251.82
7251.71
7254.21
7254.03
7256.71
7315.23
7315.66
7315.99
7316.47
7316.91
7317.48
7318
7318.68
7319.26
7320.09
7320.69
7321.71
7322.29
7323.56
7324.06
7325.65
7326.01
7327.97
7328.15
7330.53
7330.53
7333.31
7333.2
7336.25
7390.44
7390.86
7391.19
7391.68
7392.14
7392.73
7393.29
7394.02
7394.64
7395.54
7396.21
7397.31
7397.97
7399.34
7399.94
7401.65
7402.12
7404.23
7404.52
7407.09
7407.19
7410.21
7410.17
7413.56
7463.57
7463.98
7464.31
7464.81
7465.28
7465.9
7466.49
7467.25
7467.93
7468.88
7469.61
7470.78
7471.52
7472.98
7473.66
7475.48
7476.05
7478.3
7478.68
7481.42
7481.61
7484.85
7484.86
7488.54
7534.69
7535.09
7535.42
7535.91
7536.4
7537.04
7537.65
7538.45
7539.17
7540.17
7540.95
7542.19
7542.99
7544.53
7545.3
7547.21
7547.86
7550.24
7550.71
7553.6
7553.86
7557.3
7557.36
7561.3
7603.77
7604.15
7604.48
7604.99
7605.49
7606.14
7606.78
7607.6
7608.36
7609.39
7610.23
7611.52
7612.39
7613.99
7614.83
7616.83
7617.56
7620.04
7620.58
7623.62
7623.94
7627.55
7627.66
7631.83
7670.87
7671.23
7671.56
7672.06
7672.57
7673.24
7673.9
7674.75
7675.53
7676.61
7677.49
7678.82
7679.75
7681.41
7682.31
7684.39
7685.18
7687.76
7688.37
7691.52
7691.9
7695.67
7695.81
7700.19
7736
7736.34
7736.67
7737.17
7737.69
7738.36
7739.04
7739.91
7740.73
7741.83
7742.74
7744.13
7745.09
7746.81
7747.76
7749.91
7750.76
7753.43
7754.09
7757.35
7757.79
7761.69
7761.87
7766.41
7799.2
7799.53
7799.85
7800.35
7800.87
7801.55
7802.25
7803.14
7803.97
7805.1
7806.05
7807.47
7808.48
7810.24
7811.24
7813.45
7814.35
7817.09
7817.81
7821.16
7821.64
7825.66
7825.87
7830.57
7860.51
7860.83
7861.15
7861.64
7862.17
7862.85
7863.56
7864.46
7865.32
7866.47
7867.45
7868.89
7869.94
7871.75
7872.78
7875.04
7875.99
7878.79
7879.56
7882.99
7883.51
7887.63
7887.87
7892.71
7919.98
7920.28
7920.6
7921.09
7921.62
7922.31
7923.02
7923.94
7924.81
7925.98
7926.98
7928.45
7929.53
7931.37
7932.44
7934.74
7935.73
7938.58
7939.39
7942.89
7943.45
7947.66
7947.92
7952.88
7977.66
7977.95
7978.26
7978.74
7979.27
7979.96
7980.68
7981.61
7982.49
7983.68
7984.7
7986.2
7987.29
7989.17
7990.27
7992.61
7993.63
7996.52
7997.37
8000.92
8001.52
8005.8
8006.09
8011.15
8033.59
8033.87
8034.18
8034.65
8035.18
8035.87
8036.6
8037.53
8038.42
8039.63
8040.66
8042.17
8043.29
8045.19
8046.31
8048.68
8049.73
8052.67
8053.55
8057.14
8057.77
8062.11
8062.42
8067.57
8087.84
8088.1
8088.41
8088.87
8089.4
8090.09
8090.82
8091.75
8092.66
8093.87
8094.91
8096.44
8097.57
8099.49
8100.63
8103.03
8104.09
8107.06
8107.97
8111.6
8112.25
8116.64
8116.97
8122.19
8140.45
8140.7
8141
8141.46
8141.98
8142.67
8143.4
8144.34
8145.24
8146.46
8147.51
8149.06
8150.19
8152.13
8153.28
8155.7
8156.78
8159.78
8160.69
8164.36
8165.03
8169.45
8169.78
8175.06
8191.48
8191.72
8192.01
8192.46
8192.99
8193.67
8194.4
8195.34
8196.24
8197.47
8198.52
8200.07
8201.21
8203.17
8204.31
8206.77
8207.83
8210.87
8211.77
8215.49
8216.11
8220.63
8220.92
8226.23
8240.99
8241.21
8241.5
8241.95
8242.46
8243.14
8243.87
8244.81
8245.71
8246.94
8247.99
8249.55
8250.68
8252.66
8253.8
8256.28
8257.33
8260.4
8261.28
8265.03
8265.67
8270.16
8270.47
8275.79
8289.03
8289.24
8289.52
8289.96
8290.47
8291.15
8291.87
8292.8
8293.71
8294.93
8295.98
8297.55
8298.67
8300.67
8301.79
8304.29
8305.33
8308.42
8309.28
8313.05
8313.65
8318.22
8318.49
8323.82
8335.66
8335.85
8336.13
8336.56
8337.07
8337.74
8338.45
8339.38
8340.28
8341.51
8342.55
8344.12
8345.24
8347.24
8348.36
8350.86
8351.89
8354.99
8355.85
8359.63
8360.25
8364.76
8365.06
8370.38
8380.92
8381.11
8381.38
8381.8
8382.3
8382.97
8383.68
8384.6
8385.5
8386.72
8387.75
8389.33
8390.44
8392.44
8393.55
8396.05
8397.08
8400.17
8401.03
8404.8
8405.4
8409.96
8410.23
8415.54
8424.89
8425.06
8425.33
8425.74
8426.24
8426.89
8427.6
8428.52
8429.41
8430.63
8431.65
8433.22
8434.33
8436.32
8437.43
8439.92
8440.95
8444.03
8444.89
8448.65
8449.27
8453.76
8454.07
8459.36
8467.61
8467.77
8468.03
8468.43
8468.92
8469.57
8470.27
8471.18
8472.06
8473.28
8474.29
8475.86
8476.95
8478.95
8480.04
8482.53
8483.55
8486.63
8487.48
8491.22
8491.82
8496.34
8496.62
8501.9
8509.13
8509.28
8509.54
8509.93
8510.41
8511.05
8511.74
8512.65
8513.52
8514.73
8515.73
8517.3
8518.38
8520.37
8521.45
8523.93
8524.94
8528
8528.85
8532.57
8533.18
8537.66
8537.95
8543.2
8549.5
8549.65
8549.9
8550.28
8550.76
8551.39
8552.07
8552.97
8553.83
8555.03
8556.02
8557.59
8558.65
8560.63
8561.7
8564.17
8565.17
8568.22
8569.06
8572.76
8573.38
8577.79
8578.11
8583.32
8588.78
8588.91
8589.16
8589.54
8590.01
8590.63
8591.3
8592.19
8593.04
8594.24
8595.21
8596.77
8597.81
8599.79
8600.84
8603.31
8604.28
8607.32
8608.15
8611.83
8612.44
8616.83
8617.13
8622.31
8627.01
8627.14
8627.38
8627.75
8628.21
8628.82
8629.49
8630.37
8631.21
8632.4
8633.35
8634.91
8635.93
8637.9
8638.93
8641.39
8642.34
8645.36
8646.17
8649.83
8650.42
8654.8
8655.09
8660.22
8664.24
8664.36
8664.6
8664.96
8665.41
8666.02
8666.67
8667.55
8668.37
8669.55
8670.49
8672.04
8673.04
8675.01
8676
8678.46
8679.39
8682.4
8683.19
8686.82
8687.39
8691.74
8692.02
8697.11
8700.52
8700.64
8700.87
8701.22
8701.67
8702.26
8702.91
8703.77
8704.58
8705.76
8706.68
8708.22
8709.19
8711.16
8712.12
8714.57
8715.47
8718.47
8719.23
8722.84
8723.39
8727.71
8727.98
8733.01
8735.89
8736
8736.23
8736.57
8737.01
8737.6
8738.23
8739.09
8739.88
8741.05
8741.95
8743.48
8744.43
8746.39
8747.33
8749.77
8750.64
8753.62
8754.35
8757.95
8758.47
8762.74
8763
8767.98
8770.4
8770.5
8770.72
8771.06
8771.49
8772.07
8772.69
8773.54
8774.32
8775.48
8776.36
8777.88
8778.81
8780.76
8781.66
8784.1
8784.93
8787.91
8788.61
8792.16
8792.66
8796.9
8797.15
8802.06
8804.09
8804.18
8804.4
8804.72
8805.15
8805.72
8806.33
8807.17
8807.93
8809.08
8809.94
8811.46
8812.36
8814.3
8815.18
8817.6
8818.4
8821.35
8822.01
8825.58
8826.04
8830.22
8830.47
8835.3
8836.99
8837.08
8837.29
8837.61
8838.03
8838.59
8839.19
8840.02
8840.77
8841.9
8842.75
8844.25
8845.13
8847.05
8847.91
8850.3
8851.09
8854.01
8854.67
8858.16
8858.63
8862.76
8863
8867.77
8869.15
8869.24
8869.44
8869.75
8870.17
8870.71
8871.31
8872.12
8872.86
8873.98
8874.81
8876.29
8877.16
8879.05
8879.9
8882.26
8883.04
8885.91
8886.55
8890.02
8890.47
8894.54
8894.78
8899.49
8900.61
8900.69
8900.89
8901.19
8901.6
8902.14
8902.73
8903.52
8904.25
8905.36
8906.17
8907.63
8908.48
8910.35
8911.19
8913.51
8914.28
8917.12
8917.75
8921.16
8921.61
8925.62
8925.85
8930.49
8931.39
8931.47
8931.67
8931.97
8932.37
8932.89
8933.47
8934.26
8934.97
8936.06
8936.86
8938.3
8939.14
8940.98
8941.8
8944.1
8944.85
8947.65
8948.26
8951.63
8952.07
8956.02
8956.25
8960.82
8961.55
8961.62
8961.82
8962.11
8962.5
8963.02
8963.59
8964.36
8965.06
8966.13
8966.92
8968.34
8969.16
8970.98
8971.78
8974.05
8974.78
8977.54
8978.16
8981.45
8981.9
8985.78
8986.01
8990.5
8991.11
8991.18
8991.37
8991.65
8992.04
8992.54
8993.1
8993.86
8994.55
8995.61
8996.38
8997.78
8998.59
9000.38
9001.17
9003.4
9004.12
9006.83
9007.43
9010.69
9011.12
9014.94
9015.17
9019.59
9020.1
9020.16
9020.35
9020.63
9021.01
9021.5
9022.06
9022.8
9023.48
9024.52
9025.28
9026.65
9027.45
9029.21
9029.99
9032.18
9032.89
9035.56
9036.15
9039.35
9039.78
9043.53
9043.76
9048.1
9048.55
9048.62
9048.8
9049.07
9049.45
9049.93
9050.48
9051.2
9051.88
9052.89
9053.65
9054.99
9055.78
9057.5
9058.28
9060.42
9061.13
9063.75
9064.34
9067.47
9067.9
9071.58
9071.82
9076.08
9076.51
9076.57
9076.75
9077.01
9077.38
9077.86
9078.4
9079.1
9079.77
9080.76
9081.51
9082.82
9083.61
9085.29
9086.06
9088.16
9088.87
9091.43
9092.02
9095.08
9095.52
9099.13
9099.37
9103.55
9103.99
9104.05
9104.22
9104.48
9104.85
9105.31
9105.84
9106.53
9107.19
9108.15
9108.9
9110.18
9110.97
9112.6
9113.38
9115.42
9116.13
9118.63
9119.23
9122.23
9122.67
9126.2
9126.44
9130.55
9131.03
9131.08
9131.25
9131.51
9131.86
9132.31
9132.84
9133.51
9134.17
9135.1
9135.85
9137.09
9137.88
9139.47
9140.25
9142.23
9142.95
9145.38
9145.99
9148.92
9149.37
9152.82
9153.07
9157.1
9157.64
9157.7
9157.87
9158.12
9158.46
9158.91
9159.42
9160.08
9160.73
9161.64
9162.38
9163.58
9164.37
9165.91
9166.7
9168.62
9169.36
9171.72
9172.34
9175.19
9175.65
9179.02
9179.28
9183.22
9183.87
9183.93
9184.09
9184.33
9184.68
9185.11
9185.62
9186.25
9186.9
9187.78
9188.52
9189.68
9190.48
9191.96
9192.76
9194.62
9195.37
9197.66
9198.3
9201.06
9201.53
9204.83
9205.09
9208.96
9209.74
9209.79
9209.95
9210.19
9210.52
9210.94
9211.45
9212.06
9212.71
9213.55
9214.3
9215.41
9216.22
9217.65
9218.46
9220.25
9221.01
9223.23
9223.89
9226.56
9227.05
9230.27
9230.53
9234.32
9235.26
9235.32
9235.47
9235.7
9236.03
9236.44
9236.94
9237.54
9238.18
9238.99
9239.74
9240.81
9241.62
9242.99
9243.82
9245.54
9246.32
9248.46
9249.13
9251.73
9252.23
9255.36
9255.63