/*--------------------------------*- C++ -*----------------------------------*\
  =========                 |
  \\      /  F ield         | OpenFOAM: The Open Source CFD Toolbox
   \\    /   O peration     | Website:  https://openfoam.org
    \\  /    A nd           | Version:  10
     \\/     M anipulation  |
\*---------------------------------------------------------------------------*/
FoamFile
{
    format      ascii;
    class       surfaceScalarField;
    location    "0.04";
    object      phi;
}
// * * * * * * * * * * * * * * * * * * * * * * * * * * * * * * * * * * * * * //

dimensions      [1 0 -1 0 0 0 0];

internalField   nonuniform List<scalar> 
8154
(
1.54836e-08
6.18827e-08
1.37572e-07
2.41387e-07
3.68501e-07
5.17455e-07
6.79209e-07
8.52405e-07
1.024e-06
1.18979e-06
1.33762e-06
1.4511e-06
1.54338e-06
1.52506e-06
1.55664e-06
1.27091e-06
1.30168e-06
6.03793e-07
5.94635e-07
-3.97322e-07
-5.21742e-07
-1.21002e-06
-1.2426e-06
-0.000221476
-0.000664394
2.68824e-08
-0.00110732
1.07718e-07
-0.00155026
2.41254e-07
-0.00199316
4.25321e-07
-0.00243609
6.5789e-07
-0.00287897
9.34388e-07
-0.00332187
1.25225e-06
-0.0037647
1.60422e-06
-0.00420759
1.98674e-06
-0.00465035
2.39065e-06
-0.00509322
2.81055e-06
-0.00553589
3.23619e-06
-0.00597872
3.6474e-06
-0.00642135
4.07394e-06
-0.00686401
4.39889e-06
-0.00730677
4.82078e-06
-0.00774902
4.92886e-06
-0.00819211
5.32765e-06
-0.00863394
5.10038e-06
-0.0090773
5.26e-06
-0.00951916
4.60257e-06
-0.00996262
3.92909e-06
-0.0104055
2.64932e-06
-0.000221447
-0.000664304
2.11034e-08
-0.00110717
8.43149e-08
-0.00155004
1.88791e-07
-0.00199288
3.32262e-07
-0.00243574
5.1412e-07
-0.00287854
7.2861e-07
-0.00332137
9.76644e-07
-0.00376411
1.24832e-06
-0.00420691
1.54595e-06
-0.00464957
1.85755e-06
-0.00509233
2.18262e-06
-0.00553487
2.51008e-06
-0.00597759
2.82169e-06
-0.00642
3.16983e-06
-0.00686263
3.39158e-06
-0.00730497
3.77741e-06
-0.00774738
3.79502e-06
-0.00818973
4.21207e-06
-0.00863182
4.00077e-06
-0.00907425
4.22136e-06
-0.00951596
3.82138e-06
-0.0099587
3.32216e-06
-0.0104
2.43405e-06
-0.000221404
-0.000664175
9.55043e-09
-0.00110695
3.81832e-08
-0.00154974
8.49434e-08
-0.00199249
1.48789e-07
-0.00243525
2.27351e-07
-0.00287796
3.18995e-07
-0.00332068
4.19796e-07
-0.00376332
5.27594e-07
-0.004206
6.37566e-07
-0.00464854
7.45889e-07
-0.00509118
8.49084e-07
-0.00553357
9.36663e-07
-0.0059762
1.02246e-06
-0.00641835
1.05579e-06
-0.00686101
1.11106e-06
-0.00730284
1.046e-06
-0.00774553
1.15698e-06
-0.0081871
8.12738e-07
-0.00862949
8.86423e-07
-0.00907116
4.78437e-07
-0.00951263
4.33917e-07
-0.00995485
1.25816e-07
-0.0103945
-6.89129e-08
-0.000221344
-0.000663994
7.1909e-09
-0.00110665
2.87736e-08
-0.00154931
6.36831e-08
-0.00199194
1.11972e-07
-0.00243457
1.69719e-07
-0.00287715
2.38882e-07
-0.00331973
3.11111e-07
-0.00376224
3.91549e-07
-0.00420477
4.67471e-07
-0.00464717
5.45341e-07
-0.00508965
6.12785e-07
-0.00553189
6.69893e-07
-0.00597433
7.31051e-07
-0.00641635
7.11549e-07
-0.00685875
7.87307e-07
-0.00730055
6.37438e-07
-0.00774275
7.08565e-07
-0.00818454
5.24667e-07
-0.00862629
4.43703e-07
-0.00906819
2.07602e-07
-0.00950922
5.76703e-08
-0.00995143
-1.61196e-07
-0.0103911
-2.81445e-07
-0.000221272
-0.000663778
8.44637e-09
-0.00110629
3.37498e-08
-0.0015488
7.54599e-08
-0.00199128
1.32393e-07
-0.00243377
2.0394e-07
-0.00287619
2.87093e-07
-0.00331862
3.81855e-07
-0.00376096
4.83036e-07
-0.00420334
5.91564e-07
-0.00464556
7.00717e-07
-0.00508787
8.10869e-07
-0.00552995
9.17519e-07
-0.00597215
1.01167e-06
-0.00641411
1.11616e-06
-0.00685611
1.15952e-06
-0.00729798
1.25187e-06
-0.00773974
1.22186e-06
-0.00818148
1.23477e-06
-0.0086229
1.20223e-06
-0.00906472
1.10331e-06
-0.0095055
9.8578e-07
-0.00994765
7.68945e-07
-0.0103875
5.07862e-07
-0.000221193
-0.000663541
7.10913e-09
-0.00110589
2.84207e-08
-0.00154825
6.3488e-08
-0.00199057
1.11702e-07
-0.00243289
1.7182e-07
-0.00287515
2.4258e-07
-0.00331741
3.22066e-07
-0.00375959
4.0842e-07
-0.00420179
4.99298e-07
-0.00464383
5.92143e-07
-0.00508596
6.84402e-07
-0.00552785
7.72623e-07
-0.00596988
8.55483e-07
-0.00641159
9.28708e-07
-0.00685346
9.82452e-07
-0.00729503
1.02907e-06
-0.00773665
1.09535e-06
-0.00817817
1.02516e-06
-0.00861931
9.84775e-07
-0.00906095
8.92744e-07
-0.00950142
7.72354e-07
-0.00994336
5.80072e-07
-0.0103828
3.44971e-07
-0.000221101
-0.000663267
6.0791e-09
-0.00110543
2.42832e-08
-0.00154761
5.4285e-08
-0.00198974
9.56506e-08
-0.00243187
1.47262e-07
-0.00287395
2.08212e-07
-0.00331602
2.76588e-07
-0.003758
3.51098e-07
-0.0042
4.29343e-07
-0.00464185
5.0935e-07
-0.00508377
5.89132e-07
-0.00552545
6.65518e-07
-0.00596727
7.35626e-07
-0.00640876
7.91434e-07
-0.00685042
8.42628e-07
-0.00729175
8.69596e-07
-0.00773313
8.82775e-07
-0.00817443
8.63863e-07
-0.0086153
8.2707e-07
-0.00905672
7.42514e-07
-0.00949687
6.32426e-07
-0.00993859
4.67465e-07
-0.0103776
2.6576e-07
-0.000221
-0.000662961
5.29641e-09
-0.00110492
2.11397e-08
-0.00154689
4.72303e-08
-0.00198882
8.36306e-08
-0.00243075
1.28657e-07
-0.00287261
1.82767e-07
-0.00331447
2.42392e-07
-0.00375624
3.08916e-07
-0.00419802
3.7674e-07
-0.00463966
4.48369e-07
-0.00508135
5.16615e-07
-0.00552282
5.84992e-07
-0.00596439
6.43792e-07
-0.00640567
6.93339e-07
-0.00684707
7.34442e-07
-0.00728819
7.57421e-07
-0.00772928
7.68322e-07
-0.00817036
7.52762e-07
-0.00861093
7.06963e-07
-0.00905213
6.43305e-07
-0.00949196
5.3075e-07
-0.00993345
4.00616e-07
-0.0103721
2.07197e-07
-0.000220883
-0.000662611
4.74646e-09
-0.00110434
1.89565e-08
-0.00154608
4.2393e-08
-0.00198777
7.53767e-08
-0.00242946
1.16045e-07
-0.00287109
1.65482e-07
-0.00331271
2.19506e-07
-0.00375423
2.80624e-07
-0.00419577
3.42183e-07
-0.00463716
4.07547e-07
-0.0050786
4.69653e-07
-0.00551982
5.30139e-07
-0.00596113
5.86162e-07
-0.00640216
6.30026e-07
-0.00684328
6.69299e-07
-0.00728415
6.89795e-07
-0.00772494
7.01694e-07
-0.00816576
6.85686e-07
-0.00860604
6.52709e-07
-0.00904696
5.89058e-07
-0.00948648
4.99734e-07
-0.00992768
3.73802e-07
-0.010366
2.10485e-07
-0.000220762
-0.000662247
4.36189e-09
-0.00110373
1.73953e-08
-0.00154523
3.89394e-08
-0.00198668
6.94198e-08
-0.00242812
1.07079e-07
-0.0028695
1.53121e-07
-0.00331087
2.03479e-07
-0.00375215
2.60751e-07
-0.00419344
3.18197e-07
-0.00463457
3.79725e-07
-0.00507576
4.36627e-07
-0.00551672
4.93371e-07
-0.00595776
5.41873e-07
-0.00639853
5.86825e-07
-0.00683938
6.2206e-07
-0.00727999
6.43734e-07
-0.0077205
6.50099e-07
-0.00816105
6.40294e-07
-0.00860103
6.02422e-07
-0.00904168
5.48618e-07
-0.0094809
4.55612e-07
-0.00992182
3.44365e-07
-0.0103599
1.81867e-07
-0.000220623
-0.00066183
4.10195e-09
-0.00110304
1.62435e-08
-0.00154425
3.63525e-08
-0.00198542
6.50224e-08
-0.00242659
1.00334e-07
-0.00286769
1.43995e-07
-0.00330878
1.91479e-07
-0.00374977
2.46352e-07
-0.00419077
3.0095e-07
-0.00463162
3.60615e-07
-0.00507251
4.14868e-07
-0.00551318
4.69857e-07
-0.00595392
5.12443e-07
-0.0063944
5.58456e-07
-0.00683493
5.92656e-07
-0.00727525
6.13975e-07
-0.00771543
6.18062e-07
-0.00815568
6.11034e-07
-0.00859532
5.72258e-07
-0.00903566
5.23621e-07
-0.00947452
4.30654e-07
-0.00991513
3.27994e-07
-0.0103528
1.66571e-07
-0.000220476
-0.000661389
3.89547e-09
-0.0011023
1.54395e-08
-0.00154322
3.45209e-08
-0.0019841
6.19096e-08
-0.00242497
9.54842e-08
-0.00286577
1.37419e-07
-0.00330656
1.82748e-07
-0.00374725
2.35881e-07
-0.00418796
2.88555e-07
-0.0046285
3.47308e-07
-0.00506909
4.01059e-07
-0.00550944
4.57372e-07
-0.00594988
5.03967e-07
-0.00639005
5.45936e-07
-0.00683026
5.76686e-07
-0.00727026
5.99162e-07
-0.00771012
5.98729e-07
-0.00815005
5.947e-07
-0.00858936
5.55702e-07
-0.00902937
5.09661e-07
-0.00946789
4.1798e-07
-0.00990815
3.19885e-07
-0.0103455
1.61094e-07
-0.000220313
-0.0006609
3.76777e-09
-0.00110149
1.49014e-08
-0.00154208
3.33059e-08
-0.00198263
5.97904e-08
-0.00242317
9.21664e-08
-0.00286365
1.32803e-07
-0.00330411
1.76471e-07
-0.00374447
2.28126e-07
-0.00418485
2.7898e-07
-0.00462505
3.36616e-07
-0.00506531
3.89246e-07
-0.00550532
4.46137e-07
-0.00594542
4.93372e-07
-0.00638525
5.40819e-07
-0.00682511
5.6683e-07
-0.00726476
5.88479e-07
-0.00770426
5.89806e-07
-0.00814384
5.82442e-07
-0.00858279
5.44259e-07
-0.00902243
4.99961e-07
-0.00946059
4.08459e-07
-0.00990048
3.14576e-07
-0.0103374
1.56382e-07
-0.000220142
-0.000660387
3.73855e-09
-0.00110063
1.46244e-08
-0.00154088
3.26713e-08
-0.00198109
5.86873e-08
-0.00242129
9.04168e-08
-0.00286142
1.30369e-07
-0.00330154
1.73009e-07
-0.00374155
2.23779e-07
-0.00418158
2.73113e-07
-0.00462143
3.29705e-07
-0.00506134
3.80422e-07
-0.005501
4.36424e-07
-0.00594074
4.82635e-07
-0.00638021
5.33246e-07
-0.0068197
5.5795e-07
-0.007259
5.80717e-07
-0.00769813
5.9133e-07
-0.00813734
5.7626e-07
-0.00857591
5.36241e-07
-0.00901518
4.9369e-07
-0.00945296
4.02518e-07
-0.00989245
3.10156e-07
-0.010329
1.52805e-07
-0.000219953
-0.000659822
3.73668e-09
-0.00109969
1.45895e-08
-0.00153957
3.25532e-08
-0.0019794
5.86243e-08
-0.00241922
9.02641e-08
-0.00285896
1.30394e-07
-0.00329871
1.72811e-07
-0.00373834
2.23819e-07
-0.00417799
2.72497e-07
-0.00461746
3.29118e-07
-0.00505698
3.78123e-07
-0.00549625
4.3316e-07
-0.00593561
4.75857e-07
-0.00637468
5.20132e-07
-0.00681377
5.5048e-07
-0.00725268
5.77726e-07
-0.00769141
6.10854e-07
-0.00813022
5.78018e-07
-0.00856838
5.37793e-07
-0.00900724
4.97352e-07
-0.00944461
4.05625e-07
-0.00988367
3.13753e-07
-0.0103199
1.55115e-07
-0.000219748
-0.000659207
3.80133e-09
-0.00109867
1.47793e-08
-0.00153813
3.30219e-08
-0.00197755
5.94369e-08
-0.00241696
9.16727e-08
-0.0028563
1.32385e-07
-0.00329563
1.75669e-07
-0.00373484
2.27422e-07
-0.00417408
2.77003e-07
-0.00461313
3.344e-07
-0.00505224
3.83762e-07
-0.00549109
4.39294e-07
-0.00593002
4.80353e-07
-0.00636867
5.24769e-07
-0.00680734
5.48617e-07
-0.00724582
5.80686e-07
-0.00768411
5.83637e-07
-0.00812249
5.86193e-07
-0.00856022
5.46087e-07
-0.00899863
5.05696e-07
-0.00943557
4.10929e-07
-0.00987417
3.19144e-07
-0.0103099
1.54524e-07
-0.00021953
-0.000658554
3.91865e-09
-0.00109758
1.51774e-08
-0.00153661
3.39406e-08
-0.00197559
6.11043e-08
-0.00241457
9.43951e-08
-0.00285346
1.36329e-07
-0.00329236
1.81179e-07
-0.00373113
2.34553e-07
-0.00416993
2.8611e-07
-0.00460853
3.45469e-07
-0.0050472
3.9705e-07
-0.00548561
4.54855e-07
-0.00592409
4.97735e-07
-0.00636229
5.43847e-07
-0.00680051
5.63985e-07
-0.00723854
5.97306e-07
-0.00767637
6.02294e-07
-0.00811428
6.04329e-07
-0.00855156
5.62567e-07
-0.00898949
5.204e-07
-0.00942598
4.23083e-07
-0.00986409
3.28917e-07
-0.0102994
1.59784e-07
-0.000219304
-0.000657875
4.08549e-09
-0.00109645
1.57645e-08
-0.00153502
3.52967e-08
-0.00197355
6.35005e-08
-0.00241208
9.82909e-08
-0.00285052
1.41845e-07
-0.00328897
1.88872e-07
-0.00372728
2.44298e-07
-0.00416562
2.9855e-07
-0.00460377
3.60306e-07
-0.00504198
4.15083e-07
-0.00547992
4.75966e-07
-0.00591795
5.23259e-07
-0.00635567
5.74169e-07
-0.00679344
6.0452e-07
-0.00723099
6.31015e-07
-0.00766836
6.29979e-07
-0.00810579
6.22519e-07
-0.0085426
5.83889e-07
-0.00898004
5.40379e-07
-0.00941607
4.38904e-07
-0.00985367
3.41312e-07
-0.0102885
1.65654e-07
-0.000219063
-0.000657151
4.28933e-09
-0.00109524
1.65001e-08
-0.00153334
3.69925e-08
-0.00197138
6.64946e-08
-0.00240942
1.03128e-07
-0.00284738
1.48663e-07
-0.00328535
1.98311e-07
-0.00372317
2.56158e-07
-0.00416103
3.13488e-07
-0.00459868
3.77836e-07
-0.00503641
4.35762e-07
-0.00547385
4.99342e-07
-0.00591139
5.49782e-07
-0.00634862
6.0436e-07
-0.0067859
6.37925e-07
-0.00722295
6.76359e-07
-0.00765982
6.65711e-07
-0.00809674
6.6103e-07
-0.00853306
6.11612e-07
-0.00896998
5.65847e-07
-0.00940553
4.59291e-07
-0.00984258
3.56788e-07
-0.0102769
1.73815e-07
-0.000218808
-0.000656387
4.52153e-09
-0.00109396
1.73427e-08
-0.00153155
3.89267e-08
-0.00196909
6.99031e-08
-0.00240662
1.08625e-07
-0.00284406
1.56406e-07
-0.00328152
2.09045e-07
-0.00371883
2.69633e-07
-0.00415618
3.30489e-07
-0.00459332
3.97687e-07
-0.00503053
4.59009e-07
-0.00546745
5.2502e-07
-0.00590448
5.77772e-07
-0.00634118
6.3372e-07
-0.00677795
6.68338e-07
-0.00721445
7.06941e-07
-0.00765081
7.02464e-07
-0.00808719
6.95998e-07
-0.008523
6.4326e-07
-0.00895936
5.95601e-07
-0.00939441
4.84717e-07
-0.00983089
3.75458e-07
-0.0102648
1.83817e-07
-0.00021854
-0.000655584
4.76297e-09
-0.00109263
1.8217e-08
-0.00152968
4.09314e-08
-0.00196668
7.34318e-08
-0.00240368
1.14324e-07
-0.00284059
1.64446e-07
-0.00327751
2.2026e-07
-0.00371428
2.83771e-07
-0.0041511
3.48573e-07
-0.00458769
4.18953e-07
-0.00502436
4.84454e-07
-0.00546074
5.53304e-07
-0.00589723
6.09114e-07
-0.00633338
6.6631e-07
-0.00676961
7.00643e-07
-0.00720554
7.33924e-07
-0.00764136
7.37611e-07
-0.00807718
7.37561e-07
-0.00851246
6.93968e-07
-0.00894823
6.35479e-07
-0.00938275
5.18379e-07
-0.00981863
4.00245e-07
-0.010252
1.97102e-07
-0.00021826
-0.000654744
4.99216e-09
-0.00109123
1.90476e-08
-0.00152772
4.28347e-08
-0.00196416
7.67727e-08
-0.0024006
1.1972e-07
-0.00283695
1.72033e-07
-0.00327331
2.30873e-07
-0.00370951
2.97142e-07
-0.00414577
3.65878e-07
-0.00458179
4.39382e-07
-0.0050179
5.09583e-07
-0.00545371
5.81671e-07
-0.00588963
6.42304e-07
-0.00632521
7.02249e-07
-0.00676087
7.39178e-07
-0.00719622
7.73997e-07
-0.00763148
7.67596e-07
-0.0080667
7.78843e-07
-0.00850141
6.93498e-07
-0.00893658
6.79368e-07
-0.00937055
5.59191e-07
-0.0098058
4.32566e-07
-0.0102386
2.15867e-07
-0.000217967
-0.000653867
5.19956e-09
-0.00108976
1.9781e-08
-0.00152567
4.45105e-08
-0.00196153
7.96764e-08
-0.00239738
1.24405e-07
-0.00283314
1.78511e-07
-0.00326892
2.39917e-07
-0.00370454
3.08318e-07
-0.0041402
3.80355e-07
-0.00457564
4.56161e-07
-0.00501116
5.30497e-07
-0.00544637
6.05081e-07
-0.0058817
6.70947e-07
-0.00631667
7.33716e-07
-0.00675174
7.76945e-07
-0.00718648
8.14685e-07
-0.00762117
8.14817e-07
-0.00805576
8.21804e-07
-0.00848988
7.84519e-07
-0.00892441
7.26655e-07
-0.00935781
6.00365e-07
-0.00979239
4.67679e-07
-0.0102247
2.39688e-07
-0.000217663
-0.000652952
5.37105e-09
-0.00108824
2.03671e-08
-0.00152354
4.58359e-08
-0.00195879
8.19319e-08
-0.00239403
1.27997e-07
-0.00282918
1.83361e-07
-0.00326434
2.46545e-07
-0.00369935
3.16246e-07
-0.0041344
3.90277e-07
-0.00456922
4.67177e-07
-0.00500413
5.43664e-07
-0.00543873
6.19074e-07
-0.00587344
6.87622e-07
-0.00630778
7.51201e-07
-0.00674224
7.98717e-07
-0.00717633
8.38404e-07
-0.00761042
8.48373e-07
-0.00804436
8.46324e-07
-0.00847788
7.94507e-07
-0.00891173
7.44678e-07
-0.00934454
6.16026e-07
-0.00977844
4.81541e-07
-0.0102101
2.52497e-07
-0.000217346
-0.000652002
5.50426e-09
-0.00108666
2.08172e-08
-0.00152133
4.67277e-08
-0.00195594
8.35921e-08
-0.00239055
1.30187e-07
-0.00282506
1.86736e-07
-0.00325959
2.50113e-07
-0.00369396
3.21348e-07
-0.00412838
3.94635e-07
-0.00456256
4.73307e-07
-0.00499682
5.47449e-07
-0.00543078
6.24718e-07
-0.00586485
6.88903e-07
-0.00629855
7.54056e-07
-0.00673236
7.95516e-07
-0.0071658
8.36436e-07
-0.00759925
8.41827e-07
-0.00803252
8.49735e-07
-0.00846542
7.81261e-07
-0.00889858
7.08257e-07
-0.00933077
5.79044e-07
-0.00976395
4.41029e-07
-0.010195
2.16686e-07
-0.000217017
-0.000651017
5.88969e-09
-0.00108502
2.22267e-08
-0.00151903
4.99209e-08
-0.00195298
8.89267e-08
-0.00238694
1.38678e-07
-0.00282079
1.98113e-07
-0.00325466
2.65971e-07
-0.00368837
3.40437e-07
-0.00412213
4.19391e-07
-0.00455565
5.01154e-07
-0.00498925
5.81719e-07
-0.00542254
6.61302e-07
-0.00585595
7.31595e-07
-0.00628897
7.97471e-07
-0.00672213
8.42523e-07
-0.00715489
8.81408e-07
-0.00758769
8.85723e-07
-0.00802024
8.84712e-07
-0.0084525
8.25665e-07
-0.00888495
7.47528e-07
-0.00931651
6.14853e-07
-0.00974897
4.70421e-07
-0.0101795
2.36314e-07
-0.000216678
-0.000649999
6.29307e-09
-0.00108332
2.37128e-08
-0.00151665
5.32281e-08
-0.00194993
9.44686e-08
-0.0023832
1.47313e-07
-0.00281638
2.09782e-07
-0.00324957
2.81987e-07
-0.0036826
3.60018e-07
-0.00411567
4.44639e-07
-0.0045485
5.3017e-07
-0.00498143
6.17603e-07
-0.00541402
7.00573e-07
-0.00584675
7.78237e-07
-0.00627907
8.46162e-07
-0.00671155
8.96849e-07
-0.00714361
9.34758e-07
-0.00757573
9.38406e-07
-0.00800756
9.29574e-07
-0.00843914
8.72611e-07
-0.00887088
8.05177e-07
-0.00930178
6.60376e-07
-0.00973348
5.10125e-07
-0.0101633
2.64406e-07
-0.000216328
-0.00064895
6.60908e-09
-0.00108157
2.48545e-08
-0.0015142
5.56889e-08
-0.00194678
9.85657e-08
-0.00237935
1.5342e-07
-0.00281183
2.18039e-07
-0.00324432
2.9285e-07
-0.00367664
3.73501e-07
-0.00410901
4.61473e-07
-0.00454114
5.50014e-07
-0.00497336
6.4157e-07
-0.00540524
7.27734e-07
-0.00583727
8.10319e-07
-0.00626888
8.81198e-07
-0.00670065
9.36831e-07
-0.00713198
9.76345e-07
-0.0075634
9.81096e-07
-0.00799449
9.69847e-07
-0.00842538
8.92322e-07
-0.00885636
8.36261e-07
-0.00928659
6.91901e-07
-0.00971752
5.35855e-07
-0.0101467
2.81616e-07
-0.000215968
-0.000647871
6.85113e-09
-0.00107977
2.56986e-08
-0.00151169
5.74703e-08
-0.00194354
1.0144e-07
-0.0023754
1.57549e-07
-0.00280715
2.23419e-07
-0.00323892
2.99681e-07
-0.00367052
3.81793e-07
-0.00410216
4.71618e-07
-0.00453357
5.61832e-07
-0.00496506
6.55697e-07
-0.00539622
7.43587e-07
-0.00582751
8.29275e-07
-0.00625839
9.02086e-07
-0.00668943
9.62539e-07
-0.00712001
1.00479e-06
-0.00755071
1.01706e-06
-0.00798104
1.00952e-06
-0.00841124
9.46788e-07
-0.00884143
8.71299e-07
-0.00927096
7.37126e-07
-0.00970108
5.61957e-07
-0.0101296
2.96513e-07
-0.000215599
-0.000646763
7.02342e-09
-0.00107793
2.62646e-08
-0.0015091
5.86382e-08
-0.00194022
1.03217e-07
-0.00237133
1.59979e-07
-0.00280235
2.26326e-07
-0.00323337
3.03151e-07
-0.00366424
3.8571e-07
-0.00409514
4.76292e-07
-0.0045258
5.66869e-07
-0.00495654
6.61521e-07
-0.00538696
7.49397e-07
-0.0058175
8.35882e-07
-0.00624763
9.08256e-07
-0.00667792
9.70793e-07
-0.00710775
1.01348e-06
-0.00753769
1.0316e-06
-0.00796724
1.0285e-06
-0.00839671
9.77741e-07
-0.00882612
9.01232e-07
-0.00925489
7.04121e-07
-0.0096842
5.75239e-07
-0.010112
3.04772e-07
-0.00021522
-0.000645628
7.11849e-09
-0.00107603
2.65202e-08
-0.00150645
5.91292e-08
-0.00193681
1.03816e-07
-0.00236717
1.60649e-07
-0.00279743
2.26768e-07
-0.00322769
3.03366e-07
-0.0036578
3.85509e-07
-0.00408794
4.75997e-07
-0.00451784
5.66017e-07
-0.00494782
6.60634e-07
-0.00537747
7.47257e-07
-0.00580725
8.32901e-07
-0.00623661
9.02619e-07
-0.00666613
9.64082e-07
-0.00709518
1.00327e-06
-0.00752436
1.02242e-06
-0.00795312
1.01821e-06
-0.00838183
9.7462e-07
-0.00881041
9.2513e-07
-0.00923843
7.55036e-07
-0.0096669
5.77137e-07
-0.0100939
3.04506e-07
-0.000214833
-0.000644467
7.11675e-09
-0.0010741
2.638e-08
-0.00150374
5.87549e-08
-0.00193333
1.0296e-07
-0.00236291
1.59182e-07
-0.0027924
2.24346e-07
-0.00322189
2.99929e-07
-0.00365122
3.80922e-07
-0.00408058
4.7066e-07
-0.00450971
5.5959e-07
-0.0049389
6.54111e-07
-0.00536778
7.39013e-07
-0.00579677
8.23756e-07
-0.00622535
8.89857e-07
-0.00665408
9.49378e-07
-0.00708234
9.82651e-07
-0.00751073
9.99285e-07
-0.00793869
9.86244e-07
-0.00836663
9.39132e-07
-0.00879433
8.61533e-07
-0.00922161
7.29734e-07
-0.00964921
5.58095e-07
-0.0100755
2.94955e-07
-0.000214438
-0.000643282
6.97752e-09
-0.00107213
2.57548e-08
-0.00150098
5.7332e-08
-0.00192978
1.00388e-07
-0.00235857
1.55231e-07
-0.00278727
2.18694e-07
-0.00321596
2.92525e-07
-0.0036445
3.71778e-07
-0.00407307
4.60331e-07
-0.00450141
5.47737e-07
-0.0049298
6.42367e-07
-0.00535788
7.2537e-07
-0.00578607
8.10333e-07
-0.00621385
8.73285e-07
-0.00664177
9.32703e-07
-0.00706923
9.58561e-07
-0.00749681
9.7734e-07
-0.00792395
9.55716e-07
-0.00835108
9.05749e-07
-0.00877795
8.22294e-07
-0.00920444
6.86656e-07
-0.00963117
5.32336e-07
-0.0100567
2.80519e-07
-0.000214036
-0.000642076
6.71374e-09
-0.00107012
2.46416e-08
-0.00149817
5.48626e-08
-0.00192616
9.61396e-08
-0.00235415
1.48938e-07
-0.00278204
2.10101e-07
-0.00320993
2.81673e-07
-0.00363767
3.58703e-07
-0.00406542
4.45691e-07
-0.00449295
5.31015e-07
-0.00492053
6.25457e-07
-0.0053478
7.06282e-07
-0.00577517
7.92199e-07
-0.00620213
8.52236e-07
-0.00662923
9.14447e-07
-0.00705587
9.19479e-07
-0.00748262
9.59776e-07
-0.00790893
9.43735e-07
-0.00833525
8.84191e-07
-0.00876127
7.95664e-07
-0.00918698
6.31865e-07
-0.00961282
4.94487e-07
-0.0100376
2.68496e-07
-0.000213627
-0.000640851
6.35225e-09
-0.00106807
2.31417e-08
-0.00149531
5.15699e-08
-0.00192249
9.06328e-08
-0.00234965
1.41025e-07
-0.00277673
1.99592e-07
-0.0032038
2.68712e-07
-0.00363072
3.43018e-07
-0.00405764
4.27834e-07
-0.00448435
5.10071e-07
-0.0049111
6.02782e-07
-0.00533754
6.73428e-07
-0.00576407
7.67883e-07
-0.00619021
8.4567e-07
-0.00661646
8.93517e-07
-0.00704227
9.20054e-07
-0.00746818
9.41324e-07
-0.00789366
9.39872e-07
-0.00831916
8.7456e-07
-0.0087443
7.83274e-07
-0.00916926
6.67012e-07
-0.0095942
4.91612e-07
-0.0100182
2.70128e-07
-0.000213212
-0.000639606
5.94309e-09
-0.001066
2.14633e-08
-0.0014924
4.78868e-08
-0.00191875
8.45887e-08
-0.00234509
1.32583e-07
-0.00277133
1.88536e-07
-0.00319756
2.55142e-07
-0.00362365
3.26063e-07
-0.00404974
4.07452e-07
-0.00447561
4.84452e-07
-0.00490151
5.74498e-07
-0.00532712
6.59265e-07
-0.0057528
7.35487e-07
-0.00617811
7.98072e-07
-0.00660351
8.58456e-07
-0.0070285
8.87286e-07
-0.00745356
8.9207e-07
-0.0078782
8.79192e-07
-0.00830285
8.34269e-07
-0.00872714
8.02848e-07
-0.00915124
6.59544e-07
-0.0095753
5.21939e-07
-0.00999846
2.71954e-07
-0.000212791
-0.000638343
5.52629e-09
-0.0010639
1.984e-08
-0.00148946
4.44842e-08
-0.00191496
7.91907e-08
-0.00234045
1.25054e-07
-0.00276585
1.78357e-07
-0.00319124
2.4235e-07
-0.00361648
3.08517e-07
-0.00404172
3.84751e-07
-0.00446675
4.50977e-07
-0.0048918
5.38293e-07
-0.00531657
5.84406e-07
-0.0057414
6.9425e-07
-0.00616588
7.44049e-07
-0.00659042
8.00102e-07
-0.00701456
8.41547e-07
-0.00743879
8.42651e-07
-0.00786256
8.3927e-07
-0.00828636
7.79613e-07
-0.00870977
7.38865e-07
-0.00913302
6.26365e-07
-0.00955613
4.951e-07
-0.00997846
2.58224e-07
-0.000212364
-0.000637064
5.16497e-09
-0.00106176
1.852e-08
-0.00148647
4.18697e-08
-0.00191112
7.49078e-08
-0.00233576
1.19019e-07
-0.00276031
1.68475e-07
-0.00318484
2.28251e-07
-0.00360923
2.8908e-07
-0.00403362
3.57619e-07
-0.0044578
4.27193e-07
-0.004882
5.00106e-07
-0.00530594
5.59747e-07
-0.0057299
6.39726e-07
-0.00615353
6.99462e-07
-0.00657723
7.45238e-07
-0.00700049
7.88172e-07
-0.00742387
7.89916e-07
-0.00784673
7.86931e-07
-0.00826968
7.30959e-07
-0.00869218
6.75497e-07
-0.00911457
5.49192e-07
-0.00953674
4.09564e-07
-0.00995827
2.28325e-07
-0.000211933
-0.000635772
4.83559e-09
-0.00105961
1.7155e-08
-0.00148346
3.85031e-08
-0.00190725
6.83966e-08
-0.00233103
1.08167e-07
-0.00275471
1.5275e-07
-0.00317839
2.06515e-07
-0.00360193
2.57568e-07
-0.00402546
3.22342e-07
-0.0044488
3.58847e-07
-0.00487213
4.52658e-07
-0.00529521
5.14149e-07
-0.00571831
5.71679e-07
-0.00614107
6.30087e-07
-0.0065639
6.72233e-07
-0.00698627
7.13942e-07
-0.00740877
7.11173e-07
-0.00783072
7.25864e-07
-0.00825281
6.87213e-07
-0.00867438
6.40595e-07
-0.00909595
5.25286e-07
-0.00951722
3.88006e-07
-0.00993796
2.17e-07
-0.000211499
-0.000634471
4.29602e-09
-0.00105744
1.46372e-08
-0.00148042
3.29129e-08
-0.00190335
5.85885e-08
-0.00232627
9.2212e-08
-0.00274909
1.30197e-07
-0.00317191
1.77817e-07
-0.00359458
2.26195e-07
-0.00401724
2.85605e-07
-0.00443971
3.33157e-07
-0.00486217
3.90956e-07
-0.00528437
4.45154e-07
-0.0057066
4.90945e-07
-0.00612846
5.39422e-07
-0.00655041
5.74568e-07
-0.00697189
6.14565e-07
-0.0073935
6.37814e-07
-0.00781454
6.76635e-07
-0.0082358
6.47357e-07
-0.00865646
6.03174e-07
-0.00907722
4.9204e-07
-0.00949757
3.93488e-07
-0.00991752
2.24394e-07
-0.000211063
-0.000633163
3.64246e-09
-0.00105526
1.22193e-08
-0.00147737
2.70952e-08
-0.00189943
4.81305e-08
-0.00232147
7.57498e-08
-0.00274343
1.083e-07
-0.00316536
1.49094e-07
-0.00358717
1.90614e-07
-0.00400893
2.40247e-07
-0.00443052
2.90529e-07
-0.00485209
3.33088e-07
-0.00527341
3.77669e-07
-0.00569475
4.10751e-07
-0.00611573
4.51588e-07
-0.0065368
4.72587e-07
-0.00695738
5.24506e-07
-0.00737815
5.73933e-07
-0.0077983
5.71601e-07
-0.00821876
5.37973e-07
-0.00863851
5.07648e-07
-0.00905843
4.2744e-07
-0.00947783
3.49175e-07
-0.00989689
2.11717e-07
-0.000210625
-0.000631848
3.16053e-09
-0.00105307
1.02242e-08
-0.0014743
2.26247e-08
-0.00189548
4.16337e-08
-0.00231663
6.71397e-08
-0.0027377
9.6171e-08
-0.00315874
1.37588e-07
-0.00357965
1.69514e-07
-0.00400053
2.06678e-07
-0.00442123
2.45663e-07
-0.00484192
2.84502e-07
-0.00526234
3.29176e-07
-0.00568281
3.68691e-07
-0.00610289
4.10086e-07
-0.00652311
4.32455e-07
-0.0069428
4.43886e-07
-0.00736277
4.05508e-07
-0.00778203
4.18182e-07
-0.00820162
3.91294e-07
-0.00862044
3.71786e-07
-0.00903947
2.82499e-07
-0.00945794
2.20615e-07
-0.00987607
7.51744e-08
-0.000210179
-0.000630513
2.32195e-09
-0.00105085
6.94263e-09
-0.00147119
1.48289e-08
-0.00189148
2.70561e-08
-0.00231176
4.19915e-08
-0.00273196
6.07069e-08
-0.00315213
8.0833e-08
-0.00357218
1.06882e-07
-0.0039922
1.3501e-07
-0.00441204
1.68081e-07
-0.00483187
1.98054e-07
-0.00525143
2.30292e-07
-0.00567105
2.52807e-07
-0.00609027
2.80993e-07
-0.00650963
2.93835e-07
-0.00692843
3.1851e-07
-0.00734746
3.18992e-07
-0.00776577
3.28333e-07
-0.0081844
3.00413e-07
-0.00860226
2.96307e-07
-0.00902039
2.53e-07
-0.0094379
1.83594e-07
-0.00985524
8.41385e-08
-0.000209741
-0.000629197
1.75748e-09
-0.00104865
4.62941e-09
-0.00146812
8.93162e-09
-0.00188753
1.7502e-08
-0.00230693
2.70998e-08
-0.00272624
4.12717e-08
-0.00314552
5.63347e-08
-0.00356468
7.5542e-08
-0.0039838
9.39682e-08
-0.00440273
1.15902e-07
-0.00482166
1.35375e-07
-0.0052403
1.60193e-07
-0.005659
1.78044e-07
-0.00607729
2.03342e-07
-0.00649574
2.12807e-07
-0.00691361
2.34038e-07
-0.00733178
2.28886e-07
-0.0077492
2.42009e-07
-0.00816706
2.19244e-07
-0.00858404
2.19075e-07
-0.00900147
1.75542e-07
-0.00941808
1.51811e-07
-0.00983465
7.66641e-08
-0.000209291
-0.000627849
1.0266e-09
-0.00104641
1.53825e-09
-0.00146498
2.31461e-09
-0.00188349
5.75312e-09
-0.00230199
8.49813e-09
-0.0027204
1.58091e-08
-0.00313879
2.33705e-08
-0.00355705
3.2946e-08
-0.00397529
4.18587e-08
-0.00439334
5.43842e-08
-0.0048114
6.43847e-08
-0.00522916
8.02135e-08
-0.00564702
8.91868e-08
-0.00606443
1.07789e-07
-0.00648206
1.12179e-07
-0.00689906
1.32528e-07
-0.00731642
1.28668e-07
-0.00773294
1.4676e-07
-0.00814994
1.30616e-07
-0.00856599
1.39244e-07
-0.00898245
1.08512e-07
-0.00939811
9.88172e-08
-0.0098137
4.71485e-08
-0.00020885
-0.000626526
2.2807e-10
-0.0010442
-1.72187e-09
-0.00146189
-4.5418e-09
-0.00187952
-7.34034e-09
-0.00229715
-1.27328e-08
-0.00271468
-1.09391e-08
-0.0031322
-1.41347e-08
-0.00354958
-1.58994e-08
-0.00396694
-1.72778e-08
-0.00438411
-1.56489e-08
-0.00480129
-1.65108e-08
-0.00521816
-1.08208e-08
-0.00563513
-1.14135e-08
-0.00605164
-7.28158e-10
-0.00646836
-3.06426e-09
-0.00688443
1.3177e-08
-0.00730087
7.09201e-09
-0.00771645
2.68969e-08
-0.00813255
1.52281e-08
-0.00854767
3.47687e-08
-0.00896332
1.75463e-08
-0.00937806
3.17327e-08
-0.00979296
7.55708e-09
-0.000208403
-0.000625186
-7.41355e-10
-0.00104197
-5.6554e-09
-0.00145876
-1.24805e-08
-0.0018755
-2.14667e-08
-0.00229224
-3.03939e-08
-0.00270887
-3.89218e-08
-0.00312549
-6.08229e-08
-0.00354197
-7.16421e-08
-0.00395844
-8.35964e-08
-0.00437471
-9.46142e-08
-0.00479099
-1.07165e-07
-0.00520697
-1.13224e-07
-0.00562306
-1.25146e-07
-0.00603867
-1.23658e-07
-0.00645454
-1.33954e-07
-0.00686972
-1.21886e-07
-0.00728535
-1.30337e-07
-0.00770005
-1.07052e-07
-0.00811538
-1.12269e-07
-0.0085296
-7.89577e-08
-0.00894447
-7.78218e-08
-0.00935829
-3.80561e-08
-0.00977229
-2.99554e-08
-0.000207959
-0.000623856
-1.78534e-09
-0.00103975
-9.76895e-09
-0.00145566
-2.21822e-08
-0.00187152
-3.87813e-08
-0.00228737
-5.85679e-08
-0.00270311
-8.04267e-08
-0.00311887
-1.08391e-07
-0.00353447
-1.24628e-07
-0.00395007
-1.56478e-07
-0.00436546
-1.79598e-07
-0.00478089
-2.03461e-07
-0.005196
-2.22807e-07
-0.00561123
-2.4684e-07
-0.00602597
-2.54773e-07
-0.00644098
-2.733e-07
-0.00685527
-2.6564e-07
-0.00727004
-2.76259e-07
-0.00768382
-2.50019e-07
-0.00809826
-2.48748e-07
-0.00851155
-2.02525e-07
-0.0089255
-1.83603e-07
-0.00933841
-1.17349e-07
-0.00975157
-7.67214e-08
-0.000207515
-0.000622526
-2.80541e-09
-0.00103754
-1.3821e-08
-0.00145256
-3.12685e-08
-0.00186753
-5.49275e-08
-0.00228249
-8.36706e-08
-0.00269735
-1.18187e-07
-0.00311223
-1.54656e-07
-0.00352694
-1.86554e-07
-0.00394165
-2.36462e-07
-0.00435616
-2.6493e-07
-0.0047707
-3.05196e-07
-0.00518491
-3.40579e-07
-0.00559926
-3.76434e-07
-0.0060131
-3.94801e-07
-0.00642724
-4.22764e-07
-0.00684063
-4.20499e-07
-0.00725455
-4.34212e-07
-0.00766744
-4.05074e-07
-0.00808107
-3.97549e-07
-0.00849347
-3.36553e-07
-0.00890669
-2.98303e-07
-0.0093187
-2.01744e-07
-0.00973112
-1.24639e-07
-0.000207074
-0.000621202
-3.8328e-09
-0.00103533
-1.81068e-08
-0.00144947
-4.07706e-08
-0.00186356
-7.14605e-08
-0.00227765
-1.08603e-07
-0.00269163
-1.52089e-07
-0.00310563
-2.00907e-07
-0.00351945
-2.50172e-07
-0.00393331
-3.11231e-07
-0.00434694
-3.52905e-07
-0.00476062
-4.22929e-07
-0.00517396
-4.66971e-07
-0.00558747
-5.12903e-07
-0.00600044
-5.42729e-07
-0.00641376
-5.80219e-07
-0.00682628
-5.826e-07
-0.00723938
-5.98995e-07
-0.00765139
-5.65897e-07
-0.00806421
-5.50984e-07
-0.00847572
-4.74289e-07
-0.00888808
-4.15195e-07
-0.0092992
-2.88225e-07
-0.00971074
-1.73689e-07
-0.000206633
-0.00061988
-5.02149e-09
-0.00103313
-2.27788e-08
-0.00144639
-5.12336e-08
-0.0018596
-8.97503e-08
-0.00227281
-1.36609e-07
-0.00268591
-1.91336e-07
-0.00309904
-2.51411e-07
-0.00351199
-3.17793e-07
-0.00392499
-3.91556e-07
-0.00433772
-4.52975e-07
-0.00475055
-5.35819e-07
-0.00516303
-5.81587e-07
-0.00557566
-6.56294e-07
-0.00598776
-6.96585e-07
-0.00640022
-7.41425e-07
-0.00681186
-7.4949e-07
-0.00722412
-7.69301e-07
-0.00763523
-7.33212e-07
-0.00804724
-7.11054e-07
-0.00845785
-6.18848e-07
-0.00886944
-5.38955e-07
-0.00927968
-3.80119e-07
-0.00969049
-2.27013e-07
-0.000206197
-0.000618573
-6.2428e-09
-0.00103095
-2.76295e-08
-0.00144334
-6.21378e-08
-0.00185568
-1.08971e-07
-0.00226802
-1.66407e-07
-0.00268026
-2.33705e-07
-0.00309252
-3.08619e-07
-0.0035046
-3.89247e-07
-0.00391674
-4.7675e-07
-0.00432861
-5.57352e-07
-0.0047406
-6.51335e-07
-0.00515219
-7.16052e-07
-0.005564
-7.84222e-07
-0.00597524