/*--------------------------------*- C++ -*----------------------------------*\
  =========                 |
  \\      /  F ield         | OpenFOAM: The Open Source CFD Toolbox
   \\    /   O peration     | Website:  https://openfoam.org
    \\  /    A nd           | Version:  10
     \\/     M anipulation  |
\*---------------------------------------------------------------------------*/
FoamFile
{
    format      ascii;
    class       volScalarField;
    location    "0.04";
    object      T;
}
// * * * * * * * * * * * * * * * * * * * * * * * * * * * * * * * * * * * * * //

dimensions      [0 0 0 1 0 0 0];

internalField   nonuniform List<scalar> 
4176
(
235.363
235.387
235.39
235.394
235.402
235.412
235.425
235.439
235.456
235.475
235.496
235.52
235.543
235.574
235.599
235.639
235.662
235.714
235.732
235.799
235.81
235.892
235.895
235.983
237.265
237.29
237.293
237.298
237.306
237.317
237.331
237.346
237.364
237.385
237.407
237.433
237.459
237.491
237.519
237.56
237.587
237.64
237.664
237.732
237.748
237.834
237.841
237.944
237.609
237.634
237.638
237.642
237.651
237.662
237.676
237.692
237.711
237.732
237.755
237.781
237.807
237.84
237.869
237.91
237.94
237.991
238.019
238.085
238.105
238.193
238.203
238.316
238.149
238.175
238.178
238.183
238.192
238.203
238.218
238.234
238.253
238.274
238.298
238.325
238.352
238.386
238.414
238.457
238.486
238.54
238.565
238.635
238.653
238.743
238.751
238.864
238.485
238.511
238.514
238.519
238.528
238.54
238.554
238.571
238.59
238.612
238.635
238.663
238.69
238.724
238.752
238.797
238.823
238.881
238.903
238.976
238.991
239.082
239.089
239.198
238.891
238.917
238.921
238.926
238.935
238.947
238.962
238.978
238.998
239.02
239.044
239.072
239.099
239.134
239.163
239.208
239.235
239.293
239.315
239.39
239.404
239.497
239.503
239.614
239.118
239.144
239.147
239.152
239.162
239.173
239.188
239.205
239.225
239.247
239.271
239.299
239.327
239.362
239.391
239.436
239.464
239.522
239.544
239.619
239.633
239.727
239.733
239.846
239.43
239.456
239.46
239.465
239.474
239.486
239.501
239.518
239.538
239.561
239.585
239.613
239.642
239.677
239.706
239.752
239.78
239.839
239.861
239.937
239.952
240.047
240.052
240.167
239.598
239.624
239.628
239.633
239.643
239.655
239.67
239.688
239.708
239.73
239.755
239.784
239.812
239.848
239.877
239.924
239.952
240.012
240.034
240.111
240.125
240.222
240.227
240.344
239.792
239.818
239.821
239.827
239.836
239.848
239.864
239.881
239.901
239.923
239.949
239.977
240.005
240.041
240.071
240.117
240.145
240.205
240.227
240.304
240.318
240.414
240.42
240.535
239.889
239.915
239.919
239.924
239.933
239.946
239.961
239.978
239.999
240.021
240.046
240.075
240.104
240.14
240.17
240.217
240.245
240.305
240.328
240.406
240.42
240.517
240.523
240.641
240.016
240.042
240.045
240.051
240.06
240.072
240.088
240.105
240.126
240.148
240.174
240.202
240.231
240.268
240.298
240.345
240.373
240.434
240.456
240.534
240.549
240.647
240.652
240.771
240.071
240.097
240.101
240.106
240.115
240.127
240.143
240.16
240.181
240.204
240.229
240.258
240.287
240.323
240.353
240.4
240.429
240.49
240.512
240.591
240.605
240.704
240.709
240.828
240.12
240.146
240.15
240.155
240.165
240.177
240.192
240.21
240.231
240.253
240.279
240.307
240.337
240.373
240.404
240.451
240.479
240.54
240.563
240.642
240.656
240.756
240.761
240.881
240.136
240.162
240.166
240.171
240.181
240.192
240.208
240.225
240.246
240.269
240.295
240.323
240.353
240.389
240.42
240.467
240.495
240.557
240.58
240.658
240.673
240.772
240.777
240.898
240.139
240.165
240.169
240.174
240.184
240.196
240.212
240.229
240.25
240.272
240.298
240.327
240.356
240.392
240.423
240.47
240.499
240.56
240.583
240.662
240.676
240.776
240.781
240.902
240.127
240.153
240.157
240.162
240.172
240.184
240.2
240.217
240.238
240.26
240.286
240.315
240.344
240.381
240.412
240.458
240.487
240.548
240.572
240.651
240.665
240.765
240.77
240.891
240.087
240.113
240.117
240.122
240.132
240.144
240.16
240.177
240.198
240.22
240.246
240.275
240.304
240.34
240.371
240.418
240.447
240.508
240.531
240.61
240.624
240.724
240.729
240.85
240.032
240.058
240.062
240.066
240.077
240.088
240.104
240.121
240.142
240.164
240.19
240.218
240.248
240.284
240.315
240.361
240.39
240.451
240.474
240.552
240.567
240.666
240.671
240.792
239.965
239.99
239.994
239.999
240.009
240.02
240.037
240.053
240.075
240.096
240.122
240.15
240.18
240.215
240.246
240.292
240.322
240.381
240.405
240.483
240.497
240.596
240.601
240.722
239.884
239.91
239.914
239.918
239.928
239.94
239.956
239.972
239.993
240.015
240.041
240.068
240.098
240.133
240.164
240.209
240.239
240.298
240.322
240.399
240.413
240.511
240.516
240.636
239.793
239.818
239.822
239.827
239.837
239.848
239.864
239.88
239.901
239.922
239.948
239.975
240.005
240.04
240.07
240.115
240.145
240.203
240.227
240.303
240.318
240.414
240.419
240.539
239.692
239.717
239.721
239.726
239.736
239.746
239.762
239.778
239.799
239.82
239.846
239.873
239.902
239.936
239.967
240.011
240.041
240.097
240.122
240.197
240.212
240.307
240.312
240.431
239.584
239.609
239.613
239.617
239.627
239.638
239.654
239.669
239.69
239.711
239.736
239.763
239.791
239.825
239.856
239.899
239.929
239.984
240.009
240.083
240.098
240.192
240.197
240.314
239.47
239.495
239.499
239.503
239.513
239.523
239.539
239.554
239.574
239.595
239.62
239.646
239.674
239.708
239.738
239.78
239.81
239.864
239.889
239.961
239.976
240.069
240.074
240.189
239.352
239.377
239.381
239.384
239.394
239.404
239.42
239.435
239.455
239.475
239.5
239.525
239.553
239.586
239.616
239.657
239.686
239.74
239.765
239.835
239.85
239.941
239.946
240.058
239.231
239.255
239.259
239.262
239.272
239.282
239.297
239.312
239.332
239.351
239.376
239.4
239.429
239.46
239.49
239.53
239.559
239.611
239.636
239.704
239.72
239.808
239.813
239.923
239.109
239.133
239.137
239.141
239.15
239.16
239.175
239.189
239.208
239.227
239.251
239.275
239.303
239.334
239.363
239.402
239.431
239.481
239.506
239.572
239.587
239.673
239.678
239.786
238.987
239.01
239.014
239.018
239.027
239.036
239.051
239.064
239.084
239.102
239.126
239.149
239.176
239.206
239.234
239.272
239.3
239.35
239.374
239.438
239.453
239.537
239.542
239.647
238.867
238.891
238.895
238.898
238.907
238.916
238.93
238.943
238.962
238.98
239.003
239.025
239.052
239.08
239.108
239.145
239.173
239.22
239.244
239.305
239.321
239.402
239.407
239.51
238.75
238.773
238.777
238.78
238.788
238.797
238.811
238.823
238.842
238.859
238.881
238.903
238.929
238.956
238.984
239.019
239.045
239.091
239.114
239.174
239.19
239.268
239.273
239.373
238.639
238.662
238.665
238.668
238.676
238.685
238.698
238.71
238.728
238.744
238.766
238.786
238.812
238.837
238.865
238.898
238.924
238.968
238.991
239.048
239.064
239.139
239.145
239.241
238.532
238.555
238.558
238.56
238.568
238.576
238.589
238.6
238.618
238.633
238.654
238.673
238.698
238.722
238.749
238.781
238.806
238.849
238.871
238.926
238.941
239.014
239.019
239.112
238.434
238.457
238.46
238.462
238.47
238.477
238.49
238.5
238.517
238.531
238.552
238.57
238.594
238.617
238.643
238.673
238.698
238.738
238.76
238.813
238.828
238.896
238.902
238.991
238.343
238.365
238.368
238.37
238.377
238.384
238.396
238.406
238.422
238.436
238.456
238.473
238.496
238.518
238.543
238.571
238.597
238.634
238.655
238.705
238.719
238.784
238.789
238.875
238.264
238.286
238.289
238.29
238.297
238.304
238.315
238.325
238.341
238.353
238.373
238.389
238.412
238.432
238.457
238.483
238.507
238.542
238.562
238.609
238.623
238.684
238.689
238.77
238.194
238.216
238.218
238.22
238.227
238.233
238.244
238.253
238.268
238.28
238.299
238.313
238.336
238.353
238.378
238.401
238.425
238.456
238.476
238.52
238.533
238.591
238.597
238.674
238.14
238.161
238.164
238.165
238.172
238.177
238.188
238.196
238.211
238.221
238.239
238.252
238.274
238.289
238.313
238.333
238.357
238.385
238.405
238.445
238.459
238.514
238.519
238.592
238.097
238.118
238.121
238.122
238.127
238.132
238.142
238.15
238.163
238.172
238.19
238.2
238.221
238.234
238.257
238.275
238.298
238.324
238.344
238.382
238.395
238.447
238.451
238.52
238.069
238.089
238.092
238.092
238.098
238.102
238.111
238.118
238.131
238.138
238.155
238.164
238.184
238.195
238.218
238.234
238.257
238.281
238.301
238.335
238.349
238.395
238.4
238.462
238.052
238.073
238.075
238.075
238.08
238.084
238.093
238.099
238.111
238.118
238.134
238.142
238.163
238.173
238.195
238.21
238.232
238.254
238.272
238.301
238.313
238.354
238.359
238.416
238.042
238.063
238.064
238.065
238.07
238.074
238.083
238.089
238.101
238.108
238.125
238.133
238.153
238.163
238.185
238.2
238.221
238.237
238.255
238.28
238.292
238.331
238.335
238.389
238.084
238.104
238.106
238.106
238.11
238.114
238.121
238.125
238.135
238.139
238.153
238.156
238.173
238.177
238.194
238.2
238.217
238.231
238.247
238.27
238.281
238.318
238.322
238.376
238.107
238.127
238.128
238.127
238.13
238.133
238.139
238.142
238.152
238.154
238.168
238.172
238.189
238.195
238.215
238.226
238.246
238.263
238.28
238.304
238.315
238.345
238.348
238.386
238.168
238.187
238.189
238.189
238.193
238.196
238.203
238.207
238.218
238.221
238.235
238.238
238.255
238.258
238.275
238.279
238.296
238.302
238.315
238.326
238.335
238.357
238.361
238.403
238.251
238.27
238.27
238.27
238.272
238.273
238.278
238.279
238.287
238.287
238.297
238.296
238.31
238.31
238.325
238.328
238.344
238.352
238.368
238.385
238.396
238.424
238.427
238.463
238.331
238.35
238.35
238.35
238.352
238.354
238.36
238.361
238.37
238.371
238.384
238.384
238.4
238.401
238.418
238.42
238.436
238.441
238.454
238.462
238.47
238.482
238.485
238.509
238.465
238.484
238.484
238.483
238.485
238.486
238.49
238.49
238.497
238.495
238.505
238.502
238.513
238.51
238.523
238.519
238.532
238.532
238.544
238.55
238.559
238.576
238.579
238.609
238.581
238.599
238.599
238.598
238.599
238.6
238.603
238.603
238.609
238.608
238.617
238.614
238.626
238.624
238.637
238.636
238.65
238.651
238.663
238.668
238.676
238.684
238.686
238.702
238.758
238.776
238.776
238.775
238.776
238.777
238.779
238.779
238.784
238.781
238.789
238.784
238.794
238.789
238.8
238.793
238.804
238.799
238.809
238.806
238.813
238.817
238.82
238.836
238.915
238.932
238.932
238.931
238.931
238.931
238.932
238.932
238.935
238.932
238.939
238.933
238.942
238.935
238.946
238.939
238.95
238.945
238.955
238.953
238.96
238.963
238.965
238.975
239.139
239.155
239.155
239.154
239.153
239.153
239.154
239.153
239.155
239.152
239.157
239.15
239.158
239.15
239.159
239.15
239.159
239.149
239.158
239.149
239.155
239.15
239.151
239.155
239.334
239.35
239.35
239.348
239.348
239.347
239.347
239.346
239.346
239.343
239.346
239.339
239.346
239.336
239.344
239.333
239.341
239.33
239.338
239.329
239.334
239.329
239.33
239.331
239.608
239.625
239.624
239.622
239.621
239.62
239.619
239.617
239.617
239.613
239.614
239.607
239.611
239.6
239.607
239.594
239.6
239.587
239.593
239.579
239.583
239.572
239.573
239.566
239.84
239.856
239.856
239.854
239.852
239.851
239.849
239.847
239.846
239.842
239.842
239.834
239.837
239.826
239.831
239.816
239.822
239.806
239.812
239.796
239.8
239.786
239.786
239.778
240.168
240.183
240.182
240.18
240.178
240.177
240.174
240.171
240.169
240.164
240.162
240.154
240.155
240.142
240.145
240.129
240.133
240.115
240.119
240.1
240.102
240.084
240.084
240.069
240.438
240.453
240.452
240.45
240.447
240.446
240.443
240.44
240.436
240.431
240.429
240.42
240.42
240.406
240.408
240.391
240.394
240.375
240.378
240.356
240.358
240.337
240.337
240.319
240.816
240.831
240.83
240.827
240.824
240.822
240.819
240.815
240.811
240.805
240.801
240.791
240.789
240.775
240.775
240.756
240.758
240.735
240.737
240.713
240.714
240.689
240.688
240.664
241.127
241.141
241.14
241.137
241.135
241.132
241.128
241.124
241.119
241.113
241.108
241.098
241.094
241.08
241.079
241.059
241.06
241.036
241.037
241.011
241.011
240.984
240.982
240.956
241.553
241.567
241.566
241.563
241.56
241.557
241.552
241.547
241.542
241.535
241.529
241.518
241.513
241.498
241.494
241.474
241.473
241.447
241.447
241.418
241.417
241.386
241.385
241.353
241.907
241.921
241.919
241.916
241.913
241.91
241.905
241.9
241.894
241.886
241.879
241.868
241.862
241.846
241.842
241.821
241.818
241.792
241.79
241.76
241.758
241.725
241.723
241.689
242.378
242.391
242.39
242.387
242.383
242.379
242.374
242.369
242.362
242.354
242.346
242.334
242.327
242.31
242.304
242.282
242.278
242.25
242.248
242.215
242.213
242.176
242.174
242.136
242.777
242.79
242.788
242.785
242.781
242.778
242.772
242.766
242.759
242.75
242.742
242.73
242.721
242.704
242.697
242.675
242.669
242.64
242.637
242.603
242.6
242.561
242.558
242.517
243.29
243.302
243.301
243.298
243.294
243.29
243.284
243.278
243.27
243.261
243.251
243.239
243.229
243.212
243.204
243.18
243.174
243.144
243.139
243.103
243.1
243.059
243.055
243.011
243.734
243.747
243.745
243.742
243.738
243.734
243.727
243.721
243.713
243.703
243.693
243.681
243.67
243.652
243.643
243.619
243.612
243.581
243.576
243.538
243.534
243.491
243.487
243.44
244.288
244.3
244.298
244.295
244.29
244.286
244.28
244.273
244.264
244.255
244.244
244.231
244.22
244.201
244.191
244.166
244.158
244.126
244.121
244.081
244.077
244.032
244.028
243.978
244.777
244.789
244.787
244.784
244.78
244.775
244.769
244.762
244.753
244.743
244.732
244.718
244.707
244.688
244.677
244.652
244.643
244.61
244.604
244.563
244.558
244.512
244.508
244.456
245.369
245.381
245.379
245.376
245.371
245.367
245.36
245.353
245.343
245.333
245.322
245.308
245.296
245.277
245.265
245.239
245.23
245.196
245.189
245.148
245.143
245.095
245.091
245.036
245.903
245.914
245.912
245.909
245.905
245.9
245.893
245.886
245.876
245.866
245.854
245.84
245.828
245.808
245.796
245.77
245.76
245.726
245.718
245.676
245.67
245.621
245.617
245.561
246.532
246.543
246.542
246.538
246.534
246.529
246.522
246.515
246.505
246.495
246.483
246.469
246.455
246.436
246.424
246.397
246.386
246.352
246.344
246.301
246.295
246.244
246.24
246.183
247.109
247.119
247.118
247.114
247.11
247.105
247.098
247.091
247.081
247.07
247.058
247.044
247.031
247.011
246.998
246.971
246.961
246.925
246.917
246.873
246.868
246.816
246.812
246.753
247.774
247.784
247.783
247.78
247.775
247.771
247.763
247.756
247.746
247.736
247.723
247.709
247.695
247.676
247.663
247.636
247.625
247.589
247.581
247.537
247.531
247.479
247.475
247.415
248.391
248.401
248.4
248.397
248.392
248.388
248.38
248.373
248.363
248.353
248.34
248.326
248.312
248.293
248.279
248.252
248.241
248.205
248.197
248.153
248.147
248.094
248.09
248.03
249.092
249.101
249.1
249.097
249.093
249.088
249.081
249.074
249.064
249.053
249.041
249.027
249.013
248.993
248.98
248.953
248.942
248.906
248.899
248.852
248.848
248.794
248.791
248.73
249.748
249.757
249.756
249.753
249.749
249.745
249.737
249.73
249.72
249.71
249.697
249.684
249.669
249.65
249.637
249.609
249.599
249.562
249.555
249.509
249.505
249.451
249.448
249.386
250.482
250.491
250.489
250.487
250.483
250.479
250.471
250.465
250.454
250.445
250.432
250.418
250.404
250.385
250.372
250.345
250.334
250.297
250.291
250.244
250.24
250.186
250.184
250.122
251.174
251.183
251.181
251.18
251.175
251.172
251.164
251.158
251.148
251.139
251.126
251.113
251.098
251.08
251.066
251.04
251.03
250.992
250.986
250.94
250.936
250.882
250.88
250.818
251.938
251.946
251.945
251.944
251.94
251.936
251.929
251.923
251.913
251.905
251.892
251.88
251.865
251.848
251.834
251.809
251.798
251.762
251.756
251.709
251.706
251.651
251.65
251.588
252.664
252.671
252.67
252.669
252.665
252.662
252.655
252.65
252.64
252.632
252.62
252.608
252.594
252.578
252.565
252.54
252.53
252.495
252.489
252.442
252.441
252.385
252.384
252.321
253.455
253.463
253.462
253.461
253.457
253.455
253.448
253.443
253.433
253.426
253.414
253.404
253.39
253.374
253.361
253.337
253.329
253.294
253.291
253.244
253.245
253.19
253.19
253.129
254.212
254.219
254.218
254.218
254.213
254.211
254.204
254.2
254.19
254.184
254.171
254.162
254.147
254.133
254.12
254.097
254.091
254.054
254.056
254.007
254.013
253.958
253.961
253.904
255.032
255.039
255.038
255.038
255.033
255.031
255.024
255.02
255.009
255.003
254.989
254.981
254.966
254.952
254.938
254.916
254.912
254.873
254.878
254.828
254.837
254.783
254.789
254.736
255.823
255.83
255.829
255.828
255.824
255.821
255.813
255.808
255.797
255.789
255.776
255.765
255.75
255.736
255.72
255.699
255.691
255.654
255.66
255.608
255.62
255.563
255.572
255.519
256.68
256.686
256.685
256.684
256.679
256.675
256.667
256.66
256.648
256.639
256.623
256.611
256.594
256.578
256.56
256.539
256.525
256.491
256.492
256.438
256.451
256.39
256.401
256.345
257.516
257.522
257.52
257.518
257.513
257.507
257.498
257.49
257.476
257.465
257.447
257.432
257.412
257.394
257.371
257.348
257.328
257.294
257.287
257.232
257.243
257.175
257.187
257.124
258.421
258.426
258.424
258.421
258.415
258.409
258.398
258.388
258.373
258.358
258.338
258.321
258.296
258.274
258.247
258.22
258.193
258.156
258.138
258.083
258.083
258.008
258.019
257.944
259.312
259.316
259.314
259.311
259.304
259.297
259.285
259.273
259.256
259.24
259.217
259.196
259.168
259.142
259.11
259.078
259.044
259.003
258.973
258.914
258.899
258.817
258.82
258.726
260.271
260.275
260.273
260.27
260.263
260.254
260.242
260.228
260.21
260.192
260.167
260.144
260.114
260.084
260.049
260.012
259.973
259.926
259.887
259.824
259.792
259.703
259.691
259.572
261.218
261.222
261.22
261.216
261.209
261.2
261.187
261.173
261.154
261.135
261.11
261.085
261.053
261.022
260.985
260.946
260.903
260.853
260.808
260.743
260.699
260.609
260.58
260.438
262.228
262.231
262.23
262.226
262.219
262.21
262.197
262.183
262.164
262.145
262.12
262.095
262.063
262.031
261.994
261.954
261.911
261.861
261.815
261.749
261.704
261.613
261.581
261.439
263.219
263.223
263.221
263.218
263.211
263.203
263.19
263.177
263.158
263.14
263.115
263.091
263.06
263.03
262.993
262.955
262.913
262.865
262.82
262.757
262.715
262.627
262.601
262.471
264.264
264.267
264.266
264.263
264.257
264.25
264.237
264.225
264.207
264.191
264.166
264.145
264.114
264.087
264.051
264.016
263.976
263.932
263.888
263.831
263.792
263.71
263.686
263.568
265.281
265.285
265.283
265.282
265.275
265.269
265.258
265.248
265.23
265.216
265.192
265.174
265.143
265.12
265.085
265.055
265.016
264.977
264.936
264.884
264.848
264.774
264.752
264.645
266.34
266.344
266.342
266.342
266.336
266.332
266.32
266.312
266.295
266.284
266.26
266.246
266.216
266.198
266.163
266.139
266.1
266.067
266.029
265.983
265.95
265.884
265.863
265.767
267.362
267.365
267.364
267.365
267.359
267.356
267.345
267.339
267.323
267.314
267.292
267.281
267.253
267.238
267.205
267.186
267.149
267.122
267.085
267.046
267.014
266.958
266.937
266.853
268.416
268.42
268.419
268.42
268.416
268.413
268.405
268.399
268.385
268.378
268.358
268.349
268.323
268.312
268.28
268.266
268.231
268.21
268.175
268.143
268.113
268.065
268.045
267.973
269.422
269.425
269.425
269.426
269.423
269.421
269.414
269.409
269.398
269.391
269.374
269.366
269.344
269.335
269.308
269.295
269.264
269.247
269.215
269.19
269.16
269.121
269.102
269.04
270.456
270.46
270.46
270.462
270.459
270.458
270.452
270.449
270.439
270.434
270.42
270.413
270.395
270.386
270.363
270.353
270.326
270.312
270.283
270.264
270.236
270.206
270.187
270.136
271.43
271.434
271.435
271.436
271.435
271.434
271.43
271.427
271.42
271.415
271.404
271.399
271.383
271.377
271.357
271.349
271.325
271.315
271.289
271.275
271.249
271.227
271.208
271.167
272.43
272.434
272.435
272.437
272.436
272.436
272.433
272.431
272.425
272.423
272.413
272.409
272.396
272.392
272.375
272.37
272.349
272.343
272.319
272.31
272.286
272.271
272.253
272.221
273.36
273.363
273.365
273.367
273.367
273.368
273.366
273.365
273.36
273.359
273.351
273.35
273.338
273.336
273.322
273.319
273.302
273.299
273.278
273.273
273.251
273.243
273.224
273.202
274.324
274.327
274.329
274.332
274.333
274.334
274.333
274.333
274.33
274.329
274.323
274.323
274.314
274.313
274.301
274.301
274.286
274.285
274.267
274.266
274.247
274.243
274.226
274.211
275.184
275.187
275.189
275.192
275.193
275.195
275.194
275.196
275.193
275.195
275.19
275.191
275.184
275.186
275.176
275.178
275.165
275.168
275.153
275.156
275.138
275.14
275.124
275.118
276.13
276.133
276.135
276.139
276.14
276.143
276.143
276.145
276.144
276.146
276.143
276.145
276.139
276.142
276.134
276.138
276.127
276.132
276.119
276.124
276.109
276.114
276.1
276.098
276.893
276.896
276.898
276.901
276.903
276.906
276.907
276.91
276.909
276.913
276.911
276.915
276.911
276.916
276.909
276.916
276.907
276.915
276.903
276.913
276.899
276.91
276.896
276.902
277.827
277.83
277.833
277.836
277.839
277.842
277.844
277.847
277.848
277.851
277.851
277.855
277.853
277.859
277.854
277.862
277.855
277.864
277.854
277.866
277.854
277.867
277.855
277.864
278.501
278.503
278.506
278.51
278.512
278.516
278.518
278.522
278.523
278.528
278.528
278.534
278.532
278.539
278.536
278.546
278.54
278.552
278.543
278.558
278.547
278.564
278.553
278.567
279.394
279.396
279.399
279.403
279.406
279.41
279.412
279.417
279.419
279.424
279.426
279.432
279.432
279.441
279.439
279.449
279.446
279.459
279.452
279.469
279.459
279.479
279.468
279.488
280.017
280.019
280.022
280.026
280.029
280.033
280.036
280.041
280.043
280.049
280.051
280.058
280.059
280.068
280.068
280.079
280.076
280.091
280.085
280.104
280.095
280.117
280.108
280.13
280.83
280.832
280.835
280.839
280.842
280.846
280.85
280.855
280.858
280.865
280.868
280.876
280.878
280.888
280.888
280.901
280.9
280.916
280.912
280.933
280.925
280.951
280.941
280.968
281.435
281.437
281.44
281.444
281.447
281.452
281.455
281.461
281.464
281.471
281.474
281.483
281.485
281.496
281.497
281.51
281.51
281.526
281.523
281.545
281.538
281.565
281.556
281.585
282.153
282.154
282.157
282.161
282.165
282.169
282.173
282.179
282.183
282.19
282.194
282.203
282.207
282.218
282.221
282.235
282.235
282.254
282.252
282.275
282.269
282.298
282.29
282.322
282.745
282.746
282.749
282.753
282.757
282.761
282.765
282.771
282.776
282.783
282.787
282.796
282.8
282.812
282.815
282.829
282.831
282.849
282.848
282.871
282.867
282.896
282.888
282.922
283.378
283.38
283.383
283.387
283.39
283.395
283.399
283.405
283.41
283.418
283.423
283.432
283.437
283.448
283.452
283.467
283.47
283.489
283.488
283.513
283.509
283.54
283.532
283.568
283.946
283.947
283.95
283.954
283.957
283.962
283.967
283.973
283.978
283.985
283.99
284
284.005
284.017
284.021
284.037
284.039
284.059
284.059
284.084
284.08
284.112
284.105
284.141
284.515
284.516
284.519
284.523
284.526
284.531
284.535
284.542
284.547
284.555
284.56
284.57
284.575
284.587
284.592
284.608
284.611
284.631
284.632
284.657
284.654
284.686
284.68
284.718
285.047
285.049
285.051
285.055
285.059
285.063
285.068
285.074
285.079
285.087
285.093
285.102
285.109
285.121
285.126
285.141
285.145
285.165
285.166
285.192
285.189
285.222
285.216
285.254
285.566
285.567
285.569
285.573
285.577
285.582
285.586
285.592
285.598
285.605
285.611
285.621
285.627
285.639
285.645
285.661
285.665
285.685
285.687
285.713
285.71
285.743
285.737
285.776
286.06
286.061
286.063
286.067
286.071
286.075
286.08
286.086
286.092
286.099
286.106
286.115
286.122
286.133
286.14
286.155
286.16
286.18
286.182
286.208
286.206
286.239
286.233
286.272
286.536
286.537
286.54
286.543
286.547
286.551
286.556
286.562
286.568
286.575
286.582
286.591
286.598
286.61
286.616
286.632
286.636
286.657
286.658
286.685
286.683
286.716
286.711
286.75
286.993
286.994
286.996
286.999
287.003
287.007
287.012
287.018
287.024
287.031
287.038
287.047
287.054
287.066
287.073
287.088
287.093
287.113
287.115
287.142
287.14
287.173
287.168
287.207
287.432
287.433
287.435
287.438
287.442
287.446
287.451
287.457
287.463
287.47
287.477
287.486
287.493
287.505
287.511
287.527
287.532
287.552
287.554
287.58
287.579
287.612
287.607
287.646
287.854
287.855
287.857
287.86
287.864
287.868
287.873
287.878
287.884
287.891
287.898
287.907
287.914
287.926
287.933
287.948
287.953
287.973
287.976
288.002
288
288.033
288.028
288.067
288.261
288.261
288.263
288.266
288.27
288.274
288.279
288.284
288.29
288.297
288.304
288.312
288.32
288.331
288.338
288.353
288.358
288.378
288.381
288.406
288.405
288.438
288.433
288.472
288.652
288.652
288.654
288.657
288.66
288.664
288.669
288.674
288.68
288.687
288.694
288.702
288.71
288.721
288.728
288.743
288.748
288.768
288.77
288.796
288.795
288.826
288.822
288.86
289.028
289.029
289.031
289.033
289.037
289.04
289.045
289.05
289.056
289.062
289.069
289.078
289.085
289.096
289.103
289.118
289.122
289.142
289.144
289.17
289.168
289.201
289.196
289.234
289.391
289.391
289.393
289.396
289.399
289.403
289.408
289.412
289.418
289.425
289.431
289.44
289.447
289.458
289.464
289.479
289.483
289.503
289.505
289.531
289.53
289.561
289.556
289.593
289.741
289.741
289.743
289.746
289.749
289.752
289.757
289.762
289.767
289.774
289.78
289.789
289.795
289.807
289.812
289.827
289.831
289.851
289.853
289.878
289.876
289.908
289.903
289.94
290.079
290.079
290.081
290.083
290.086
290.09
290.094
290.099
290.105
290.111
290.117
290.125
290.132
290.143
290.148
290.164
290.167
290.187
290.188
290.213
290.212
290.242
290.238
290.273
290.405
290.406
290.407
290.41
290.412
290.416
290.42
290.425
290.43
290.436
290.442
290.451
290.457
290.468
290.473
290.488
290.491
290.511
290.512
290.537
290.535
290.566
290.561
290.596
290.721
290.721
290.723
290.725
290.728
290.731
290.735
290.74
290.745
290.751
290.757
290.765
290.771
290.782
290.787
290.802
290.805
290.825
290.825
290.85
290.848
290.877
290.873
290.907
291.026
291.026
291.028
291.03
291.033
291.036
291.04
291.045
291.049
291.056
291.061
291.07
291.075
291.086
291.09
291.106
291.108
291.128
291.128
291.152
291.151
291.179
291.175
291.209
291.322
291.322
291.324
291.326
291.328
291.332
291.335
291.34
291.344
291.351
291.356
291.365
291.369
291.381
291.384
291.4
291.402
291.421
291.422
291.445
291.443
291.472
291.468
291.5
291.609
291.609
291.61
291.613
291.615
291.618
291.622
291.626
291.63
291.637
291.641
291.65
291.654
291.666
291.669
291.685
291.687
291.705
291.706
291.729
291.727
291.755
291.751
291.783
291.887
291.887
291.889
291.891
291.893
291.896
291.899
291.904
291.908
291.915
291.919
291.928
291.931
291.943
291.946
291.961
291.963
291.981
291.982
292.004
292.003
292.029
292.026
292.057
292.158
292.158
292.159
292.161
292.163
292.166
292.169
292.174
292.178
292.184
292.188
292.197
292.2
292.212
292.215
292.229
292.231
292.249
292.249
292.272
292.27
292.296
292.293
292.323
292.421
292.421
292.422
292.424
292.426
292.429
292.432
292.437
292.44
292.447
292.45
292.459
292.462
292.473
292.476
292.49
292.492
292.51
292.51
292.531
292.53
292.555
292.552
292.581
292.677
292.677
292.678
292.68
292.682
292.685
292.688
292.692
292.695
292.702
292.705
292.714
292.717
292.728
292.73
292.745
292.746
292.763
292.763
292.784
292.783
292.808
292.805
292.833
292.926
292.926
292.927
292.929
292.931
292.934
292.937
292.941
292.944
292.95
292.953
292.962
292.965
292.976
292.978
292.992
292.993
293.01
293.01
293.031
293.029
293.053
293.05
293.077
293.169
293.17
293.171
293.172
293.174
293.177
293.18
293.184
293.187
293.193
293.196
293.204
293.207
293.218
293.219
293.233
293.234
293.251
293.251
293.271
293.269
293.293
293.29
293.316
293.407
293.407
293.408
293.41
293.412
293.414
293.417
293.421
293.424
293.43
293.433
293.441
293.443
293.454
293.455
293.469
293.47
293.486
293.486
293.505
293.504
293.526
293.524
293.549
293.639
293.639
293.64
293.642
293.644
293.646
293.649
293.653
293.655
293.661
293.664
293.672
293.674
293.685
293.686
293.699
293.7
293.716
293.716
293.734
293.733
293.755
293.753
293.777
293.867
293.867
293.868
293.869
293.871
293.873
293.876
293.879
293.882
293.888
293.89
293.898
293.9
293.91
293.912
293.925
293.925
293.941
293.941
293.959
293.957
293.979
293.976
294
294.089
294.089
294.09
294.092
294.093
294.096
294.098
294.102
294.104
294.11
294.112
294.12
294.122
294.131
294.133
294.145
294.146
294.161
294.161
294.178
294.177
294.197
294.195
294.218
294.308
294.308
294.309
294.31
294.311
294.314
294.316
294.319
294.322
294.327
294.33
294.337
294.339
294.348
294.35
294.362
294.362
294.377
294.377
294.394
294.392
294.412
294.41
294.432
294.522
294.522
294.523
294.524
294.526
294.528
294.53
294.533
294.536
294.541
294.543
294.55
294.552
294.561
294.563
294.574
294.575
294.589
294.589
294.605
294.604
294.623
294.621
294.642
294.733
294.733
294.734
294.735
294.736
294.738
294.74
294.744
294.746
294.751
294.753
294.76
294.762
294.77
294.772
294.783
294.784
294.797
294.797
294.812
294.812
294.83
294.828
294.849
294.94
294.94
294.941
294.942
294.943
294.945
294.947
294.95
294.953
294.957
294.96
294.966
294.968
294.976
294.978
294.988
294.989
295.001
295.002
295.017
295.016
295.033
295.032
295.052
295.144
295.144
295.145
295.146
295.147
295.149
295.151
295.154
295.156
295.161
295.163
295.169
295.171
295.179
295.181
295.19
295.191
295.203
295.204
295.218
295.217
295.234
295.233
295.251
295.345
295.345
295.346
295.347
295.348
295.35
295.352
295.355
295.357
295.361
295.363
295.369
295.371
295.378
295.38
295.389
295.391
295.402
295.403
295.416
295.416
295.432
295.431
295.448
295.544
295.544
295.545
295.545
295.547
295.548
295.55
295.553
295.555
295.559
295.561
295.566
295.569
295.575
295.578
295.586
295.588
295.598
295.599
295.611
295.612
295.626
295.626
295.643
295.74
295.74
295.741
295.742
295.743
295.744
295.746
295.749
295.751
295.754
295.757
295.761
295.764
295.77
295.772
295.78
295.782
295.791
295.793
295.804
295.805
295.819
295.819
295.835
295.934
295.934
295.935
295.936
295.937
295.938
295.94
295.942
295.944
295.947
295.95
295.954
295.957
295.962
295.965
295.972
295.974
295.983
295.985
295.995
295.996
296.009
296.009
296.024
296.126
296.126
296.127
296.128
296.129
296.13
296.132
296.134
296.136
296.139
296.141
296.145
296.148
296.153
296.156
296.162
296.165
296.172
296.174
296.184
296.185
296.197
296.198
296.212
296.317
296.317
296.317
296.318
296.319
296.32
296.322
296.324
296.326
296.328
296.331
296.334
296.337
296.341
296.344
296.35
296.353
296.359
296.362
296.371
296.373
296.384
296.384
296.398
296.506
296.506
296.506
296.507
296.508