/*--------------------------------*- C++ -*----------------------------------*\
  =========                 |
  \\      /  F ield         | OpenFOAM: The Open Source CFD Toolbox
   \\    /   O peration     | Website:  https://openfoam.org
    \\  /    A nd           | Version:  10
     \\/     M anipulation  |
\*---------------------------------------------------------------------------*/
FoamFile
{
    format      ascii;
    class       volVectorField;
    location    "0.04";
    object      U;
}
// * * * * * * * * * * * * * * * * * * * * * * * * * * * * * * * * * * * * * //

dimensions      [0 1 -1 0 0 0 0];

internalField   nonuniform List<vector> 
4176
(
(298.832 0.0473337 -2.5124e-11)
(298.84 -0.0361156 -2.64483e-12)
(298.825 0.116701 1.38069e-11)
(298.808 -0.0296032 1.73118e-11)
(298.779 0.171507 7.86109e-13)
(298.75 -0.0205652 7.98989e-12)
(298.708 0.224608 -5.11353e-13)
(298.667 -0.0133038 -8.57595e-12)
(298.611 0.27529 -2.71872e-12)
(298.558 -0.00625837 -1.28931e-11)
(298.488 0.316693 -9.49934e-12)
(298.421 0.0124314 -9.55442e-12)
(298.34 0.330549 -2.27245e-12)
(298.255 0.0568616 -3.91633e-12)
(298.167 0.307914 -2.44995e-12)
(298.056 0.130609 4.81846e-12)
(297.971 0.245906 2.97331e-12)
(297.823 0.232736 -1.52056e-13)
(297.752 0.140462 9.34433e-13)
(297.559 0.377534 9.1381e-12)
(297.51 -0.0242424 4.602e-12)
(297.271 0.580082 1.45495e-12)
(297.255 -0.2322 -4.53041e-13)
(296.981 0.834073 1.63143e-12)
(293.378 0.0568288 -2.21612e-11)
(293.386 -0.0140082 -5.93061e-12)
(293.369 0.152261 1.5831e-11)
(293.35 0.0199899 1.80717e-11)
(293.32 0.234987 6.38372e-13)
(293.288 0.0568112 8.3869e-12)
(293.243 0.316429 -1.45227e-12)
(293.198 0.0919921 -8.75562e-12)
(293.138 0.396097 -1.91265e-12)
(293.08 0.126945 -1.29338e-11)
(293.005 0.46791 -9.9835e-12)
(292.932 0.172675 -9.86789e-12)
(292.844 0.513892 -3.34716e-12)
(292.754 0.243877 -4.03542e-12)
(292.656 0.525849 -2.1538e-12)
(292.542 0.341812 4.63366e-12)
(292.442 0.50117 2.25821e-12)
(292.294 0.469899 -1.94933e-13)
(292.203 0.428459 5.54599e-13)
(292.008 0.641263 8.64387e-12)
(291.939 0.288077 4.72688e-12)
(291.686 0.862267 1.86523e-14)
(291.657 0.0757431 -2.7017e-13)
(291.336 1.12104 1.09874e-12)
(292.606 0.0663841 -2.31792e-11)
(292.613 0.00846018 -7.9163e-12)
(292.596 0.188614 1.39157e-11)
(292.577 0.0707073 1.86844e-11)
(292.545 0.300105 -3.01761e-13)
(292.513 0.136159 8.11243e-12)
(292.467 0.410719 1.38621e-12)
(292.421 0.200125 -8.51192e-12)
(292.359 0.520086 -3.08648e-13)
(292.3 0.263808 -1.29917e-11)
(292.223 0.622935 -1.05743e-11)
(292.15 0.337883 -1.06074e-11)
(292.06 0.700427 -2.32175e-12)
(291.968 0.438796 -3.6144e-12)
(291.867 0.744706 -2.03489e-12)
(291.755 0.566424 6.15062e-12)
(291.645 0.755822 7.5943e-13)
(291.506 0.721681 -1.61949e-12)
(291.399 0.725202 8.48983e-13)
(291.215 0.918495 8.48831e-12)
(291.129 0.633638 4.3968e-12)
(290.874 1.16701 1.95729e-12)
(290.834 0.470284 -2.91052e-13)
(290.477 1.4696 1.42859e-12)
(291.57 0.0760408 -1.01055e-11)
(291.577 0.0313914 -1.08334e-11)
(291.56 0.225634 1.4311e-11)
(291.54 0.122449 1.98649e-11)
(291.508 0.366418 -1.45822e-12)
(291.475 0.217049 6.89278e-12)
(291.428 0.506694 1.67489e-12)
(291.382 0.310257 -9.8308e-12)
(291.319 0.646147 -5.05203e-12)
(291.26 0.403066 -1.16077e-11)
(291.181 0.780356 -1.00264e-11)
(291.107 0.505396 -1.17102e-11)
(291.016 0.889893 -1.38979e-12)
(290.922 0.63582 -4.42181e-12)
(290.823 0.966593 -5.47455e-12)
(290.705 0.793186 5.25957e-12)
(290.603 1.01321 1.77479e-12)
(290.453 0.974934 -1.85685e-12)
(290.356 1.02442 1.89434e-12)
(290.162 1.19664 8.2181e-12)
(290.086 0.981634 3.10763e-12)
(289.827 1.47631 1.67369e-12)
(289.791 0.874627 -1.50008e-12)
(289.442 1.82784 -4.25091e-12)
(290.799 0.0857713 -5.12318e-12)
(290.805 0.0547346 -1.25035e-11)
(290.788 0.263001 1.92514e-11)
(290.768 0.175009 2.02852e-11)
(290.736 0.433427 7.95087e-13)
(290.703 0.299113 9.36964e-12)
(290.655 0.603729 4.78169e-13)
(290.609 0.421838 -9.23941e-12)
(290.545 0.773641 -1.3912e-12)
(290.486 0.543961 -1.28541e-11)
(290.407 0.939395 -1.00167e-11)
(290.332 0.67373 -1.05896e-11)
(290.241 1.083 -3.36635e-12)
(290.145 0.831482 -4.90475e-12)
(290.049 1.19394 -4.17961e-12)
(289.925 1.01608 3.6909e-12)
(289.83 1.27585 1.05762e-12)
(289.671 1.22543 -1.23202e-12)
(289.585 1.32281 -8.90607e-13)
(289.381 1.47421 1.20848e-11)
(289.316 1.3167 7.16904e-12)
(289.055 1.78156 3.80716e-12)
(289.024 1.24543 3.7887e-13)
(288.692 2.16124 1.60403e-12)
(290.212 0.0955283 -1.4798e-11)
(290.219 0.0783282 -1.4428e-11)
(290.201 0.300552 2.20836e-11)
(290.182 0.22805 1.98159e-11)
(290.149 0.50082 -8.12037e-12)
(290.116 0.381856 7.90058e-12)
(290.068 0.701349 2.53231e-12)
(290.022 0.534254 -1.10617e-11)
(289.958 0.901914 -1.04492e-12)
(289.898 0.685814 -1.06687e-11)
(289.818 1.09919 -9.83667e-12)
(289.744 0.842925 -1.42376e-11)
(289.652 1.27769 -4.84284e-12)
(289.557 1.02683 -3.19364e-12)
(289.459 1.42335 -5.43946e-12)
(289.337 1.23856 5.51032e-12)
(289.241 1.53791 6.23996e-12)
(289.083 1.47677 7.50984e-13)
(288.997 1.62066 4.17498e-12)
(288.793 1.75069 1.35516e-11)
(288.728 1.64906 4.99534e-12)
(288.469 2.08375 -2.42253e-12)
(288.438 1.60655 -1.61829e-12)
(288.108 2.48745 1.52073e-12)
(289.796 0.105295 -7.03243e-12)
(289.802 0.102016 -1.68097e-11)
(289.785 0.33824 9.82669e-12)
(289.765 0.281288 2.01839e-11)
(289.732 0.568452 1.97724e-12)
(289.7 0.464894 8.35268e-12)
(289.651 0.799287 -4.74714e-12)
(289.605 0.647058 -9.22015e-12)
(289.541 1.03051 2.9581e-12)
(289.482 0.828174 -1.33598e-11)
(289.401 1.25912 -1.14932e-11)
(289.328 1.01337 -8.9814e-12)
(289.234 1.47152 3.99095e-12)
(289.142 1.22398 -1.86761e-12)
(289.041 1.6514 -2.77965e-12)
(288.922 1.46221 7.68554e-12)
(288.823 1.80142 1.34377e-12)
(288.668 1.72552 -2.74618e-12)
(288.58 1.91935 1.23644e-12)
(288.379 2.02707 1.21585e-11)
(288.312 1.9821 4.36242e-12)
(288.055 2.38724 -2.3623e-12)
(288.022 1.97437 -5.06865e-13)
(287.691 2.81894 4.14034e-12)
(289.53 0.115029 -1.55437e-11)
(289.537 0.125806 -1.63207e-11)
(289.519 0.37589 2.7233e-11)
(289.5 0.334676 2.15778e-11)
(289.467 0.636067 -7.27422e-12)
(289.434 0.548103 9.94268e-12)
(289.386 0.897231 6.10186e-12)
(289.34 0.760019 -1.02385e-11)
(289.275 1.15912 -8.1229e-12)
(289.217 0.970659 -1.45776e-11)
(289.136 1.41899 -5.39711e-12)
(289.063 1.18421 -1.27088e-11)
(288.969 1.6653 -1.0356e-11)
(288.877 1.42104 -6.42044e-12)
(288.776 1.87925 1.37346e-12)
(288.658 1.68558 2.8219e-12)
(288.558 2.06457 3.22218e-12)
(288.405 1.97412 7.70734e-12)
(288.316 2.21728 3.15104e-12)
(288.117 2.30296 3.38057e-12)
(288.049 2.31455 4.34736e-12)
(287.794 2.69001 7.42819e-12)
(287.761 2.3418 -2.0976e-12)
(287.432 3.14927 -9.46498e-12)
(289.391 0.124703 -1.88661e-11)
(289.397 0.149671 -2.32579e-11)
(289.38 0.413416 1.17341e-11)
(289.361 0.388149 1.68666e-11)
(289.328 0.703536 -7.67145e-12)
(289.296 0.631376 6.61345e-12)
(289.247 0.995014 -3.37085e-12)
(289.202 0.872984 -1.18372e-11)
(289.137 1.28753 -4.2241e-12)
(289.079 1.11305 -1.63482e-11)
(288.998 1.57855 -1.24352e-11)
(288.926 1.35514 -1.42634e-11)
(288.831 1.85874 -5.57215e-12)
(288.74 1.61765 -5.29431e-12)
(288.639 2.10674 -1.88441e-12)
(288.522 1.90833 4.71458e-12)
(288.421 2.32704 9.24841e-13)
(288.27 2.22265 9.90785e-13)
(288.18 2.51404 1.18816e-12)
(287.983 2.57804 7.66003e-12)
(287.914 2.64596 3.42908e-12)
(287.662 2.99147 1.03873e-12)
(287.627 2.70798 -1.26478e-12)
(287.301 3.47759 -3.10883e-13)
(289.374 0.134314 5.86797e-12)
(289.38 0.173621 -1.38316e-11)
(289.363 0.450814 2.67212e-11)
(289.344 0.441719 2.67286e-11)
(289.311 0.770844 4.29509e-12)
(289.279 0.714716 1.47458e-11)
(289.23 1.09261 7.35207e-12)
(289.186 0.985953 -3.7316e-12)
(289.12 1.41575 6.88148e-12)
(289.063 1.25536 -8.17703e-12)
(288.982 1.73785 -2.13146e-12)
(288.911 1.52603 -6.46418e-12)
(288.815 2.05165 4.79711e-12)
(288.727 1.81393 2.24816e-12)
(288.624 2.33398 6.00428e-12)
(288.509 2.13066 1.10603e-11)
(288.407 2.58875 8.09905e-12)
(288.258 2.47103 7.7537e-12)
(288.166 2.81002 8.40826e-12)
(287.973 2.85244 1.47671e-11)
(287.902 2.97663 1.02364e-11)
(287.653 3.29182 8.4199e-12)
(287.616 3.07321 4.01327e-12)
(287.294 3.8043 4.71241e-12)
(289.474 0.143844 -2.76918e-12)
(289.481 0.197621 -1.98413e-11)
(289.463 0.487993 2.12651e-11)
(289.445 0.495283 2.35478e-11)
(289.411 0.837834 -1.62316e-13)
(289.38 0.79796 1.11245e-11)
(289.331 1.18981 4.22187e-12)
(289.288 1.09871 -4.66489e-12)
(289.222 1.54349 5.81606e-12)
(289.166 1.39732 -9.29498e-12)
(289.084 1.89657 -2.18907e-12)
(289.014 1.69647 -5.86217e-12)
(288.918 2.24324 6.25697e-12)
(288.832 2.00952 3.697e-12)
(288.728 2.5604 9.01613e-12)
(288.615 2.35221 1.46346e-11)
(288.512 2.84905 1.2017e-11)
(288.366 2.71851 1.16787e-11)
(288.272 3.10451 1.38364e-11)
(288.083 3.12538 2.13785e-11)
(288.009 3.30562 3.97401e-12)
(287.765 3.59011 -1.14785e-11)
(287.727 3.43653 -1.27081e-11)
(287.408 4.12838 -1.36509e-11)
(289.675 0.153271 9.36e-14)
(289.682 0.22164 -2.04777e-11)
(289.665 0.524876 2.02974e-11)
(289.647 0.548765 2.11224e-11)
(289.613 0.904379 -3.58646e-12)
(289.583 0.880983 8.73981e-12)
(289.533 1.28643 -6.09358e-13)
(289.491 1.21109 -9.76539e-12)
(289.425 1.67053 -1.77717e-14)
(289.37 1.53875 -1.4381e-11)
(289.288 2.0545 -8.38736e-12)
(289.219 1.86633 -1.13862e-11)
(289.123 2.4333 4.54941e-14)
(289.039 2.2043 -1.18304e-12)
(288.933 2.78573 1.45823e-12)
(288.824 2.57279 6.6509e-12)
(288.719 3.10786 2.83032e-12)
(288.576 2.96484 3.79383e-12)
(288.481 3.39749 3.73537e-12)
(288.295 3.39681 1.04529e-11)
(288.22 3.63303 6.84753e-12)
(287.979 3.88646 5.95362e-12)
(287.939 3.79821 1.92559e-12)
(287.625 4.45006 1.50467e-12)
(289.962 0.162567 2.35596e-12)
(289.969 0.24565 -2.20816e-11)
(289.951 0.561412 1.73063e-11)
(289.934 0.602112 1.83631e-11)
(289.9 0.970388 -8.99102e-12)
(289.871 0.963695 3.30911e-12)
(289.821 1.38233 -9.36109e-12)
(289.78 1.32294 -1.82434e-11)
(289.713 1.7967 -1.02246e-11)
(289.66 1.67944 -2.4452e-11)
(289.577 2.21139 -2.37851e-11)
(289.51 2.03536 -2.61216e-11)
(289.413 2.62184 -1.85083e-11)
(289.331 2.3984 -3.83839e-12)
(289.224 3.00964 1.51065e-11)
(289.118 2.79213 1.67391e-11)
(289.012 3.36495 1.27398e-11)
(288.873 3.20971 1.13691e-11)
(288.775 3.68863 1.02895e-11)
(288.594 3.66641 1.67937e-11)
(288.516 3.95853 1.14933e-11)
(288.28 4.18054 9.17878e-12)
(288.238 4.15791 4.81021e-12)
(287.928 4.76902 3.12059e-12)
(290.327 0.171729 1.37885e-11)
(290.334 0.269639 -1.35278e-11)
(290.317 0.597557 1.7259e-11)
(290.299 0.655284 9.28e-12)
(290.266 1.03579 -1.10091e-11)
(290.237 1.04604 8.09865e-12)
(290.187 1.47743 3.19813e-12)
(290.147 1.43418 6.60217e-13)
(290.08 1.92184 1.16565e-12)
(290.028 1.81923 -2.44247e-11)
(289.945 2.36703 -1.66012e-11)
(289.88 2.2032 -1.43003e-11)
(289.782 2.80886 5.35448e-12)
(289.703 2.59201 7.39208e-12)
(289.594 3.23176 -2.77792e-12)
(289.491 3.00987 -7.17052e-12)
(289.384 3.62016 -6.915e-12)
(289.248 3.45285 3.71262e-13)
(289.149 3.97759 6.95307e-12)
(288.972 3.93389 2.0364e-11)
(288.892 4.28181 4.73456e-12)
(288.661 4.47207 -7.8669e-12)
(288.616 4.51534 -4.87527e-12)
(288.312 5.08497 1.19433e-12)
(290.764 0.180752 7.12713e-12)
(290.772 0.293596 -3.06053e-11)
(290.754 0.633277 2.39566e-11)
(290.737 0.708251 3.56718e-11)
(290.704 1.10053 4.7303e-12)
(290.676 1.12797 1.00074e-11)
(290.626 1.57164 -8.94766e-12)
(290.586 1.54478 -2.27434e-11)
(290.519 2.04588 -3.92792e-13)
(290.469 1.9581 -2.72744e-12)
(290.385 2.52132 -4.93119e-12)
(290.322 2.3698 -1.81879e-11)
(290.224 2.99409 -1.42519e-11)
(290.147 2.78491 -4.21885e-12)
(290.037 3.45191 1.11999e-11)
(289.938 3.2258 9.62806e-12)
(289.828 3.87336 -1.21196e-12)
(289.697 3.69417 -6.17208e-12)
(289.595 4.26418 -1.55239e-11)
(289.424 4.19907 3.07494e-12)
(289.341 4.60266 1.21112e-11)
(289.115 4.76082 6.67928e-12)
(289.068 4.8703 -4.87448e-12)
(288.769 5.39763 -1.40063e-11)
(291.262 0.189609 2.17178e-11)
(291.27 0.317487 -1.03113e-11)
(291.252 0.66853 2.0104e-11)
(291.236 0.760958 6.94702e-12)
(291.202 1.16454 -1.2198e-11)
(291.175 1.20943 1.03036e-11)
(291.125 1.66487 8.03217e-12)
(291.087 1.65467 4.4459e-12)
(291.019 2.16873 1.92611e-12)
(290.97 2.09598 -2.43851e-11)
(290.887 2.67419 -1.3527e-11)
(290.826 2.53509 -1.13413e-11)
(290.727 3.17752 1.10037e-11)
(290.652 2.97658 -5.47717e-12)
(290.541 3.66952 -2.00856e-11)
(290.446 3.43985 -5.12489e-12)
(290.334 4.12431 -1.25447e-12)
(290.208 3.93344 8.92554e-12)
(290.103 4.54822 1.49429e-11)
(289.937 4.46175 7.128e-12)
(289.851 4.92086 -9.51357e-12)
(289.632 5.04658 -1.09707e-12)
(289.582 5.22252 2.65665e-12)
(289.288 5.70673 7.93819e-12)
(291.814 0.198309 1.33029e-11)
(291.821 0.341282 -2.67176e-11)
(291.804 0.703297 9.06351e-12)
(291.788 0.813343 4.58164e-12)
(291.755 1.22776 -5.98401e-12)
(291.728 1.29031 2.42042e-11)
(291.678 1.75704 1.01827e-11)
(291.641 1.76371 -5.27981e-12)
(291.574 2.29024 1.07543e-13)
(291.526 2.23275 -1.84451e-11)
(291.442 2.82547 -2.0265e-11)
(291.383 2.69901 -2.92341e-11)
(291.284 3.35916 -2.12253e-13)
(291.211 3.16657 1.21453e-11)
(291.1 3.88395 8.91166e-12)
(291.009 3.65195 8.2328e-12)
(290.895 4.37278 9.08997e-13)
(290.773 4.17031 -7.11277e-13)
(290.666 4.82947 -8.57688e-12)
(290.505 4.72162 -6.66733e-12)
(290.417 5.23602 -1.58726e-11)
(290.203 5.329 9.11829e-13)
(290.151 5.5716 1.2911e-11)
(289.863 6.01187 5.72049e-12)
(292.411 0.206847 2.13546e-11)
(292.419 0.364944 -1.44174e-11)
(292.401 0.737543 3.12934e-11)
(292.386 0.865334 3.02693e-11)
(292.352 1.29012 8.44314e-12)
(292.327 1.37052 2.26037e-11)
(292.277 1.84803 1.46122e-11)
(292.241 1.8718 7.05325e-12)
(292.174 2.41027 2.40473e-11)
(292.127 2.36827 -1.23171e-11)
(292.043 2.97499 -2.99808e-11)
(291.986 2.8614 -3.19624e-11)
(291.887 3.53876 -1.91056e-11)
(291.817 3.35494 -1.64123e-11)
(291.705 4.09511 -1.4507e-11)
(291.617 3.86184 -6.58924e-12)
(291.501 4.61869 -8.43244e-12)
(291.384 4.40458 -2.60473e-12)
(291.275 5.10761 -1.59139e-12)
(291.12 4.97847 1.06451e-11)
(291.029 5.54785 8.90219e-12)
(290.821 5.60781 9.58886e-12)
(290.766 5.91726 6.39934e-12)
(290.485 6.31278 7.85107e-12)
(293.047 0.21522 1.84735e-11)
(293.054 0.38843 -1.97862e-11)
(293.037 0.771241 1.81401e-11)
(293.022 0.916851 1.67744e-11)
(292.989 1.35156 -1.17125e-11)
(292.964 1.44994 1.34933e-12)
(292.914 1.93772 -1.33541e-11)
(292.88 1.97877 -1.94503e-11)
(292.812 2.52865 -1.05834e-11)
(292.768 2.50234 -2.54975e-11)
(292.684 3.1225 -2.27742e-11)
(292.629 3.02201 -3.02534e-11)
(292.529 3.716 -2.16004e-11)
(292.461 3.54133 -2.05429e-11)
(292.349 4.30316 -2.44112e-11)
(292.265 4.06985 -2.01656e-11)
(292.147 4.86168 -1.04218e-12)
(292.035 4.63572 2.20272e-11)
(291.924 5.38218 2.0445e-11)
(291.774 5.23201 2.68375e-11)
(291.681 5.856 2.08928e-11)
(291.48 5.88267 1.64658e-11)
(291.422 6.25911 1.11101e-11)
(291.147 6.60907 1.00879e-11)
(293.715 0.223429 1.15961e-11)
(293.723 0.411691 -1.32829e-11)
(293.706 0.804367 3.69013e-11)
(293.691 0.96781 1.86063e-11)
(293.658 1.41202 4.2807e-12)
(293.634 1.52847 2.74265e-11)
(293.585 2.02603 -6.84741e-13)
(293.551 2.08449 -2.20097e-11)
(293.484 2.64522 -3.04118e-13)
(293.441 2.63477 -4.62872e-12)
(293.357 3.2678 -1.5147e-11)
(293.304 3.18057 -1.42714e-11)
(293.204 3.89059 7.32667e-12)
(293.139 3.72525 -8.72386e-12)
(293.026 4.50809 1.86157e-12)
(292.946 4.27637 1.43015e-11)
(292.826 5.1014 -3.60571e-12)
(292.72 4.86326 -1.52762e-11)
(292.607 5.6528 -7.67729e-12)
(292.463 5.48196 1.07232e-11)
(292.367 6.16016 -9.30798e-12)
(292.172 6.15326 -4.69278e-13)
(292.111 6.59681 3.92171e-12)
(291.844 6.90039 -1.23308e-11)
(294.409 0.231471 2.76352e-11)
(294.417 0.43468 -6.28587e-12)
(294.4 0.836889 3.64871e-11)
(294.386 1.01812 3.5789e-11)
(294.354 1.47142 1.58067e-11)
(294.33 1.60596 8.3225e-12)
(294.281 2.11282 -2.89949e-11)
(294.248 2.18879 -2.72053e-11)
(294.182 2.75984 -1.14429e-11)
(294.14 2.7654 -2.16244e-11)
(294.057 3.4107 -1.53896e-11)
(294.005 3.33692 -1.71658e-11)
(293.906 4.06229 1.95752e-12)
(293.844 3.90654 6.23439e-12)
(293.731 4.70941 1.29167e-11)
(293.654 4.48092 1.63213e-11)
(293.532 5.33726 1.82795e-11)
(293.432 5.08716 -4.25344e-13)
(293.316 5.91947 -2.38794e-11)
(293.179 5.72787 -8.86144e-12)
(293.08 6.45999 -9.34001e-12)
(292.892 6.41926 -8.233e-12)
(292.828 6.92999 -1.15798e-11)
(292.569 7.18637 -7.26644e-12)
(295.122 0.239342 1.47404e-11)
(295.13 0.457345 -2.71057e-11)
(295.114 0.868764 2.09854e-11)
(295.1 1.06768 3.54766e-11)
(295.068 1.52967 1.36758e-12)
(295.045 1.68229 8.85038e-12)
(294.997 2.19797 -1.51955e-11)
(294.965 2.29151 -4.19198e-12)
(294.899 2.87232 2.62402e-11)
(294.859 2.89403 -8.28765e-13)
(294.776 3.55099 -6.9996e-12)
(294.727 3.49086 -2.52214e-11)
(294.628 4.23093 -2.38933e-11)
(294.568 4.08502 -6.31484e-12)
(294.455 4.9071 1.0153e-11)
(294.382 4.68258 3.14729e-12)
(294.259 5.56828 -7.4078e-12)
(294.164 5.30732 -1.33047e-11)
(294.046 6.18209 1.64099e-12)
(293.915 5.96969 2.52894e-11)
(293.813 6.75514 1.02093e-11)
(293.634 6.6804 -3.06468e-12)
(293.567 7.25829 -1.97614e-11)
(293.315 7.46663 -4.66951e-12)
(295.849 0.247033 1.10574e-11)
(295.857 0.479638 -2.47843e-11)
(295.841 0.899947 2.00806e-11)
(295.828 1.11641 3.7902e-11)
(295.796 1.58669 7.81951e-12)
(295.774 1.7573 1.28449e-11)
(295.726 2.28132 -1.57593e-11)
(295.696 2.39246 -3.15913e-11)
(295.63 2.98246 -3.71882e-12)
(295.592 3.02042 2.08193e-12)
(295.509 3.68842 -1.18592e-12)
(295.462 3.64214 -2.01718e-11)
(295.363 4.39622 -1.78825e-11)
(295.306 4.26044 -7.99903e-13)
(295.193 5.101 1.62996e-11)
(295.124 4.88085 5.52466e-12)
(295.001 5.79356 -4.47483e-12)
(294.912 5.52335 -7.82073e-12)
(294.791 6.44053 7.62484e-12)
(294.667 6.20722 3.12384e-11)
(294.563 7.04518 1.61529e-11)
(294.391 6.93634 2.35199e-12)
(294.32 7.58138 -1.11984e-11)
(294.077 7.74083 -2.15949e-11)
(296.584 0.254535 5.02567e-12)
(296.591 0.50152 -3.66548e-12)
(296.576 0.930391 3.58632e-11)
(296.563 1.1642 1.43452e-11)
(296.532 1.64237 -2.67394e-11)
(296.51 1.83088 4.95256e-12)
(296.463 2.36273 -6.67254e-13)
(296.434 2.49145 -2.34431e-11)
(296.369 3.09006 -9.34547e-13)
(296.332 3.14434 -3.41395e-12)
(296.25 3.82272 -1.6809e-11)
(296.205 3.79041 -1.19788e-11)
(296.107 4.55782 1.6542e-11)
(296.053 4.43241 -3.44655e-12)
(295.941 5.29064 -2.41326e-11)
(295.875 5.07551 -8.91626e-12)
(295.751 6.0129 4.84524e-12)
(295.669 5.73513 -4.90781e-12)
(295.545 6.69393 4.59341e-12)
(295.429 6.4397 2.3162e-11)
(295.321 7.3298 9.52826e-13)
(295.157 7.18662 1.09264e-11)
(295.084 7.89886 1.89191e-11)
(294.849 8.00855 -1.18903e-12)
(297.32 0.261839 2.55312e-11)
(297.328 0.522952 9.44927e-12)
(297.312 0.960046 4.47493e-11)
(297.299 1.211 1.95728e-11)
(297.269 1.69661 -2.36207e-11)
(297.248 1.90291 5.47611e-12)
(297.202 2.44205 -4.40204e-12)
(297.174 2.58833 -2.45697e-14)
(297.11 3.19491 2.17851e-11)
(297.075 3.26557 -1.47944e-11)
(296.994 3.95361 -3.33215e-11)
(296.951 3.93538 -2.98677e-11)
(296.854 4.71536 -6.0868e-12)
(296.803 4.60045 2.48934e-12)
(296.69 5.47558 1.16507e-11)
(296.629 5.26578 1.99765e-11)
(296.505 6.22656 -1.6503e-12)
(296.428 5.94292 -1.65176e-11)
(296.302 6.94136 -1.15767e-11)
(296.194 6.66633 5.8626e-12)
(296.083 7.60814 1.05649e-11)
(295.929 7.43058 1.69131e-11)
(295.852 8.20996 2.22776e-11)
(295.626 8.26922 -1.28866e-12)
(298.052 0.268936 2.78598e-11)
(298.06 0.543899 -4.07006e-12)
(298.045 0.988859 5.45732e-12)
(298.033 1.25672 2.55309e-11)
(298.003 1.74933 -7.19245e-12)
(297.983 1.97326 3.12919e-12)
(297.937 2.51913 5.16478e-12)
(297.91 2.68295 -1.2591e-11)
(297.847 3.2968 -1.52728e-11)
(297.814 3.38393 -5.29028e-12)
(297.734 4.08085 -1.00049e-11)
(297.694 4.07684 -3.01604e-11)
(297.597 4.86855 7.44284e-12)
(297.549 4.76427 -3.43721e-12)
(297.437 5.65543 -1.88033e-11)
(297.38 5.45105 1.47603e-12)
(297.256 6.4343 -8.28174e-12)
(297.184 6.14665 -1.04829e-11)
(297.057 7.18238 5.27114e-12)
(296.956 6.88628 3.1095e-12)
(296.844 7.87919 -1.26873e-11)
(296.698 7.66748 4.57337e-12)
(296.618 8.51351 -1.34157e-11)
(296.403 8.52192 -2.33863e-11)
(298.775 0.275817 -1.55877e-11)
(298.783 0.564313 -1.5411e-11)
(298.768 1.01678 4.29611e-12)
(298.756 1.30126 9.82036e-12)
(298.727 1.80041 -7.05988e-12)
(298.708 2.04179 1.65805e-11)
(298.663 2.59381 -2.27552e-12)
(298.638 2.77511 -3.09248e-12)
(298.576 3.39553 1.24017e-11)
(298.544 3.4992 1.42193e-12)
(298.465 4.20418 1.08209e-11)
(298.427 4.21457 -2.70732e-11)
(298.332 5.01711 -9.88371e-12)
(298.287 4.92366 -6.86253e-12)
(298.176 5.82993 -4.90582e-12)
(298.123 5.63111 -2.00999e-12)
(298 6.63566 2.0831e-12)
(297.933 6.34555 1.16508e-11)
(297.804 7.41669 1.23547e-11)
(297.712 7.09912 2.24188e-11)
(297.597 8.14219 -1.28468e-11)
(297.461 7.89687 -1.14168e-11)
(297.378 8.80846 -1.32721e-11)
(297.174 8.7657 -1.37123e-11)
(299.484 0.282484 1.14985e-11)
(299.492 0.584115 1.3048e-11)
(299.478 1.04378 4.00102e-11)
(299.466 1.34447 1.6477e-11)
(299.438 1.84978 -2.85883e-11)
(299.419 2.10828 1.13694e-12)
(299.376 2.66598 -1.32605e-11)
(299.351 2.86455 -6.80591e-12)
(299.291 3.49094 1.20565e-11)
(299.261 3.61109 8.4475e-12)
(299.183 4.3234 -1.07878e-11)
(299.148 4.34825 -4.06799e-11)
(299.053 5.16079 -1.70057e-11)
(299.012 5.07837 -1.02176e-11)
(298.902 5.9988 -1.42645e-12)
(298.852 5.80587 7.38296e-12)
(298.73 6.83062 2.00303e-11)
(298.668 6.53868 3.46063e-11)
(298.539 7.6427 5.40594e-12)
(298.455 7.3051 -9.91487e-12)
(298.338 8.39733 -5.64751e-12)
(298.211 8.11856 1.77625e-12)
(298.125 9.09521 7.98856e-12)
(297.931 9.00074 1.6425e-11)
(300.173 0.288919 1.89994e-11)
(300.181 0.603252 -1.7812e-12)
(300.168 1.06979 -1.03497e-11)
(300.156 1.38623 1.26311e-11)
(300.129 1.89733 1.55504e-11)
(300.111 2.17255 2.27782e-11)
(300.069 2.73545 -2.11773e-11)
(300.045 2.951 -6.98752e-12)
(299.986 3.58278 -1.02064e-11)
(299.958 3.71927 -3.58798e-11)
(299.882 4.43819 -1.09133e-11)
(299.849 4.47752 3.40547e-15)
(299.756 5.29923 -2.09914e-12)
(299.718 5.22799 -1.71243e-11)
(299.609 6.16166 2.19496e-12)
(299.564 5.97497 2.06917e-11)
(299.442 7.01884 5.20159e-12)
(299.386 6.72571 -5.6574e-12)
(299.257 7.85941 1.31248e-11)
(299.181 7.50394 7.18051e-12)
(299.062 8.64471 -1.67859e-11)
(298.945 8.33222 -1.63073e-12)
(298.855 9.37355 1.54673e-11)
(298.673 9.2268 -7.24736e-13)
(300.838 0.295098 -2.29571e-11)
(300.846 0.621677 -1.5154e-11)
(300.833 1.09471 -4.02915e-12)
(300.822 1.42643 5.55969e-12)
(300.796 1.94288 -1.47621e-11)
(300.779 2.23443 9.88837e-12)
(300.738 2.802 -1.43167e-11)
(300.716 3.03426 -1.4243e-11)
(300.658 3.67075 -2.68612e-12)
(300.632 3.82345 -1.46776e-11)
(300.557 4.54818 -7.41837e-12)
(300.527 4.602 -1.06045e-11)
(300.436 5.43197 5.70254e-12)
(300.401 5.37203 3.72966e-12)
(300.294 6.31797 5.99256e-12)
(300.253 6.13777 6.64041e-12)
(300.132 7.19971 9.07206e-12)
(300.082 6.9062 1.53662e-11)
(299.953 8.06673 1.72362e-11)
(299.886 7.69522 2.84957e-11)
(299.763 8.88381 2.51778e-11)
(299.656 8.53757 -1.55745e-11)
(299.564 9.64265 -2.21391e-11)
(299.393 9.44321 -1.84626e-11)
(301.474 0.300995 2.77094e-11)
(301.482 0.639341 1.95715e-11)
(301.47 1.11846 2.14887e-11)
(301.459 1.46497 2.79382e-11)
(301.434 1.98629 4.42648e-12)
(301.418 2.29375 2.57248e-11)
(301.378 2.8654 -3.00823e-12)
(301.357 3.1141 -7.02986e-12)
(301.301 3.75456 1.34261e-12)
(301.277 3.92335 -1.4676e-11)
(301.204 4.653 -1.14863e-11)
(301.177 4.72133 -2.18401e-11)
(301.087 5.55855 -9.81217e-12)
(301.056 5.50998 -1.09148e-11)
(300.95 6.46717 -1.767e-11)
(300.915 6.29356 -2.23206e-11)
(300.795 7.37252 -2.27897e-11)
(300.751 7.0789 2.26505e-11)
(300.623 8.2649 1.76424e-11)
(300.563 7.87939 2.18873e-11)
(300.438 9.11358 1.76052e-11)
(300.342 8.73392 9.55939e-12)
(300.247 9.90148 1.32129e-12)
(300.088 9.64919 -1.87849e-13)
(302.077 0.306589 1.4772e-11)
(302.084 0.656188 4.85066e-12)
(302.072 1.14092 -4.70148e-12)
(302.063 1.5017 2.75268e-11)
(302.038 2.02738 -3.46971e-12)
(302.023 2.35032 1.14759e-11)
(301.985 2.92541 4.67999e-12)
(301.965 3.19026 -1.08499e-11)
(301.911 3.8339 -1.07844e-11)
(301.889 4.0187 5.24551e-13)
(301.818 4.75226 -7.5956e-12)
(301.794 4.8352 -2.59412e-11)
(301.706 5.67854 1.44626e-11)
(301.679 5.64151 1.15467e-13)
(301.574 6.60877 -1.38487e-11)
(301.544 6.44184 6.91993e-12)
(301.426 7.5367 -2.82868e-12)
(301.388 7.24303 -6.66304e-12)
(301.26 8.45318 1.79766e-11)
(301.209 8.05636 1.4868e-11)
(301.082 9.33305 -6.58155e-12)
(300.998 8.92002 1.71809e-11)
(300.9 10.1493 1.63727e-12)
(300.754 9.84394 -1.48669e-11)
(302.641 0.311851 -2.38591e-11)
(302.648 0.672158 3.84684e-12)
(302.637 1.162 1.83954e-11)
(302.628 1.5365 5.05196e-12)
(302.604 2.06597 2.99672e-13)
(302.59 2.40394 4.02925e-11)
(302.553 2.98178 -2.02107e-11)
(302.536 3.2625 -6.93132e-12)
(302.483 3.90845 1.79908e-11)
(302.463 4.10919 -2.25772e-11)
(302.394 4.84561 -3.69909e-12)
(302.373 4.94333 4.44811e-12)
(302.287 5.79151 -5.97056e-12)
(302.265 5.76632 3.7727e-12)
(302.162 6.74235 1.93195e-11)
(302.137 6.58228 -1.21883e-11)
(302.019 7.69188 1.15593e-12)
(301.989 7.39815 2.35846e-11)
(301.862 8.63098 -2.57208e-12)
(301.819 8.22469 1.89314e-11)
(301.692 9.54102 2.66897e-11)
(301.619 9.09517 -1.53813e-12)
(301.518 10.3852 6.03387e-12)
(301.385 10.0268 1.58567e-11)
(303.162 0.316749 -3.83724e-13)
(303.17 0.687194 2.44374e-11)
(303.159 1.1816 3.80127e-11)
(303.151 1.56922 2.58223e-11)
(303.128 2.10189 -2.47864e-11)
(303.115 2.4544 1.72573e-11)
(303.08 3.03429 4.7254e-13)
(303.064 3.33056 9.17864e-12)
(303.014 3.97794 3.5006e-11)
(302.996 4.19454 -2.66262e-12)
(302.929 4.93269 -2.94041e-11)
(302.912 5.0454 -2.27991e-11)
(302.827 5.89705 1.10998e-11)
(302.81 5.88413 1.93186e-11)
(302.708 6.86744 3.19714e-11)
(302.689 6.71465 -8.29159e-13)
(302.572 7.83771 -2.90014e-11)
(302.549 7.54397 -3.3558e-12)
(302.423 8.79868 6.23134e-12)
(302.388 8.38248 2.70496e-11)
(302.261 9.73551 3.96484e-11)
(302.2 9.25923 6.20623e-12)
(302.097 10.6084 -2.76983e-11)
(301.978 10.1973 -1.50899e-11)
(303.638 0.321237 -4.19244e-11)
(303.646 0.701238 -1.76708e-11)
(303.636 1.19965 -1.92436e-11)
(303.628 1.59977 -1.90451e-12)
(303.607 2.13502 -2.53952e-11)
(303.595 2.50157 6.03343e-12)
(303.561 3.08275 -2.97044e-11)
(303.547 3.39428 -3.1304e-11)
(303.498 4.04213 -2.05778e-11)
(303.483 4.27453 -3.11455e-11)
(303.418 5.01318 -2.96556e-11)
(303.404 5.1411 -3.49779e-11)
(303.322 5.99472 -1.88732e-11)
(303.309 5.99459 -2.10023e-11)
(303.209 6.98354 -2.44161e-11)
(303.197 6.8386 -2.48691e-11)
(303.08 7.97366 -2.49534e-11)
(303.066 7.68014 -1.52836e-11)
(302.939 8.95567 -1.95826e-11)
(302.914 8.52963 -8.09792e-12)
(302.786 9.91623 -1.68005e-11)
(302.738 9.411 -1.73996e-11)
(302.633 10.8182 -2.33406e-11)
(302.528 10.3549 -2.28876e-11)
(304.065 0.325299 5.06944e-12)
(304.072 0.714254 4.62553e-12)
(304.062 1.21611 -1.29238e-11)
(304.055 1.6281 3.61634e-11)
(304.035 2.16527 2.33048e-13)
(304.025 2.54537 1.95445e-11)
(303.992 3.12706 1.3724e-11)
(303.98 3.45352 -1.90892e-12)
(303.934 4.10082 -3.05359e-12)
(303.921 4.34895 1.46571e-11)
(303.858 5.08678 5.34832e-12)
(303.848 5.23015 -1.85126e-11)
(303.767 6.08411 2.96614e-11)
(303.76 6.09736 1.12895e-11)
(303.661 7.09009 -2.42435e-12)
(303.656 6.95379 -1.68615e-11)
(303.54 8.09911 -2.97066e-11)
(303.534 7.80613 8.92256e-12)
(303.407 9.10145 -5.94909e-12)
(303.392 8.66561 -7.91779e-12)
(303.265 10.0837 1.44066e-11)
(303.227 9.55037 -1.25046e-12)
(303.12 11.014 -2.33044e-11)
(303.03 10.4992 5.84045e-12)
(304.438 0.32894 1.16949e-11)
(304.446 0.726229 8.47967e-12)
(304.436 1.23096 -1.10323e-11)
(304.43 1.65417 4.1437e-11)
(304.411 2.19261 4.16535e-12)
(304.402 2.58576 2.45563e-11)
(304.371 3.16711 1.81691e-11)
(304.361 3.50823 2.66006e-12)
(304.316 4.15383 1.25877e-12)
(304.307 4.41765 -2.31794e-11)
(304.246 5.15322 -3.50063e-11)
(304.24 5.31227 -1.00355e-11)
(304.16 6.16485 -5.93771e-12)
(304.159 6.19223 -2.21906e-11)
(304.061 7.18661 6.4693e-12)
(304.063 7.05995 -8.82614e-12)
(303.948 8.21337 -2.11813e-11)
(303.951 7.92149 1.73301e-11)
(303.824 9.2355 3.58258e-12)
(303.819 8.78886 4.37225e-13)
(303.692 10.2385 2.34807e-11)
(303.666 9.67869 6.97184e-12)
(303.556 11.1949 -9.7513e-12)
(303.481 10.6294 1.8788e-11)
(304.756 0.332163 8.50823e-13)
(304.763 0.737148 3.47122e-11)
(304.754 1.24422 5.32594e-12)
(304.748 1.67801 7.40273e-12)
(304.731 2.21702 3.38834e-12)
(304.722 2.62275 6.03698e-11)
(304.693 3.20283 1.53162e-13)
(304.685 3.55831 -2.70372e-11)
(304.642 4.201 5.93903e-12)
(304.636 4.48043 1.56865e-11)
(304.577 5.21227 -3.23352e-12)
(304.575 5.38731 -3.15537e-11)
(304.498 6.23673 7.8249e-12)
(304.502 6.27898 2.42912e-11)
(304.405 7.27274 -2.53985e-12)
(304.415 7.15689 -2.58346e-11)
(304.3 8.31594 -3.06798e-12)
(304.313 8.02603 2.59577e-11)
(304.185 9.35705 4.17195e-12)
(304.192 8.89943 -7.66863e-12)
(304.064 10.3799 5.09885e-12)
(304.05 9.795 1.96988e-11)
(303.939 11.3611 -4.9982e-12)
(303.879 10.7448 -2.68231e-11)
(305.014 0.334984 -1.55897e-11)
(305.021 0.747009 -7.1316e-12)
(305.013 1.25587 -1.89935e-11)
(305.008 1.69965 -1.00846e-12)
(304.991 2.23847 -3.82401e-11)
(304.984 2.65623 -5.17842e-12)
(304.957 3.23405 -4.54011e-12)
(304.95 3.60354 3.09354e-11)
(304.91 4.24211 3.86301e-11)
(304.906 4.53704 2.04414e-11)
(304.85 5.26375 1.52104e-11)
(304.852 5.45512 -1.1136e-12)
(304.777 6.29947 1.28757e-11)
(304.786 6.35738 2.60014e-12)
(304.691 7.34839 -7.30081e-12)
(304.709 7.24357 -1.73809e-11)
(304.595 8.407 -2.2013e-11)
(304.616 8.11972 -1.66193e-11)
(304.489 9.46521 -2.83119e-11)
(304.507 8.99775 -2.03608e-11)
(304.378 10.5076 9.72571e-12)
(304.377 9.89733 4.13416e-11)
(304.265 11.5115 3.28733e-11)
(304.219 10.8456 2.45863e-11)
(305.211 0.337424 -3.13507e-11)
(305.218 0.755762 -3.55112e-12)
(305.211 1.26582 2.01148e-12)
(305.206 1.71875 -4.85349e-12)
(305.191 2.25659 -2.57116e-11)
(305.185 2.68578 2.71793e-11)
(305.16 3.26041 -1.40271e-13)
(305.155 3.64346 9.53324e-12)
(305.117 4.2769 -1.67611e-11)
(305.116 4.58741 -1.48012e-11)
(305.062 5.30742 1.22546e-12)
(305.068 5.51582 -4.08655e-11)
(304.995 6.35291 -1.03372e-11)
(305.01 6.42631 -2.01676e-12)
(304.918 7.41394 6.7926e-12)
(304.941 7.3198 1.30513e-11)
(304.83 8.48585 -1.75008e-11)
(304.859 8.20207 5.04078e-12)
(304.734 9.56 1.48318e-11)
(304.761 9.08437 -1.18918e-11)
(304.632 10.621 -9.44991e-12)
(304.644 9.98489 2.99374e-12)
(304.53 11.6456 9.13506e-12)
(304.5 10.932 1.64894e-11)
(305.345 0.339385 2.44571e-11)
(305.353 0.763199 9.62623e-12)
(305.346 1.27393 -1.38893e-11)