/*--------------------------------*- C++ -*----------------------------------*\
  =========                 |
  \\      /  F ield         | OpenFOAM: The Open Source CFD Toolbox
   \\    /   O peration     | Website:  https://openfoam.org
    \\  /    A nd           | Version:  10
     \\/     M anipulation  |
\*---------------------------------------------------------------------------*/
FoamFile
{
    format      ascii;
    class       surfaceScalarField;
    location    "0.5";
    object      phi;
}
// * * * * * * * * * * * * * * * * * * * * * * * * * * * * * * * * * * * * * //

dimensions      [1 0 -1 0 0 0 0];

internalField   nonuniform List<scalar> 
8154
(
-5.81049e-09
-2.21091e-08
-5.68125e-08
-9.20321e-08
-1.71611e-07
-2.26006e-07
-3.69515e-07
-4.53241e-07
-6.73316e-07
-8.12771e-07
-1.10372e-06
-1.33656e-06
-1.66733e-06
-2.02702e-06
-2.36008e-06
-2.86725e-06
-3.25742e-06
-3.98676e-06
-4.56432e-06
-5.50431e-06
-6.81978e-06
-7.28148e-06
-6.8448e-06
-0.000277438
-0.000832369
2.40414e-08
-0.00138746
9.62463e-08
-0.00194289
2.13384e-07
-0.00249866
3.77939e-07
-0.00305504
5.77246e-07
-0.00361201
8.23458e-07
-0.00416974
1.089e-06
-0.00472844
1.39847e-06
-0.00528791
1.71216e-06
-0.00584877
2.05709e-06
-0.00641057
2.40325e-06
-0.00697377
2.74884e-06
-0.00753864
3.12121e-06
-0.00810412
3.43736e-06
-0.00867313
3.85096e-06
-0.00924022
4.12565e-06
-0.00981487
4.5727e-06
-0.0103833
4.9239e-06
-0.0109645
5.13886e-06
-0.0115338
5.27886e-06
-0.0121235
5.11471e-06
-0.0126949
4.03218e-06
-0.0132929
2.44564e-06
-0.000277462
-0.000832441
2.63548e-08
-0.00138758
1.04792e-07
-0.00194305
2.34792e-07
-0.00249886
4.10072e-07
-0.00305528
6.35207e-07
-0.00361228
8.89563e-07
-0.00417005
1.19521e-06
-0.00472876
1.50179e-06
-0.00528825
1.86791e-06
-0.00584912
2.19147e-06
-0.00641091
2.59359e-06
-0.00697414
2.89334e-06
-0.00753896
3.29992e-06
-0.00810453
3.54054e-06
-0.00867341
3.90599e-06
-0.00924066
4.105e-06
-0.00981523
4.38963e-06
-0.0103835
5.00149e-06
-0.0109647
4.6659e-06
-0.0115336
5.23121e-06
-0.0121224
5.33183e-06
-0.0126933
5.04079e-06
-0.0132904
4.22474e-06
-0.000277488
-0.00083252
2.12926e-08
-0.00138771
8.4913e-08
-0.00194323
1.88141e-07
-0.00249909
3.30443e-07
-0.00305554
5.01908e-07
-0.00361258
7.07346e-07
-0.00417035
9.23204e-07
-0.00472912
1.16706e-06
-0.00528858
1.39491e-06
-0.00584952
1.64249e-06
-0.00641121
1.8464e-06
-0.00697455
2.05022e-06
-0.0075392
2.19838e-06
-0.00810489
2.28542e-06
-0.00867361
2.35604e-06
-0.00924095
2.20726e-06
-0.00981585
2.34366e-06
-0.0103832
1.89894e-06
-0.0109652
1.78141e-06
-0.0115337
1.39206e-06
-0.0121221
1.15477e-06
-0.0126925
7.21015e-07
-0.0132862
5.10857e-07
-0.00027751
-0.000832584
2.55281e-08
-0.00138781
1.01878e-07
-0.00194337
2.26121e-07
-0.00249926
3.97753e-07
-0.00305574
6.05665e-07
-0.0036128
8.55689e-07
-0.0041706
1.12e-06
-0.00472935
1.42116e-06
-0.00528883
1.7032e-06
-0.00584973
2.0174e-06
-0.00641142
2.2721e-06
-0.0069747
2.54868e-06
-0.00753929
2.73471e-06
-0.00810496
2.89683e-06
-0.00867346
2.98808e-06
-0.00924108
2.89895e-06
-0.00981541
2.97498e-06
-0.010383
2.28209e-06
-0.0109649
2.51641e-06
-0.0115335
1.72506e-06
-0.0121217
1.2073e-06
-0.0126923
3.79912e-07
-0.0132857
-1.76531e-07
-0.000277535
-0.00083266
3.36438e-08
-0.00138793
1.3425e-07
-0.00194354
2.99284e-07
-0.00249947
5.26433e-07
-0.00305599
8.08022e-07
-0.00361306
1.14174e-06
-0.0041709
1.51245e-06
-0.00472963
1.91966e-06
-0.00528914
2.33965e-06
-0.00584998
2.77376e-06
-0.00641169
3.19409e-06
-0.00697488
3.59623e-06
-0.00753945
3.96524e-06
-0.00810505
4.26054e-06
-0.00867338
4.52508e-06
-0.00924116
4.61674e-06
-0.00981472
4.73146e-06
-0.0103833
4.39963e-06
-0.0109641
4.36535e-06
-0.011533
3.67292e-06
-0.0121209
3.2138e-06
-0.0126917
2.27016e-06
-0.0132859
1.34409e-06
-0.000277569
-0.00083276
3.75701e-08
-0.0013881
1.49933e-07
-0.00194377
3.34511e-07
-0.00249975
5.88502e-07
-0.00305633
9.04487e-07
-0.00361343
1.27844e-06
-0.0041713
1.69663e-06
-0.00473005
2.15438e-06
-0.00528957
2.63151e-06
-0.0058504
3.12135e-06
-0.00641209
3.60233e-06
-0.00697525
4.05842e-06
-0.00753975
4.48277e-06
-0.00810531
4.8233e-06
-0.00867347
5.12697e-06
-0.00924127
5.25152e-06
-0.00981439
5.37038e-06
-0.0103832
5.08169e-06
-0.0109634
4.9666e-06
-0.0115325
4.21609e-06
-0.0121199
3.67845e-06
-0.0126908
2.63867e-06
-0.0132845
1.60924e-06
-0.000277606
-0.000832873
4.14093e-08
-0.00138828
1.65271e-07
-0.00194402
3.68831e-07
-0.00250006
6.49036e-07
-0.0030567
9.98005e-07
-0.00361385
1.41133e-06
-0.00417176
1.87444e-06
-0.00473053
2.38224e-06
-0.00529006
2.91285e-06
-0.00585088
3.45935e-06
-0.00641255
3.99646e-06
-0.00697567
4.50928e-06
-0.00754009
4.98355e-06
-0.00810561
5.37246e-06
-0.0086736
5.70998e-06
-0.00924139
5.86417e-06
-0.0098141
5.9982e-06
-0.0103831
5.71885e-06
-0.0109627
5.59916e-06
-0.011532
4.80985e-06
-0.0121189
4.19799e-06
-0.0126898
2.98929e-06
-0.0132829
1.795e-06
-0.000277648
-0.000832997
4.5112e-08
-0.00138849
1.80043e-07
-0.0019443
4.0184e-07
-0.00250041
7.07048e-07
-0.00305712
1.08746e-06
-0.00361431
1.53783e-06
-0.00417227
2.04346e-06
-0.00473106
2.59778e-06
-0.00529061
3.17916e-06
-0.00585142
3.77799e-06
-0.00641306
4.36926e-06
-0.00697615
4.93424e-06
-0.00754048
5.45771e-06
-0.00810595
5.8902e-06
-0.00867375
6.26051e-06
-0.00924152
6.44263e-06
-0.00981383
6.58207e-06
-0.010383
6.3295e-06
-0.0109619
6.18157e-06
-0.0115314
5.37453e-06
-0.0121176
4.81351e-06
-0.0126886
3.3632e-06
-0.0132811
2.01987e-06
-0.000277693
-0.000833131
4.87658e-08
-0.00138871
1.94608e-07
-0.00194461
4.34331e-07
-0.00250079
7.6405e-07
-0.00305757
1.17506e-06
-0.00361482
1.66137e-06
-0.00417282
2.20783e-06
-0.00473164
2.80676e-06
-0.00529121
3.43623e-06
-0.00585201
4.08504e-06
-0.00641363
4.72752e-06
-0.00697667
5.34283e-06
-0.00754091
5.9134e-06
-0.00810632
6.38844e-06
-0.00867393
6.79022e-06
-0.00924166
6.99764e-06
-0.00981358
7.13752e-06
-0.0103828
6.90393e-06
-0.0109611
6.73275e-06
-0.0115307
5.91785e-06
-0.0121163
4.85066e-06
-0.0126872
3.71864e-06
-0.0132791
2.2139e-06
-0.000277742
-0.000833277
5.23684e-08
-0.00138895
2.08965e-07
-0.00194494
4.66339e-07
-0.0025012
8.20155e-07
-0.00305805
1.26114e-06
-0.00361537
1.7825e-06
-0.00417342
2.36843e-06
-0.00473227
3.0102e-06
-0.00529186
3.68537e-06
-0.00585265
4.38139e-06
-0.00641424
5.07191e-06
-0.00697724
5.73456e-06
-0.00754139
6.3497e-06
-0.00810672
6.8656e-06
-0.00867414
7.29834e-06
-0.0092418
7.52928e-06
-0.00981334
7.66822e-06
-0.0103826
7.44919e-06
-0.0109603
7.24892e-06
-0.01153
6.39242e-06
-0.0121148
5.60477e-06
-0.0126857
4.03088e-06
-0.0132769
2.39809e-06
-0.000277794
-0.000833434
5.59331e-08
-0.00138921
2.23176e-07
-0.00194529
4.98033e-07
-0.00250165
8.75742e-07
-0.00305857
1.34643e-06
-0.00361595
1.90244e-06
-0.00417407
2.5272e-06
-0.00473294
3.21083e-06
-0.00529255
3.93008e-06
-0.00585334
4.67118e-06
-0.0064149
5.40685e-06
-0.00697785
6.11378e-06
-0.00754191
6.77031e-06
-0.00810715
7.32473e-06
-0.00867437
7.78764e-06
-0.00924194
8.04341e-06
-0.00981313
8.18872e-06
-0.0103824
7.97188e-06
-0.0109594
7.74554e-06
-0.0115293
6.86283e-06
-0.0121132
6.00689e-06
-0.0126841
4.35759e-06
-0.0132745
2.58609e-06
-0.00027785
-0.000833601
5.94515e-08
-0.00138948
2.37211e-07
-0.00194567
5.2937e-07
-0.00250212
9.30783e-07
-0.00305913
1.43097e-06
-0.00361658
2.02148e-06
-0.00417475
2.68478e-06
-0.00473366
3.4098e-06
-0.0052933
4.17221e-06
-0.00585408
4.95692e-06
-0.00641561
5.73541e-06
-0.00697851
6.48362e-06
-0.00754246
7.17791e-06
-0.00810761
7.7673e-06
-0.00867463
8.25747e-06
-0.00924208
8.53642e-06
-0.00981291
8.68856e-06
-0.0103822
8.46961e-06
-0.0109585
8.20824e-06
-0.0115284
7.28651e-06
-0.0121115
6.37581e-06
-0.0126823
4.65202e-06
-0.0132719
2.75656e-06
-0.000277909
-0.000833778
6.29226e-08
-0.00138977
2.51065e-07
-0.00194607
5.60335e-07
-0.00250262
9.85257e-07
-0.00305972
1.51479e-06
-0.00361724
2.1397e-06
-0.00417547
2.84147e-06
-0.00473442
3.60782e-06
-0.00529408
4.41308e-06
-0.00585486
5.24071e-06
-0.00641636
6.06062e-06
-0.0069792
6.84788e-06
-0.00754305
7.57671e-06
-0.0081081
8.19729e-06
-0.0086749
8.71102e-06
-0.00924224
9.01001e-06
-0.00981269
9.16657e-06
-0.0103819
8.94835e-06
-0.0109576
8.64692e-06
-0.0115275
7.6803e-06
-0.0121098
6.7075e-06
-0.0126804
4.8965e-06
-0.0132692
2.90413e-06
-0.000277972
-0.000833966
6.63485e-08
-0.00139008
2.64738e-07
-0.0019465
5.90909e-07
-0.00250315
1.03909e-06
-0.00306035
1.5977e-06
-0.00361794
2.25679e-06
-0.00417624
2.99691e-06
-0.00473523
3.80454e-06
-0.00529491
4.65263e-06
-0.00585568
5.52307e-06
-0.00641714
6.38387e-06
-0.00697993
7.20896e-06
-0.00754367
7.97008e-06
-0.00810862
8.6185e-06
-0.0086752
9.15165e-06
-0.00924239
9.46659e-06
-0.00981247
9.62592e-06
-0.0103816
9.41044e-06
-0.0109566
9.06686e-06
-0.0115265
8.05525e-06
-0.012108
7.01286e-06
-0.0126784
5.05579e-06
-0.0132663
3.02998e-06
-0.000278039
-0.000834165
6.97367e-08
-0.00139041
2.78253e-07
-0.00194694
6.21113e-07
-0.00250371
1.09224e-06
-0.00306101
1.67953e-06
-0.00361868
2.37239e-06
-0.00417705
3.15043e-06
-0.00473608
3.99906e-06
-0.00529578
4.88983e-06
-0.00585654
5.8031e-06
-0.00641797
6.70487e-06
-0.00698069
7.56761e-06
-0.00754432
8.36022e-06
-0.00810915
9.03446e-06
-0.00867552
9.58356e-06
-0.00924255
9.9095e-06
-0.00981225
1.00676e-05
-0.0103813
9.85233e-06
-0.0109556
9.46763e-06
-0.0115255
8.41749e-06
-0.012106
7.31287e-06
-0.0126764
5.27708e-06
-0.0132633
3.16152e-06
-0.000278108
-0.000834373
7.30912e-08
-0.00139075
2.91626e-07
-0.00194741
6.50954e-07
-0.00250429
1.14467e-06
-0.0030617
1.7601e-06
-0.00361946
2.48603e-06
-0.0041779
3.30118e-06
-0.00473697
4.19005e-06
-0.00529669
5.12288e-06
-0.00585744
6.07869e-06
-0.00641883
7.02151e-06
-0.00698148
7.92224e-06
-0.007545
8.74679e-06
-0.0081097
9.4467e-06
-0.00867584
1.00105e-05
-0.00924271
1.0344e-05
-0.00981203
1.04942e-05
-0.0103809
1.02666e-05
-0.0109546
9.8479e-06
-0.0115244
8.76046e-06
-0.012104
7.59402e-06
-0.0126743
5.49538e-06
-0.0132601
3.28363e-06
-0.000278181
-0.000834592
7.64038e-08
-0.00139111
3.04817e-07
-0.00194791
6.80338e-07
-0.00250491
1.19617e-06
-0.00306242
1.83904e-06
-0.00362028
2.59707e-06
-0.00417879
3.44812e-06
-0.0047379
4.37589e-06
-0.00529765
5.3495e-06
-0.00585838
6.34682e-06
-0.00641973
7.33021e-06
-0.00698231
8.26906e-06
-0.0075457
9.1264e-06
-0.00811026
9.8531e-06
-0.00867617
1.04328e-05
-0.00924286
1.07741e-05
-0.00981179
1.09152e-05
-0.0103805
1.06715e-05
-0.0109535
1.0218e-05
-0.0115232
9.09356e-06
-0.0121019
7.86532e-06
-0.0126721
5.69523e-06
-0.0132568
3.39744e-06
-0.000278258
-0.00083482
7.96493e-08
-0.00139149
3.17728e-07
-0.00194842
7.09052e-07
-0.00250555
1.2464e-06
-0.00306318
1.91581e-06
-0.00362113
2.70475e-06
-0.00417971
3.5902e-06
-0.00473887
4.5551e-06
-0.00529864
5.56756e-06
-0.00585936
6.60461e-06
-0.00642067
7.62717e-06
-0.00698317
8.60348e-06
-0.00754643
9.49399e-06
-0.00811084
1.02487e-05
-0.00867651
1.08465e-05
-0.00924301
1.11977e-05
-0.00981154
1.13317e-05
-0.01038
1.1074e-05
-0.0109524
1.05818e-05
-0.011522
9.42361e-06
-0.0120998
8.13232e-06
-0.0126698
5.88923e-06
-0.0132534
3.50636e-06
-0.000278338
-0.000835058
8.27711e-08
-0.00139188
3.3014e-07
-0.00194896
7.36643e-07
-0.00250622
1.29461e-06
-0.00306397
1.98942e-06
-0.00362202
2.8078e-06
-0.00418068
3.72584e-06
-0.00473989
4.72574e-06
-0.00529968
5.77462e-06
-0.00586039
6.84885e-06
-0.00642165
7.9082e-06
-0.00698406
8.92014e-06
-0.00754718
9.84301e-06
-0.00811144
1.06262e-05
-0.00867687
1.12442e-05
-0.00924314
1.16083e-05
-0.00981128
1.17392e-05
-0.0103795
1.147e-05
-0.0109512
1.09389e-05
-0.0115207
9.75343e-06
-0.0120975
8.40138e-06
-0.0126674
6.08259e-06
-0.0132499
3.61389e-06
-0.00027842
-0.000835306
8.56924e-08
-0.00139228
3.41761e-07
-0.00194952
7.62494e-07
-0.00250692
1.33983e-06
-0.00306479
2.0585e-06
-0.00362293
2.90453e-06
-0.00418168
3.85308e-06
-0.00474093
4.88559e-06
-0.00530075
5.96815e-06
-0.00586145
7.07654e-06
-0.00642266
8.16953e-06
-0.00698498
9.21411e-06
-0.00754797
1.01671e-05
-0.00811206
1.09776e-05
-0.00867723
1.16166e-05
-0.00924327
1.19963e-05
-0.009811
1.2129e-05
-0.010379
1.18529e-05
-0.01095
1.1287e-05
-0.0115193
1.00825e-05
-0.0120952
8.6745e-06
-0.012665
6.28189e-06
-0.0132462
3.72474e-06
-0.000278506
-0.000835562
8.8325e-08
-0.0013927
3.52245e-07
-0.0019501
7.85868e-07
-0.00250764
1.38083e-06
-0.00306564
2.12132e-06
-0.00362388
2.99275e-06
-0.00418271
3.96936e-06
-0.00474202
5.03181e-06
-0.00530186
6.14513e-06
-0.00586254
7.2844e-06
-0.0064237
8.40743e-06
-0.00698593
9.4809e-06
-0.00754878
1.04604e-05
-0.00811269
1.12953e-05
-0.00867761
1.19539e-05
-0.0092434
1.23496e-05
-0.00981072
1.24883e-05
-0.0103785
1.22125e-05
-0.0109488
1.16259e-05
-0.0115179
1.04028e-05
-0.0120928
8.94403e-06
-0.0126624
6.48835e-06
-0.0132425
3.84168e-06
-0.000278594
-0.000835826
9.0583e-08
-0.00139314
3.61254e-07
-0.00195069
8.0602e-07
-0.00250838
1.41634e-06
-0.00306651
2.176e-06
-0.00362486
3.06994e-06
-0.00418377
4.0716e-06
-0.00474313
5.16088e-06
-0.005303
6.30173e-06
-0.00586366
7.46846e-06
-0.00642477
8.61777e-06
-0.00698691
9.71601e-06
-0.00754961
1.07177e-05
-0.00811335
1.15729e-05
-0.008678
1.22475e-05
-0.00924354
1.2657e-05
-0.00981044
1.28014e-05
-0.0103779
1.25294e-05
-0.0109476
1.19329e-05
-0.0115165
1.06927e-05
-0.0120904
9.19167e-06
-0.0126597
6.69213e-06
-0.0132387
3.96096e-06
-0.000278685
-0.000836097
9.23963e-08
-0.00139358
3.68504e-07
-0.0019513
8.22302e-07
-0.00250914
1.44519e-06
-0.0030674
2.22072e-06
-0.00362586
3.13351e-06
-0.00418486
4.15643e-06
-0.00474427
5.26874e-06
-0.00530417
6.43334e-06
-0.00586481
7.62377e-06
-0.00642587
8.79549e-06
-0.00698791
9.91435e-06
-0.00755047
1.09339e-05
-0.00811403
1.18044e-05
-0.00867841
1.24905e-05
-0.00924369
1.29094e-05
-0.00981017
1.30567e-05
-0.0103773
1.27862e-05
-0.0109463
1.21786e-05
-0.011515
1.09287e-05
-0.0120879
9.39231e-06
-0.012657
6.86755e-06
-0.0132347
4.06504e-06
-0.000278777
-0.000836373
9.37169e-08
-0.00139404
3.73796e-07
-0.00195192
8.34229e-07
-0.00250991
1.46645e-06
-0.00306831
2.25389e-06
-0.00362689
3.18109e-06
-0.00418597
4.2205e-06
-0.00474544
5.35102e-06
-0.00530536
6.53471e-06
-0.00586598
7.7444e-06
-0.00642699
8.93429e-06
-0.00698893
1.00696e-05
-0.00755134
1.11024e-05
-0.00811471
1.19836e-05
-0.00867883
1.2676e-05
-0.00924384
1.30993e-05
-0.0098099
1.32451e-05
-0.0103767
1.29727e-05
-0.0109451
1.2352e-05
-0.0115134
1.10956e-05
-0.0120854
9.51988e-06
-0.0126542
6.96991e-06
-0.0132307
4.1196e-06
-0.000278871
-0.000836653
9.45334e-08
-0.0013945
3.77072e-07
-0.00195255
8.41637e-07
-0.0025107
1.47972e-06
-0.00306924
2.27475e-06
-0.00362793
3.21131e-06
-0.0041871
4.26166e-06
-0.00474662
5.4047e-06
-0.00530656
6.60179e-06
-0.00586717
7.82562e-06
-0.00642813
9.02886e-06
-0.00698997
1.01766e-05
-0.00755222
1.12187e-05
-0.0081154
1.21068e-05
-0.00867925
1.28008e-05
-0.00924398
1.32243e-05
-0.00980963
1.33629e-05
-0.010376
1.30851e-05
-0.0109438
1.24496e-05
-0.0115118
1.11896e-05
-0.0120828
9.56437e-06
-0.0126513
6.96144e-06
-0.0132266
4.09621e-06
-0.000278966
-0.000836936
9.52257e-08
-0.00139496
3.79844e-07
-0.00195319
8.4789e-07
-0.0025115
1.49092e-06
-0.00307018
2.29235e-06
-0.00362898
3.23693e-06
-0.00418825
4.2969e-06
-0.00474782
5.45137e-06
-0.00530779
6.66154e-06
-0.00586838
7.9001e-06
-0.00642927
9.11895e-06
-0.00699101
1.02827e-05
-0.00755311
1.13396e-05
-0.0081161
1.22411e-05
-0.00867967
1.29447e-05
-0.00924413
1.33755e-05
-0.00980935
1.35157e-05
-0.0103754
1.32397e-05
-0.0109426
1.25988e-05
-0.0115102
1.13409e-05
-0.0120802
9.69005e-06
-0.0126485
7.04948e-06
-0.0132224
4.19411e-06
-0.000279061
-0.000837221
9.55256e-08
-0.00139543
3.8104e-07
-0.00195384
8.50578e-07
-0.0025123
1.49572e-06
-0.00307112
2.29993e-06
-0.00363004
3.24805e-06
-0.0041894
4.3125e-06
-0.00474903
5.47273e-06
-0.00530903
6.69015e-06
-0.0058696
7.93783e-06
-0.00643044
9.16758e-06
-0.00699207
1.03437e-05
-0.00755401
1.14137e-05
-0.0081168
1.23279e-05
-0.0086801
1.30422e-05
-0.00924427
1.34813e-05
-0.00980907
1.36249e-05
-0.0103748
1.3351e-05
-0.0109413
1.27056e-05
-0.0115086
1.14477e-05
-0.0120776
9.79561e-06
-0.0126456
7.13289e-06
-0.0132183
4.34541e-06
-0.000279157
-0.000837506
9.53222e-08
-0.0013959
3.80222e-07
-0.00195448
8.4873e-07
-0.0025131
1.49245e-06
-0.00307207
2.29486e-06
-0.0036311
3.24096e-06
-0.00419056
4.30328e-06
-0.00475025
5.46178e-06
-0.00531027
6.67823e-06
-0.00587082
7.92647e-06
-0.00643161
9.15866e-06
-0.00699314
1.03395e-05
-0.00755493
1.14163e-05
-0.00811751
1.23388e-05
-0.00868054
1.30614e-05
-0.00924441
1.35077e-05
-0.0098088
1.36544e-05
-0.0103741
1.33816e-05
-0.0109401
1.27304e-05
-0.0115069
1.14749e-05
-0.0120749
9.82131e-06
-0.0126426
7.1947e-06
-0.0132141
3.92307e-06
-0.000279252
-0.000837791
9.46517e-08
-0.00139637
3.77544e-07
-0.00195512
8.42726e-07
-0.00251391
1.48186e-06
-0.00307301
2.27846e-06
-0.00363217
3.21769e-06
-0.00419172
4.27224e-06
-0.00475146
5.42251e-06
-0.00531152
6.6307e-06
-0.00587206
7.87162e-06
-0.00643279
9.09804e-06
-0.00699421
1.02757e-05
-0.00755585
1.13523e-05
-0.00811823
1.2278e-05
-0.00868098
1.30066e-05
-0.00924456
1.34604e-05
-0.00980853
1.36132e-05
-0.0103735
1.33445e-05
-0.0109388
1.26893e-05
-0.0115052
1.1433e-05
-0.0120723
9.75951e-06
-0.0126397
7.17028e-06
-0.0132099
3.89212e-06
-0.000279347
-0.000838074
9.35396e-08
-0.00139684
3.73115e-07
-0.00195576
8.32849e-07
-0.0025147
1.46453e-06
-0.00307395
2.25179e-06
-0.00363322
3.18002e-06
-0.00419287
4.22207e-06
-0.00475267
5.35884e-06
-0.00531276
6.55283e-06
-0.00587328
7.7798e-06
-0.00643397
8.99319e-06
-0.00699529
1.016e-05
-0.00755677
1.1229e-05
-0.00811896
1.21516e-05
-0.00868143
1.2882e-05
-0.00924472
1.33429e-05
-0.00980826
1.35057e-05
-0.0103728
1.32488e-05
-0.0109376
1.25996e-05
-0.0115036
1.13466e-05
-0.0120697
9.64946e-06
-0.0126368
7.08541e-06
-0.0132056
4.20712e-06
-0.00027944
-0.000838354
9.20124e-08
-0.0013973
3.67046e-07
-0.00195639
8.19361e-07
-0.00251549
1.44097e-06
-0.00307488
2.21573e-06
-0.00363426
3.1294e-06
-0.004194
4.15508e-06
-0.00475387
5.27416e-06
-0.00531399
6.44946e-06
-0.0058745
7.65752e-06
-0.00643514
8.85227e-06
-0.00699636
1.0002e-05
-0.0075577
1.10563e-05
-0.00811969
1.19687e-05
-0.00868189
1.2695e-05
-0.00924488
1.31593e-05
-0.009808
1.33333e-05
-0.0103722
1.30947e-05
-0.0109363
1.24661e-05
-0.0115019
1.12353e-05
-0.0120672
9.5468e-06
-0.0126339
7.01794e-06
-0.0132014
4.16469e-06
-0.000279533
-0.000838629
9.01094e-08
-0.00139775
3.59491e-07
-0.00195702
8.02599e-07
-0.00251626
1.41175e-06
-0.00307579
2.17119e-06
-0.00363529
3.06714e-06
-0.00419512
4.07318e-06
-0.00475504
5.17126e-06
-0.0053152
6.32459e-06
-0.00587569
7.51036e-06
-0.00643628
8.6828e-06
-0.00699741
9.81109e-06
-0.00755861
1.08455e-05
-0.00812042
1.17417e-05
-0.00868235
1.24568e-05
-0.00924506
1.29185e-05
-0.00980776
1.30996e-05
-0.0103715
1.288e-05
-0.0109351
1.22803e-05
-0.0115002
1.10888e-05
-0.0120646
9.43689e-06
-0.0126311
6.93801e-06
-0.0131972
4.12072e-06
-0.000279623
-0.000838899
8.78885e-08
-0.00139819
3.50676e-07
-0.00195762
7.8304e-07
-0.00251702
1.37767e-06
-0.00307669
2.11928e-06
-0.0036363
2.99473e-06
-0.00419622
3.97823e-06
-0.0047562
5.05251e-06
-0.00531638
6.18132e-06
-0.00587686
7.34256e-06
-0.00643741
8.49063e-06
-0.00699845
9.59542e-06
-0.00755951
1.06072e-05
-0.00812113
1.14835e-05
-0.00868281
1.21823e-05
-0.00924524
1.26346e-05
-0.00980754
1.28155e-05
-0.0103709
1.26095e-05
-0.0109339
1.20394e-05
-0.0114985
1.08947e-05
-0.0120621
9.29317e-06
-0.0126282
6.85843e-06
-0.0131931
4.06545e-06
-0.000279711
-0.000839162
8.54242e-08
-0.00139862
3.40889e-07
-0.00195822
7.61299e-07
-0.00251777
1.33973e-06
-0.00307756
2.06144e-06
-0.00363728
2.91397e-06
-0.0041973
3.87234e-06
-0.00475733
4.92022e-06
-0.00531754
6.02224e-06
-0.00587801
7.15708e-06
-0.00643852
8.27957e-06
-0.00699946
9.36022e-06
-0.00756038
1.03492e-05
-0.00812183
1.12049e-05
-0.00868326
1.18853e-05
-0.00924542
1.23242e-05
-0.00980734
1.2498e-05
-0.0103703
1.2297e-05
-0.0109328
1.17487e-05
-0.0114969
1.06488e-05
-0.0120597
9.11096e-06
-0.0126254
6.7763e-06
-0.013189
4.00658e-06
-0.000279796
-0.000839417
8.27987e-08
-0.00139904
3.30451e-07
-0.0019588
7.38072e-07
-0.00251849
1.2991e-06
-0.00307842
1.99932e-06
-0.00363824
2.82699e-06
-0.00419834
3.75799e-06
-0.00475843
4.77709e-06
-0.00531867
5.84998e-06
-0.00587913
6.95642e-06
-0.00643959
8.052e-06
-0.00700045
9.10812e-06
-0.00756124
1.0075e-05
-0.00812251
1.09118e-05
-0.0086837
1.15754e-05
-0.0092456
1.20015e-05
-0.00980714
1.21657e-05
-0.0103698
1.19631e-05
-0.0109317
1.14245e-05
-0.0114954
1.03553e-05
-0.0120574
8.87615e-06
-0.0126227
6.65033e-06
-0.013185
3.93006e-06
-0.000279879
-0.000839665
8.00887e-08
-0.00139945
3.19664e-07
-0.00195936
7.14023e-07
-0.00251919
1.25691e-06
-0.00307924
1.9346e-06
-0.00363917
2.73602e-06
-0.00419936
3.63791e-06
-0.0047595
4.62612e-06
-0.00531978
5.66752e-06
-0.00588023
6.74319e-06
-0.00644065
7.80985e-06
-0.00700141
8.84025e-06
-0.00756208
9.78524e-06
-0.00812317
1.06048e-05
-0.00868413
1.12552e-05
-0.00924576
1.16726e-05
-0.00980695
1.18313e-05
-0.0103692
1.16279e-05
-0.0109306
1.10933e-05
-0.0114939
1.00409e-05
-0.0120551
8.59332e-06
-0.01262
6.42306e-06
-0.0131811
3.81998e-06
-0.000279959
-0.000839905
7.7352e-08
-0.00139985
3.0876e-07
-0.0019599
6.89669e-07
-0.00251987
1.21408e-06
-0.00308005
1.86869e-06
-0.00364008
2.64303e-06
-0.00420035
3.5146e-06
-0.00476054
4.4703e-06
-0.00532085
5.4781e-06
-0.00588129
6.52044e-06
-0.00644168
7.55552e-06
-0.00700236
8.55767e-06
-0.0075629
9.47914e-06
-0.00812382
1.02814e-05
-0.00868455
1.09208e-05
-0.00924592
1.13342e-05
-0.00980675
1.14951e-05
-0.0103687
1.12989e-05
-0.0109296
1.07749e-05
-0.0114924
9.73976e-06
-0.012053
8.31405e-06
-0.0126174
6.19067e-06
-0.0131773
3.67757e-06
-0.000280037
-0.000840136
7.4621e-08
-0.00140023
2.97868e-07
-0.00196042
6.65311e-07
-0.00252052
1.17117e-06
-0.00308082
1.8025e-06
-0.00364095
2.54934e-06
-0.00420131
3.38992e-06
-0.00476155
4.31198e-06
-0.0053219
5.28451e-06
-0.00588233
6.2912e-06
-0.00644268
7.29175e-06
-0.00700328
8.26224e-06
-0.0075637
9.15664e-06
-0.00812446
9.93863e-06
-0.00868496
1.05659e-05
-0.00924609
1.09766e-05
-0.00980655
1.11461e-05
-0.0103682
1.09663e-05
-0.0109285
1.04666e-05
-0.011491
9.45896e-06
-0.0120508
8.05959e-06
-0.0126148
5.97347e-06
-0.0131736
3.49197e-06
-0.000280111
-0.00084036
7.18952e-08
-0.0014006
2.86991e-07
-0.00196093
6.40964e-07
-0.00252115
1.12822e-06
-0.00308157
1.73615e-06
-0.00364179
2.45528e-06
-0.00420223
3.26442e-06
-0.00476253
4.15207e-06
-0.0053229
5.08812e-06
-0.00588332
6.05726e-06
-0.00644365
7.02057e-06
-0.00700417
7.95572e-06
-0.00756449
8.81844e-06
-0.00812509
9.57495e-06
-0.00868537
1.01852e-05
-0.00924625
1.05894e-05
-0.00980637
1.0768e-05
-0.0103677
1.06091e-05
-0.0109275
1.01474e-05
-0.0114896
9.18411e-06
-0.0120487
7.8373e-06
-0.0126124
5.79246e-06
-0.0131701
3.31881e-06
-0.000280183
-0.000840575
6.91529e-08
-0.00140095
2.76042e-07
-0.00196142
6.16447e-07
-0.00252176
1.08494e-06
-0.00308229
1.66925e-06
-0.0036426
2.36031e-06
-0.00420312
3.13756e-06
-0.00476346
3.99007e-06
-0.00532387
4.88861e-06
-0.00588429
5.81865e-06
-0.00644458
6.7425e-06
-0.00700503
7.63902e-06
-0.00756524
8.46556e-06
-0.0081257
9.19052e-06
-0.00868578
9.77678e-06
-0.00924643
1.01665e-05
-0.00980621
1.03474e-05
-0.0103672
1.02044e-05
-0.0109265
9.78382e-06
-0.0114883
8.87293e-06
-0.0120467
7.61064e-06
-0.0126099
5.64559e-06
-0.0131668
3.29427e-06
-0.000280253
-0.000840782
6.63442e-08
-0.00140129
2.64829e-07
-0.00196189
5.91329e-07
-0.00252234
1.04057e-06
-0.00308298
1.60064e-06
-0.00364338
2.26288e-06
-0.00420397
3.0073e-06
-0.00476436
3.82351e-06
-0.0053248
4.68318e-06
-0.00588521
5.57241e-06
-0.00644548
6.4548e-06
-0.00700585
7.30976e-06
-0.00756597
8.09623e-06
-0.00812629
8.78404e-06
-0.00868617
9.33928e-06
-0.00924661
9.70525e-06
-0.00980606
9.87756e-06
-0.0103668
9.73812e-06
-0.0109256
9.34831e-06
-0.0114871
8.47981e-06
-0.0120447
7.3067e-06
-0.0126075
5.43306e-06
-0.0131635
3.22822e-06
-0.000280319
-0.00084098
6.34002e-08
-0.00140162
2.53062e-07
-0.00196233
5.64969e-07
-0.0025229
9.93999e-07
-0.00308364
1.52861e-06
-0.00364412
2.16056e-06
-0.00420479
2.87038e-06
-0.00476522
3.64831e-06
-0.00532569
4.46676e-06
-0.00588609
5.31288e-06
-0.00644633
6.15087e-06
-0.00700664
6.96165e-06
-0.00756666
7.70366e-06
-0.00812685
8.35063e-06
-0.00868653
8.86741e-06
-0.00924678
9.20369e-06
-0.00980591
9.35282e-06
-0.0103664
9.2068e-06
-0.0109247
8.82471e-06
-0.0114859
7.98599e-06
-0.0120429
6.87965e-06
-0.0126053
5.09902e-06
-0.0131603
3.04442e-06
-0.000280382
-0.000841169
6.05732e-08
-0.00140193
2.41749e-07
-0.00196276
5.39632e-07
-0.00252344
9.49277e-07
-0.00308427
1.45952e-06
-0.00364484
2.06255e-06
-0.00420557
2.73937e-06
-0.00476604
3.48096e-06
-0.00532653
4.26029e-06
-0.00588692
5.06611e-06
-0.00644714
5.86264e-06
-0.00700738
6.63328e-06
-0.00756731
7.3343e-06
-0.00812737
7.94583e-06
-0.00868687
8.42775e-06
-0.00924693
8.74045e-06
-0.00980575
8.86542e-06
-0.010366
8.71584e-06
-0.0109239
8.33067e-06
-0.0114848
7.51985e-06
-0.0120411
6.4562e-06
-0.0126032
4.76004e-06
-0.0131572
2.81629e-06
-0.000280443
-0.000841351
5.80702e-08
-0.00140223
2.3174e-07
-0.00196317
5.17253e-07
-0.00252395
9.09859e-07
-0.00308488
1.39881e-06
-0.00364551
1.97671e-06
-0.00420631
2.62511e-06
-0.00476682
3.33551e-06
-0.00532734
4.082e-06
-0.00588772
4.85413e-06
-0.00644791
5.61779e-06
-0.00700808
6.35645e-06
-0.00756792
7.02819e-06
-0.00812786
7.61392e-06
-0.00868718
8.07761e-06
-0.00924705
8.37726e-06
-0.0098056
8.49841e-06
-0.0103657
8.35115e-06
-0.0109231
7.98417e-06
-0.0114837
7.19766e-06
-0.0120394
6.19758e-06
-0.0126013
4.56288e-06
-0.0131544
2.73901e-06
-0.000280501
-0.000841524
5.53573e-08
-0.00140251
2.20895e-07
-0.00196357
4.93023e-07
-0.00252444
8.67227e-07
-0.00308546
1.33321e-06
-0.00364616
1.88404e-06
-0.00420702
2.50177e-06
-0.00476756
3.17845e-06
-0.00532811
3.88938e-06
-0.00588848
4.62496e-06
-0.00644865
5.35292e-06
-0.00700875
6.05664e-06
-0.0075685
6.69664e-06
-0.00812833
7.25417e-06
-0.00868748
7.69891e-06
-0.00924717
7.98478e-06
-0.00980545
8.10343e-06
-0.0103653
7.95803e-06
-0.0109223
7.61092e-06
-0.0114827
6.84537e-06
-0.0120377
5.89761e-06
-0.0125995
4.32359e-06
-0.0131517
2.65805e-06
-0.000280556
-0.00084169
5.24053e-08
-0.00140278
2.09096e-07
-0.00196394
4.66692e-07
-0.0025249
8.20953e-07
-0.00308601
1.2621e-06
-0.00364678
1.7837e-06
-0.0042077
2.36834e-06
-0.00476828
3.00863e-06
-0.00532884
3.68118e-06
-0.0058892
4.37724e-06
-0.00644935
5.0665e-06
-0.00700939
5.73229e-06
-0.00756906
6.33782e-06
-0.00812878
6.86451e-06
-0.00868776
7.2884e-06
-0.0092473
7.55895e-06
-0.00980531
7.67555e-06
-0.0103649
7.53412e-06
-0.0109216
7.21595e-06
-0.0114818
6.47734e-06
-0.0120362
5.56984e-06
-0.0125978
4.04618e-06
-0.013149
2.45685e-06
-0.000280609
-0.000841846
4.91915e-08
-0.00140304
1.96258e-07
-0.00196429
4.38067e-07
-0.00252535
7.70714e-07
-0.00308653
1.18498e-06
-0.00364737
1.67502e-06
-0.00420834
2.22403e-06
-0.00476895
2.82517e-06
-0.00532954
3.45652e-06
-0.00588989
4.11006e-06
-0.00645001
4.75772e-06
-0.00701
5.38254e-06
-0.00756959
5.95136e-06
-0.0081292
6.44449e-06
-0.00868802
6.84561e-06
-0.00924742
7.09739e-06
-0.00980519
7.21073e-06
-0.0103646
7.07238e-06
-0.0109208
6.79406e-06
-0.0114809
6.09703e-06
-0.0120346
5.25219e-06
-0.0125962
4.10699e-06
-0.0131465
2.28626e-06
-0.000280658
-0.000841993
4.56992e-08
-0.00140328
1.82314e-07
-0.00196463
4.07001e-07
-0.00252576
7.16224e-07
-0.00308702
1.10139e-06
-0.00364792
1.55736e-06
-0.00420894
2.068e-06
-0.00476958
2.62709e-06
-0.00533019
3.21439e-06
-0.00589053
3.82232e-06
-0.00645063
4.42546e-06
-0.00701057
5.00618e-06
-0.00757009
5.53644e-06
-0.0081296
5.99352e-06
-0.00868827
6.37065e-06
-0.00924754
6.60002e-06
-0.00980506
6.7094e-06
-0.0103643
6.56928e-06
-0.0109201
6.32699e-06
-0.01148
5.68039e-06
-0.0120331
4.97278e-06
-0.0125948
3.6257e-06
-0.0131442
2.16442e-06
-0.000280704
-0.00084213
4.19232e-08
-0.00140351
1.67242e-07
-0.00196494
3.73417e-07
-0.00252614
6.57322e-07
-0.00308748
1.01102e-06
-0.00364843
1.43021e-06
-0.0042095
1.89954e-06
-0.00477017
2.41351e-06
-0.0053308
2.95379e-06
-0.00589113
3.51285e-06
-0.00645121
4.06857e-06
-0.00701111
4.60178e-06
-0.00757055
5.09178e-06
-0.00812998
5.51016e-06
-0.00868849
5.86272e-06
-0.00924766
6.06646e-06
-0.00980492
6.17752e-06
-0.0103641
6.03399e-06
-0.0109194
5.81355e-06
-0.0114793
5.19686e-06
-0.0120317
4.59844e-06
-0.0125934
3.32125e-06
-0.0131421
1.98448e-06
-0.000280746
-0.000842255
3.78771e-08
-0.00140371
1.51081e-07
-0.00196522
3.37362e-07
-0.0025265
5.9401e-07
-0.00308789
9.13805e-07
-0.0036489
1.29338e-06
-0.00421002
1.71831e-06
-0.00477071
2.18391e-06
-0.00533135
2.67405e-06
-0.00589169
3.18074e-06
-0.00645174
3.68613e-06
-0.0070116
4.16817e-06
-0.00757097
4.61654e-06
-0.00813033
4.99293e-06
-0.00868869
5.32033e-06
-0.00924778
5.49374e-06
-0.00980476
5.61662e-06
-0.0103639
5.47711e-06
-0.0109188
5.2918e-06
-0.0114787
5.11093e-06
-0.0120305
4.05905e-06
-0.012592
3.00931e-06
-0.0131401
1.7931e-06
-0.000280783
-0.000842368
3.35887e-08
-0.0014039
1.33918e-07
-0.00196548
2.9898e-07
-0.00252682
5.26506e-07
-0.00308827
8.09952e-07
-0.00364932
1.14712e-06
-0.00421049
1.52456e-06
-0.0047712
1.93845e-06
-0.00533186
2.37508e-06
-0.00589219
2.82542e-06
-0.00645223
3.27772e-06
-0.00701206
3.70475e-06
-0.00757135
4.11113e-06
-0.00813066
4.44147e-06
-0.00868887
4.74523e-06
-0.00924791
4.88099e-06
-0.00980461
5.01975e-06
-0.0103637
4.88865e-06
-0.0109182
4.81158e-06
-0.0114782
4.33793e-06
-0.0120294
3.66373e-06
-0.0125908
2.72697e-06
-0.0131383
1.61357e-06
-0.000280817
-0.000842469
2.9074e-08
-0.00140406
1.15828e-07
-0.0019657
2.58444e-07
-0.0025271
4.55109e-07
-0.00308861
6.99915e-07
-0.0036497
9.92083e-07
-0.0042109
1.31921e-06
-0.00477164
1.67817e-06
-0.00533231
2.05781e-06
-0.00589264
2.44725e-06
-0.00645265
2.84411e-06
-0.00701247
3.21146e-06
-0.00757168
3.57809e-06
-0.00813097
3.85648e-06
-0.00868901
4.14495e-06
-0.00924804
4.23512e-06
-0.00980447
4.39664e-06
-0.0103636
4.63436e-06
-0.0109176
4.11442e-06
-0.0114776
3.74542e-06
-0.0120285
3.20112e-06
-0.0125897
2.39417e-06
-0.0131367
1.41637e-06
-0.000280846
-0.000842555
2.42924e-08
-0.00140421
9.68064e-08
-0.0019659
2.15892e-07
-0.00252734
3.80241e-07
-0.0030889
5.84476e-07
-0.00365002
8.29415e-07
-0.00421126
1.10371e-06
-0.00477201