/*--------------------------------*- C++ -*----------------------------------*\
  =========                 |
  \\      /  F ield         | OpenFOAM: The Open Source CFD Toolbox
   \\    /   O peration     | Website:  https://openfoam.org
    \\  /    A nd           | Version:  10
     \\/     M anipulation  |
\*---------------------------------------------------------------------------*/
FoamFile
{
    format      ascii;
    class       volScalarField;
    location    "0.5";
    object      rho;
}
// * * * * * * * * * * * * * * * * * * * * * * * * * * * * * * * * * * * * * //

dimensions      [1 -3 0 0 0 0 0];

internalField   nonuniform List<scalar> 
4176
(
0.0308487
0.0308517
0.0308578
0.0308684
0.0308813
0.0308978
0.0309186
0.0309402
0.0309693
0.0309956
0.0310323
0.0310648
0.0311069
0.0311475
0.0311924
0.0312441
0.031287
0.0313548
0.0313934
0.0314789
0.0315107
0.0316159
0.0316366
0.0317502
0.0308567
0.0308596
0.0308648
0.0308748
0.0308857
0.0309016
0.0309191
0.03094
0.0309649
0.0309899
0.031022
0.0310523
0.0310899
0.031127
0.031168
0.0312143
0.031254
0.0313143
0.03135
0.0314265
0.0314539
0.0315541
0.0315751
0.0317035
0.030876
0.0308789
0.0308844
0.0308947
0.0309062
0.0309224
0.0309409
0.0309622
0.0309884
0.031014
0.0310477
0.0310787
0.0311183
0.0311562
0.0311994
0.031247
0.031289
0.0313519
0.0313877
0.031468
0.0314956
0.0315944
0.0316136
0.0317342
0.0309047
0.0309076
0.0309129
0.0309229
0.030934
0.0309499
0.0309678
0.0309884
0.0310141
0.0310388
0.031072
0.0311016
0.0311408
0.0311769
0.0312199
0.0312656
0.0313073
0.0313703
0.0314014
0.0314841
0.0315093
0.0316069
0.0316248
0.0317365
0.0309441
0.030947
0.0309523
0.0309624
0.0309734
0.0309894
0.0310072
0.031028
0.0310534
0.0310784
0.0311112
0.0311412
0.0311801
0.0312165
0.0312595
0.0313046
0.0313483
0.0314082
0.0314429
0.0315235
0.0315503
0.0316475
0.0316669
0.0317802
0.0309936
0.0309965
0.0310016
0.0310117
0.0310225
0.0310383
0.0310557
0.0310764
0.0311013
0.0311261
0.0311583
0.0311881
0.0312263
0.0312623
0.0313048
0.031349
0.031393
0.03145
0.031488
0.0315647
0.0315924
0.0316884
0.0317086
0.0318235
0.0310535
0.0310564
0.0310615
0.0310715
0.0310821
0.0310979
0.0311151
0.0311356
0.0311603
0.0311849
0.0312168
0.0312463
0.0312842
0.0313197
0.0313621
0.0314055
0.0314498
0.0315052
0.0315441
0.0316189
0.0316478
0.0317422
0.0317627
0.0318756
0.0311237
0.0311265
0.0311315
0.0311414
0.0311519
0.0311676
0.0311845
0.0312048
0.0312291
0.0312534
0.0312849
0.031314
0.0313516
0.0313865
0.0314286
0.0314711
0.0315154
0.0315689
0.031609
0.0316812
0.0317113
0.0318039
0.031825
0.0319366
0.0312042
0.031207
0.0312119
0.0312218
0.0312321
0.0312476
0.0312643
0.0312844
0.0313084
0.0313324
0.0313635
0.0313922
0.0314294
0.0314637
0.0315055
0.0315471
0.0315915
0.0316433
0.0316841
0.031754
0.031785
0.0318757
0.0318972
0.0320071
0.031295
0.0312978
0.0313027
0.0313124
0.0313226
0.0313379
0.0313544
0.0313743
0.0313979
0.0314216
0.0314523
0.0314805
0.0315172
0.0315509
0.0315923
0.031633
0.0316773
0.0317274
0.0317689
0.0318364
0.0318683
0.0319568
0.0319788
0.0320868
0.0313963
0.0313991
0.0314038
0.0314135
0.0314235
0.0314387
0.0314548
0.0314745
0.0314977
0.0315211
0.0315513
0.0315791
0.0316153
0.0316484
0.0316893
0.0317291
0.0317731
0.0318218
0.0318638
0.0319289
0.0319619
0.0320473
0.03207
0.0321761
0.031508
0.0315108
0.0315155
0.031525
0.0315348
0.0315498
0.0315657
0.0315851
0.0316079
0.0316309
0.0316607
0.0316879
0.0317237
0.031756
0.0317965
0.0318353
0.031879
0.0319262
0.0319685
0.0320313
0.0320648
0.032148
0.0321708
0.0322749
0.0316303
0.0316331
0.0316376
0.0316471
0.0316567
0.0316714
0.031687
0.0317061
0.0317285
0.0317511
0.0317804
0.0318072
0.0318423
0.031874
0.0319139
0.0319517
0.031995
0.0320407
0.0320833
0.0321437
0.0321779
0.0322584
0.0322813
0.0323832
0.0317632
0.031766
0.0317704
0.0317798
0.0317891
0.0318037
0.0318189
0.0318376
0.0318596
0.0318818
0.0319106
0.0319367
0.0319713
0.0320022
0.0320416
0.0320783
0.0321211
0.0321654
0.0322081
0.0322661
0.0323007
0.0323789
0.0324017
0.0325012
0.0319068
0.0319096
0.0319139
0.0319231
0.0319322
0.0319465
0.0319614
0.0319798
0.0320013
0.032023
0.0320512
0.0320768
0.0321108
0.0321409
0.0321796
0.0322153
0.0322576
0.0323003
0.032343
0.0323986
0.0324337
0.0325091
0.032532
0.032629
0.0320612
0.0320639
0.0320682
0.0320772
0.0320861
0.0321001
0.0321146
0.0321326
0.0321537
0.0321748
0.0322025
0.0322274
0.0322607
0.03229
0.032328
0.0323626
0.0324043
0.0324455
0.0324881
0.0325412
0.0325767
0.0326492
0.0326726
0.0327667
0.0322265
0.0322292
0.0322333
0.0322422
0.0322508
0.0322646
0.0322786
0.0322963
0.0323168
0.0323374
0.0323644
0.0323885
0.0324212
0.0324496
0.0324869
0.0325204
0.0325614
0.0326011
0.0326433
0.0326941
0.0327299
0.0327994
0.0328232
0.0329144
0.0324028
0.0324054
0.0324094
0.0324181
0.0324265
0.0324399
0.0324536
0.0324708
0.0324907
0.0325107
0.032537
0.0325605
0.0325923
0.0326198
0.0326563
0.0326886
0.0327289
0.0327671
0.0328089
0.0328572
0.0328934
0.0329599
0.0329841
0.0330721
0.0325902
0.0325928
0.0325966
0.0326051
0.0326132
0.0326263
0.0326395
0.0326562
0.0326756
0.032695
0.0327206
0.0327432
0.0327742
0.0328007
0.0328363
0.0328674
0.032907
0.0329436
0.0329849
0.0330307
0.0330671
0.0331306
0.0331551
0.03324
0.0327887
0.0327913
0.032795
0.0328033
0.032811
0.0328238
0.0328366
0.0328528
0.0328715
0.0328902
0.0329151
0.0329368
0.032967
0.0329924
0.0330271
0.0330569
0.0330956
0.0331306
0.0331713
0.0332147
0.0332512
0.0333116
0.0333365
0.0334181
0.0329986
0.0330011
0.0330047
0.0330128
0.0330202
0.0330326
0.0330448
0.0330605
0.0330785
0.0330966
0.0331206
0.0331415
0.0331707
0.0331951
0.0332288
0.0332573
0.033295
0.0333283
0.0333683
0.0334094
0.0334459
0.033503
0.0335282
0.0336065
0.0332199
0.0332224
0.0332257
0.0332336
0.0332407
0.0332527
0.0332644
0.0332795
0.0332968
0.0333141
0.0333373
0.0333573
0.0333856
0.0334088
0.0334415
0.0334686
0.0335052
0.0335368
0.0335759
0.0336147
0.033651
0.0337051
0.0337304
0.0338053
0.0334527
0.0334551
0.0334583
0.033466
0.0334726
0.0334842
0.0334953
0.0335098
0.0335264
0.0335429
0.0335653
0.0335843
0.0336116
0.0336336
0.0336652
0.0336909
0.0337265
0.0337563
0.0337945
0.0338309
0.033867
0.0339176
0.0339431
0.0340146
0.0336971
0.0336995
0.0337025
0.0337099
0.0337161
0.0337273
0.0337378
0.0337517
0.0337675
0.0337832
0.0338046
0.0338226
0.0338489
0.0338697
0.0339002
0.0339244
0.0339589
0.0339868
0.034024
0.0340581
0.0340937
0.0341412
0.0341665
0.0342344
0.0339532
0.0339555
0.0339583
0.0339655
0.0339713
0.033982
0.0339919
0.0340051
0.0340202
0.034035
0.0340555
0.0340724
0.0340976
0.0341172
0.0341465
0.0341692
0.0342025
0.0342286
0.0342647
0.0342964
0.0343316
0.0343756
0.0344008
0.0344649
0.034221
0.0342233
0.0342259
0.0342328
0.0342382
0.0342485
0.0342577
0.0342703
0.0342845
0.0342985
0.0343179
0.0343338
0.0343578
0.0343761
0.0344042
0.0344254
0.0344574
0.0344817
0.0345166
0.0345459
0.0345804
0.0346212
0.0346462
0.0347064
0.0345007
0.0345029
0.0345053
0.034512
0.034517
0.0345267
0.0345354
0.0345472
0.0345606
0.0345737
0.0345921
0.0346068
0.0346297
0.0346467
0.0346735
0.0346931
0.0347238
0.0347462
0.0347799
0.0348069
0.0348406
0.0348778
0.034903
0.0349592
0.0347923
0.0347945
0.0347967
0.0348031
0.0348077
0.034817
0.0348249
0.0348361
0.0348486
0.0348607
0.0348782
0.0348917
0.0349134
0.034929
0.0349545
0.0349724
0.0350018
0.0350223
0.0350547
0.0350793
0.035112
0.0351459
0.035171
0.035223
0.0350959
0.0350981
0.0351001
0.0351062
0.0351103
0.0351192
0.0351265
0.035137
0.0351486
0.0351598
0.0351762
0.0351885
0.035209
0.0352231
0.0352473
0.0352635
0.0352916
0.0353101
0.0353412
0.0353634
0.0353951
0.0354253
0.0354501
0.0354986
0.0354117
0.0354138
0.0354156
0.0354215
0.0354251
0.0354335
0.0354401
0.0354499
0.0354607
0.0354709
0.0354862
0.0354974
0.0355166
0.0355293
0.0355521
0.0355666
0.0355932
0.0356097
0.0356394
0.0356592
0.0356898
0.0357166
0.0357412
0.0357851
0.0357397
0.0357418
0.0357434
0.0357489
0.0357521
0.03576
0.035766
0.035775
0.0357849
0.0357942
0.0358084
0.0358184
0.0358364
0.0358477
0.0358691
0.0358818
0.0359069
0.0359213
0.0359495
0.0359669
0.0359964
0.0360197
0.0360443
0.0360834
0.03608
0.036082
0.0360834
0.0360886
0.0360914
0.0360988
0.0361041
0.0361124
0.0361214
0.0361297
0.0361429
0.0361517
0.0361685
0.0361782
0.0361983
0.0362092
0.0362329
0.0362452
0.0362718
0.0362867
0.0363148
0.036335
0.0363593
0.0363938
0.0364327
0.0364346
0.0364358
0.0364408
0.0364431
0.03645
0.0364546
0.0364622
0.0364703
0.0364777
0.0364897
0.0364974
0.0365129
0.0365212
0.0365398
0.036549
0.0365712
0.0365813
0.0366064
0.0366188
0.0366455
0.0366624
0.0366863
0.0367163
0.0367978
0.0367997
0.0368007
0.0368054
0.0368073
0.0368136
0.0368175
0.0368244
0.0368316
0.036838
0.036849
0.0368555
0.0368697
0.0368766
0.0368938
0.0369013
0.036922
0.03693
0.0369536
0.0369633
0.0369885
0.0370021
0.0370257
0.037051
0.0371755
0.0371774
0.0371781
0.0371826
0.037184
0.0371899
0.0371931
0.0371993
0.0372056
0.037211
0.0372209
0.0372261
0.0372392
0.0372445
0.0372604
0.0372661
0.0372854
0.0372912
0.0373133
0.0373205
0.0373442
0.0373545
0.0373775
0.037398
0.0375659
0.0375677
0.0375682
0.0375724
0.0375734
0.0375788
0.0375814
0.0375868
0.0375922
0.0375967
0.0376056
0.0376095
0.0376213
0.0376252
0.0376397
0.0376436
0.0376614
0.0376652
0.0376857
0.0376904
0.0377126
0.0377197
0.0377417
0.0377576
0.037969
0.0379708
0.0379711
0.037975
0.0379755
0.0379805
0.0379824
0.0379872
0.0379917
0.0379953
0.038003
0.0380058
0.0380163
0.0380187
0.0380317
0.0380338
0.0380502
0.0380518
0.0380709
0.038073
0.0380939
0.0380979
0.0381187
0.0381298
0.0383849
0.0383867
0.0383868
0.0383905
0.0383906
0.0383951
0.0383963
0.0384004
0.0384041
0.0384067
0.0384134
0.038415
0.0384242
0.0384251
0.0384368
0.0384371
0.0384519
0.0384514
0.0384689
0.0384685
0.0384881
0.0384888
0.0385087
0.0385148
0.0388139
0.0388156
0.0388155
0.038819
0.0388186
0.0388227
0.0388233
0.0388267
0.0388295
0.0388312
0.0388368
0.0388372
0.0388452
0.0388447
0.0388549
0.0388533
0.0388667
0.0388639
0.03888
0.0388768
0.0388951
0.0388928
0.0389116
0.0389132
0.0392559
0.0392576
0.0392573
0.0392605
0.0392597
0.0392634
0.0392633
0.0392661
0.039268
0.0392688
0.0392734
0.0392726
0.0392794
0.0392774
0.0392862
0.0392828
0.0392947
0.0392896
0.0393043
0.0392983
0.0393153
0.0393096
0.0393275
0.0393248
0.0397112
0.0397128
0.0397123
0.0397153
0.0397141
0.0397173
0.0397166
0.0397187
0.0397198
0.0397197
0.0397232
0.0397213
0.0397268
0.0397234
0.0397309
0.0397256
0.0397361
0.0397287
0.0397419
0.0397331
0.0397487
0.0397397
0.0397562
0.0397499
0.0401798
0.0401814
0.0401807
0.0401835
0.0401818
0.0401846
0.0401832
0.0401846
0.0401849
0.0401839
0.0401864
0.0401832
0.0401876
0.0401826
0.0401889
0.0401818
0.0401908
0.0401811
0.0401931
0.0401814
0.0401958
0.0401831
0.0401986
0.0401879
0.040662
0.0406635
0.0406626
0.0406652
0.040663
0.0406653
0.0406633
0.040664
0.0406634
0.0406615
0.0406629
0.0406586
0.0406618
0.0406554
0.0406603
0.0406513
0.0406591
0.040647
0.0406578
0.0406431
0.0406564
0.0406402
0.0406546
0.0406393
0.0411577
0.0411592
0.0411581
0.0411604
0.0411578
0.0411597
0.0411569
0.041157
0.0411555
0.0411527
0.041153
0.0411476
0.0411495
0.0411416
0.0411453
0.0411344
0.0411408
0.0411265
0.0411361
0.0411185
0.0411308
0.0411108
0.0411247
0.0411045
0.0416671
0.0416685
0.0416672
0.0416693
0.0416662
0.0416677
0.0416642
0.0416637
0.0416613
0.0416575
0.0416568
0.0416502
0.0416508
0.0416415
0.0416438
0.0416311
0.0416362
0.0416195
0.0416279
0.0416075
0.0416187
0.0415952
0.0416084
0.0415839
0.0421902
0.0421916
0.0421901
0.0421919
0.0421884
0.0421894
0.0421853
0.042184
0.0421807
0.0421761
0.0421743
0.0421664
0.0421658
0.042155
0.042156
0.0421414
0.0421452
0.0421263
0.0421333
0.0421101
0.0421204
0.0420929
0.0421061
0.0420765
0.0427272
0.0427285
0.0427268
0.0427284
0.0427244
0.042725
0.0427201
0.0427182
0.042714
0.0427084
0.0427055
0.0426965
0.0426947
0.0426824
0.0426821
0.0426656
0.042668
0.0426468
0.0426525
0.0426264
0.0426359
0.0426045
0.0426178
0.0425828
0.043278
0.0432793
0.0432774
0.0432787
0.0432743
0.0432744
0.0432688
0.0432662
0.0432611
0.0432546
0.0432507
0.0432404
0.0432374
0.0432235
0.043222
0.0432035
0.0432048
0.0431811
0.0431857
0.0431563
0.0431653
0.0431297
0.0431432
0.0431033
0.0438426
0.0438439
0.0438418
0.0438429
0.0438379
0.0438376
0.0438313
0.0438281
0.0438221
0.0438146
0.0438096
0.0437981
0.0437939
0.0437786
0.0437757
0.0437553
0.0437554
0.0437292
0.0437329
0.0437001
0.0437087
0.0436685
0.0436828
0.0436377
0.044421
0.0444223
0.04442
0.0444209
0.0444154
0.0444147
0.0444077
0.0444038
0.0443969
0.0443885
0.0443825
0.0443698
0.0443644
0.0443475
0.0443434
0.0443209
0.0443201
0.0442911
0.0442942
0.0442578
0.0442666
0.0442214
0.0442359
0.044186
0.0450132
0.0450145
0.045012
0.0450126
0.0450067
0.0450056
0.0449979
0.0449933
0.0449856
0.0449762
0.0449692
0.0449552
0.0449488
0.0449303
0.0449251
0.0449005
0.0448987
0.0448669
0.0448696
0.0448295
0.0448385
0.0447885
0.0448032
0.0447486
0.0456191
0.0456203
0.0456176
0.045618
0.0456117
0.0456101
0.0456018
0.0455966
0.045588
0.0455777
0.0455698
0.0455545
0.0455471
0.0455268
0.0455208
0.0454939
0.0454915
0.0454566
0.0454592
0.0454146
0.0454245
0.0453703
0.0453843
0.0453255
0.0462385
0.0462397
0.0462368
0.046237
0.0462303
0.0462283
0.0462194
0.0462135
0.0462041
0.0461929
0.0461841
0.0461675
0.0461593
0.0461371
0.0461305
0.046101
0.0460984
0.0460602
0.0460632
0.0460143
0.0460238
0.0459662
0.0459797
0.0459165
0.0468714
0.0468725
0.0468695
0.0468695
0.0468623
0.04686
0.0468504
0.046844
0.0468338
0.0468216
0.0468121
0.0467941
0.0467852
0.046761
0.0467542
0.0467218
0.0467195
0.0466771
0.0466811
0.0466285
0.0466373
0.0465764
0.0465892
0.046522
0.0475175
0.0475186
0.0475153
0.0475152
0.0475076
0.047505
0.0474948
0.0474878
0.047477
0.0474638
0.0474537
0.0474341
0.0474251
0.0473984
0.047392
0.0473561
0.0473547
0.0473089
0.0473117
0.0472571
0.0472645
0.0472009
0.0472128
0.0471417
0.0481765
0.0481777
0.0481743
0.048174
0.048166
0.0481631
0.0481523
0.0481448
0.0481334
0.0481191
0.0481089
0.0480873
0.0480787
0.0480492
0.0480434
0.0480045
0.0480024
0.0479547
0.0479567
0.0478997
0.047906
0.0478394
0.0478506
0.0477757
0.0488484
0.0488497
0.048846
0.0488458
0.0488373
0.0488342
0.0488228
0.0488147
0.0488032
0.0487873
0.0487776
0.0487535
0.0487456
0.0487136
0.0487074
0.0486673
0.0486639
0.0486148
0.048615
0.0485561
0.0485613
0.0484921
0.0485025
0.048424
0.0495329
0.0495343
0.0495302
0.0495302
0.0495212
0.0495181
0.0495061
0.0494973
0.0494859
0.0494686
0.0494589
0.0494336
0.0494247
0.0493921
0.0493845
0.0493435
0.0493387
0.0492881
0.0492874
0.0492265
0.0492305
0.0491588
0.0491684
0.0490865
0.0502299
0.0502313
0.0502269
0.0502271
0.0502173
0.0502146
0.0502018
0.0501929
0.0501808
0.0501631
0.0501526
0.0501267
0.0501169
0.0500835
0.0500749
0.0500329
0.050027
0.0499751
0.0499731
0.0499105
0.0499134
0.0498393
0.0498483
0.0497631
0.050939
0.0509404
0.0509361
0.050936
0.0509262
0.0509231
0.0509097
0.0509014
0.050888
0.0508703
0.0508589
0.0508325
0.050822
0.0507879
0.0507781
0.0507355
0.0507283
0.0506754
0.0506721
0.050608
0.05061
0.0505337
0.0505417
0.0504536
0.0516601
0.0516616
0.0516573
0.051657
0.0516471
0.0516438
0.05163
0.0516219
0.051607
0.0515902
0.0515774
0.0515509
0.0515396
0.0515049
0.0514942
0.0514508
0.0514426
0.0513887
0.0513845
0.0513188
0.0513197
0.0512414
0.0512489
0.0511578
0.0523931
0.0523946
0.0523902
0.0523899
0.05238
0.0523766
0.0523625
0.0523543
0.0523384
0.0523223
0.0523078
0.0522821
0.0522695
0.0522344
0.0522229
0.0521788
0.0521696
0.0521149
0.0521095
0.0520425
0.0520427
0.0519624
0.0519691
0.0518754
0.0531378
0.0531393
0.053135
0.0531346
0.0531245
0.0531211
0.0531067
0.0530985
0.053082
0.0530662
0.0530504
0.0530253
0.053011
0.0529764
0.052964
0.0529191
0.052909
0.0528536
0.0528471
0.0527791
0.0527781
0.0526964
0.0527023
0.0526062
0.0538941
0.0538957
0.0538914
0.0538911
0.0538808
0.0538774
0.0538627
0.0538545
0.0538375
0.0538219
0.0538052
0.0537804
0.053765
0.0537302
0.053717
0.0536714
0.0536605
0.0536042
0.053597
0.0535279
0.0535262
0.0534429
0.0534481
0.0533498
0.0546622
0.0546639
0.0546594
0.0546592
0.0546488
0.0546453
0.0546304
0.0546222
0.0546047
0.0545893
0.0545716
0.054547
0.0545305
0.0544959
0.0544817
0.0544354
0.054424
0.054367
0.0543585
0.0542889
0.054286
0.0542015
0.054206
0.0541058
0.0554419
0.0554436
0.0554392
0.055439
0.0554284
0.0554249
0.0554097
0.0554014
0.0553834
0.0553681
0.0553496
0.0553251
0.0553078
0.0552727
0.0552578
0.055211
0.0551988
0.0551408
0.0551319
0.0550614
0.0550576
0.0549719
0.0549757
0.0548738
0.0562334
0.0562352
0.0562306
0.0562304
0.0562196
0.0562161
0.0562005
0.056192
0.0561736
0.0561582
0.0561388
0.0561143
0.056096
0.0560607
0.0560449
0.0559976
0.055985
0.0559261
0.0559161
0.055845
0.0558402
0.0557537
0.0557567
0.0556534
0.0570365
0.0570383
0.0570336
0.0570334
0.0570222
0.0570186
0.0570026
0.0569939
0.0569749
0.0569593
0.0569388
0.0569145
0.056895
0.0568595
0.0568429
0.056795
0.0567816
0.0567219
0.0567114
0.0566393
0.0566338
0.0565464
0.0565487
0.0564442
0.0578509
0.0578529
0.0578479
0.0578476
0.0578361
0.0578322
0.0578157
0.0578066
0.0577869
0.057771
0.0577494
0.0577252
0.0577042
0.0576688
0.057651
0.0576025
0.0575887
0.0575283
0.0575168
0.0574441
0.0574377
0.0573498
0.0573513
0.0572458
0.0586763
0.0586783
0.0586731
0.0586726
0.0586607
0.0586564
0.0586393
0.0586297
0.0586093
0.0585929
0.0585701
0.0585461
0.0585233
0.0584885
0.0584689
0.0584205
0.0584055
0.0583446
0.0583325
0.0582589
0.058252
0.0581635
0.0581643
0.0580581
0.0595114
0.0595134
0.0595081
0.0595073
0.0594951
0.0594902
0.0594727
0.0594624
0.0594413
0.0594243
0.0594006
0.0593765
0.0593519
0.0593177
0.0592959
0.0592486
0.059232
0.0591707
0.0591581
0.059084
0.0590763
0.0589875
0.0589876
0.0588809
0.0603547
0.0603567
0.0603514
0.0603503
0.0603378
0.0603326
0.0603146
0.0603039
0.0602822
0.0602647
0.0602402
0.060216
0.0601898
0.0601564
0.0601322
0.0600862
0.0600675
0.0600065
0.0599934
0.0599192
0.0599107
0.0598216
0.0598213
0.0597142
0.0612042
0.0612062
0.0612009
0.0611997
0.0611872
0.0611819
0.0611638
0.0611528
0.0611309
0.0611131
0.0610881
0.0610639
0.0610365
0.061004
0.0609776
0.0609333
0.060912
0.0608529
0.0608382
0.0607643
0.0607552
0.0606662
0.0606654
0.0605583
0.0620576
0.0620597
0.0620546
0.0620536
0.0620413
0.0620363
0.0620184
0.0620078
0.0619861
0.0619685
0.0619437
0.0619197
0.061892
0.0618602
0.0618326
0.0617897
0.0617666
0.0617089
0.0616928
0.0616195
0.06161
0.0615214
0.0615204
0.0614133
0.062913
0.0629152
0.0629105
0.06291
0.0628984
0.062894
0.062877
0.0628673
0.0628464
0.0628299
0.0628058
0.0627829
0.0627554
0.062725
0.0626967
0.0626557
0.0626306
0.0625755
0.0625577
0.0624854
0.0624757
0.0623875
0.0623863
0.0622797
0.0637695
0.0637719
0.0637678
0.0637681
0.0637574
0.0637543
0.0637385
0.0637303
0.063711
0.0636961
0.0636736
0.0636524
0.0636263
0.0635976
0.06357
0.0635311
0.0635056
0.0634525
0.0634332
0.0633629
0.0633526
0.0632647
0.0632637
0.0631573
0.0646281
0.0646308
0.0646272
0.0646285
0.0646189
0.0646173
0.0646032
0.0645968
0.0645796
0.0645669
0.0645465
0.0645278
0.0645037
0.0644776
0.0644516
0.0644154
0.0643906
0.0643403
0.0643208
0.064252
0.0642417
0.0641536
0.0641528
0.0640464
0.0654919
0.065495
0.0654919
0.0654942
0.0654856
0.0654855
0.0654729
0.0654685
0.0654533
0.0654429
0.0654249
0.0654089
0.0653873
0.0653641
0.0653408
0.0653074
0.0652847
0.0652379
0.065219
0.0651533
0.0651435
0.0650555
0.0650549
0.0649475
0.0663666
0.0663702
0.0663672
0.0663705
0.0663622
0.0663636
0.0663517
0.0663491
0.0663351
0.0663269
0.0663106
0.0662972
0.0662776
0.0662572
0.0662371
0.0662057
0.0661875
0.0661413
0.0661281
0.0660626
0.0660574
0.0659704
0.0659709
0.0658629
0.06726
0.0672644
0.0672605
0.0672652
0.0672556
0.0672589
0.0672454
0.0672451
0.0672297
0.0672239
0.0672073
0.0671958
0.0671772
0.0671581
0.0671423
0.0671082
0.0670996
0.0670481
0.0670452
0.0669773
0.0669789
0.0668944
0.0668986
0.0667961
0.0681814
0.0681853
0.0681822
0.068185
0.0681765
0.068177
0.0681648
0.0681614
0.0681471
0.0681386
0.0681224
0.0681097
0.0680904
0.0680733
0.0680546
0.0680235
0.0680146
0.067965
0.0679636
0.0678979
0.0679029
0.0678202
0.0678292
0.0677344
0.0691391
0.0691427
0.069139
0.0691408
0.0691308
0.0691297
0.0691152
0.0691096
0.0690927
0.0690815
0.0690625
0.069047
0.069025
0.069006
0.0689827
0.0689548
0.0689383
0.0688926
0.0688887
0.0688226
0.0688296
0.0687453
0.0687577
0.0686632
0.0701395
0.0701429
0.0701383
0.0701388
0.0701268
0.0701233
0.0701058
0.0700968
0.0700758
0.0700604
0.0700368
0.0700165
0.0699894
0.0699655
0.0699362
0.0699052
0.0698816
0.0698353
0.0698261
0.0697566
0.0697638
0.0696745
0.0696891
0.0695905
0.0711861
0.0711897
0.0711837
0.0711832
0.0711686
0.0711628
0.0711416
0.0711291
0.0711032
0.0710831
0.0710532
0.0710271
0.0709927
0.0709621
0.0709246
0.0708865
0.0708548
0.070801
0.0707849
0.0707071
0.0707117
0.0706137
0.0706291
0.0705221
0.0722789
0.072283
0.0722752
0.0722743
0.0722571
0.0722496
0.0722244
0.0722095
0.0721775
0.0721548
0.0721164
0.0720866
0.0720423
0.072005
0.0719581
0.0719102
0.07187
0.0718009
0.0717788
0.0716864
0.0716838
0.0715725
0.0715852
0.0714645
0.0734145
0.073418
0.0734108
0.0734076
0.0733903
0.0733797
0.0733537
0.0733341
0.0733012
0.0732713
0.0732317
0.073193
0.0731453
0.0730992
0.0730436
0.0729896
0.0729318
0.0728582
0.0728177
0.0727133
0.0726958
0.0725657
0.0725703
0.0724277
0.0745864
0.0745896
0.0745824
0.0745786
0.0745606
0.074549
0.0745215
0.0745004
0.0744653
0.0744331
0.0743905
0.0743484
0.0742966
0.0742455
0.0741841
0.0741235
0.0740542
0.07398
0.0739121
0.0738093
0.0737655
0.0736181
0.0736058
0.0734302
0.0757865
0.0757897
0.0757825
0.0757787
0.0757603
0.0757485
0.0757207
0.075699
0.0756633
0.0756302
0.0755866
0.0755431
0.0754896
0.0754365
0.0753727
0.0753088
0.0752357
0.0751573
0.0750786
0.0749783
0.0749046
0.0747601
0.0747209
0.0745077
0.0770061
0.0770093
0.0770024
0.0769989
0.0769808
0.0769694
0.0769418
0.0769206
0.0768853
0.0768527
0.0768095
0.0767664
0.0767135
0.0766607
0.0765973
0.0765338
0.0764609
0.0763827
0.0763038
0.0762046
0.0761251
0.0759889
0.0759319
0.0757071
0.0782366
0.0782401
0.0782334
0.0782305
0.078213
0.0782025
0.0781757
0.0781557
0.0781214
0.0780902
0.0780484
0.0780072
0.077956
0.0779054
0.0778442
0.0777832
0.0777129
0.0776381
0.0775635
0.0774659
0.0773983
0.0772604
0.07722
0.0770227
0.0794701
0.0794739
0.0794676
0.0794654
0.0794486
0.0794393
0.0794136
0.0793952
0.0793625
0.0793334
0.0792936
0.0792549
0.0792063
0.0791586
0.0791006
0.0790433
0.0789768
0.0789062
0.0788371
0.0787445
0.0786829
0.0785528
0.078515
0.0783324
0.0806994
0.0807035
0.0806976
0.0806963
0.0806803
0.0806724
0.080648
0.0806315
0.0806006
0.0805739
0.0805364
0.0805007
0.0804549
0.0804109
0.0803565
0.0803034
0.0802409
0.0801763
0.0801109
0.0800254
0.0799683
0.0798477
0.0798125
0.0796437
0.0819184
0.0819231
0.0819174
0.0819172
0.0819018
0.0818956
0.0818724
0.0818581
0.0818289
0.0818051
0.0817698
0.0817376
0.0816945
0.0816547
0.0816037
0.0815553
0.0814973
0.0814377
0.0813776
0.081298
0.0812466
0.0811353
0.0811023
0.0809474
0.0831224
0.0831275
0.0831215
0.083123
0.0831078
0.0831038
0.0830812
0.08307
0.0830417
0.0830217
0.0829875
0.0829603
0.0829186
0.0828846
0.0828357
0.0827931
0.0827386
0.0826855
0.0826297
0.0825568
0.0825092
0.0824081
0.0823774
0.0822361
0.0843068
0.0843122
0.0843064
0.0843092
0.0842943
0.0842925
0.0842704
0.0842623
0.0842347
0.0842189
0.0841855
0.0841637
0.0841227
0.0840953
0.0840471
0.0840124
0.0839596
0.0839126
0.0838616
0.0837962
0.083752
0.0836609
0.0836323
0.0835044
0.0854681
0.0854736
0.0854687
0.0854714
0.0854587
0.0854567
0.085438
0.0854297
0.0854064
0.0853908
0.0853623
0.0853413
0.0853056
0.08528
0.0852373
0.0852058
0.0851578
0.0851174
0.0850689
0.0850106
0.0849703
0.0848892
0.0848628
0.0847477
0.0866036
0.0866092
0.086605
0.0866081
0.0865966
0.0865955
0.0865787
0.0865716
0.0865512
0.0865368
0.0865124
0.0864925
0.086462
0.0864378
0.0864009
0.0863718
0.0863293
0.0862931
0.0862484
0.0861995
0.0861615
0.0860895
0.0860651
0.0859626
0.0877112
0.0877166
0.0877129
0.0877165
0.0877061
0.0877061
0.0876908
0.0876853
0.0876671
0.0876546
0.0876331
0.0876155
0.0875887
0.0875672
0.0875347
0.0875088
0.0874709
0.0874395
0.0873986
0.0873575
0.0873221
0.087259
0.0872366
0.0871462
0.0887884
0.0887939
0.0887906
0.0887948
0.0887853
0.0887864
0.0887725
0.0887685
0.0887523
0.0887418
0.088723
0.0887077
0.0886844
0.0886656
0.088637
0.0886146
0.0885811
0.0885541
0.0885175
0.088483
0.0884489
0.088396
0.0883753
0.0882965
0.0898342
0.0898397
0.0898368
0.0898415
0.0898328
0.0898349
0.0898223
0.0898199
0.0898055
0.0897969
0.0897806
0.0897677
0.0897473
0.0897313
0.0897065
0.0896873
0.0896579
0.0896351
0.0896031
0.0895737
0.0895422
0.0894986
0.0894794
0.0894117
0.0908474
0.0908528
0.0908502
0.0908555
0.0908475
0.0908505
0.0908393
0.0908382
0.0908256
0.0908188
0.0908048
0.0907941
0.0907766
0.0907632
0.0907418
0.0907259
0.0907003
0.0906814
0.0906529
0.0906292
0.0906009
0.0905649
0.0905481
0.0904904
0.0918271
0.0918325
0.0918302
0.091836
0.0918285
0.0918328
0.0918223
0.0918228
0.0918117
0.0918067
0.0917947
0.0917862
0.0917713
0.0917606
0.0917422
0.0917293
0.0917073
0.091692
0.0916678
0.0916479
0.0916236
0.0915955
0.0915794
0.0915315
0.0927729
0.0927783
0.0927763
0.0927823
0.0927757
0.0927804
0.0927714
0.0927728
0.0927635
0.0927599
0.09275
0.0927434
0.0927311
0.0927226
0.0927073
0.0926973
0.0926787
0.0926668
0.0926457
0.0926309
0.0926096
0.0925879
0.0925736
0.0925343
0.0936845
0.0936898
0.0936878
0.0936945
0.0936883
0.093694
0.0936856
0.0936886
0.0936802
0.0936785
0.0936702
0.0936656
0.0936554
0.0936494
0.0936367
0.0936294
0.0936137
0.0936052
0.093588
0.0935763
0.0935591
0.0935424
0.0935296
0.093499
0.0945618
0.0945668
0.0945656
0.0945719
0.0945668
0.0945727
0.0945657
0.0945692
0.0945626
0.0945619
0.0945556
0.0945526
0.0945446
0.0945405
0.0945304
0.0945255
0.0945129
0.0945073
0.0944927
0.0944855
0.0944709
0.0944591
0.0944481
0.0944254
0.0954048
0.0954101
0.0954083
0.0954157
0.0954103
0.0954176
0.0954107
0.0954159
0.0954098
0.095411
0.0954058
0.0954046
0.0953984
0.0953964
0.0953885
0.095386
0.0953758
0.0953731
0.0953617
0.0953572
0.0953459
0.0953383
0.0953296
0.0953138
0.0962142
0.0962186
0.0962187
0.0962237
0.0962222
0.0962262
0.0962237
0.0962267
0.0962239
0.0962247
0.0962219
0.0962217
0.0962176
0.0962172
0.0962115
0.0962111
0.0962035
0.0962032
0.0961942
0.0961933
0.0961842
0.0961805
0.0961742
0.0961647
0.0969897
0.096995
0.0969929
0.0970019
0.0969956
0.0970061
0.0969985
0.0970071
0.0970017
0.0970061
0.097003
0.0970051
0.0970021
0.0970035
0.0969997
0.0970013
0.0969958
0.096998
0.0969916
0.0969933
0.0969868
0.0969872
0.0969828
0.0969785
0.0977329
0.0977365
0.0977383
0.0977411
0.0977437
0.0977447
0.0977476
0.0977484
0.0977504
0.0977513
0.0977521
0.0977539
0.0977531
0.0977558
0.0977539
0.0977572
0.0977538
0.097758
0.0977537
0.0977582
0.0977541
0.0977577
0.0977555
0.0977559
0.098443
0.0984482
0.0984461
0.0984558
0.0984493
0.0984618
0.098454
0.0984654
0.0984604
0.0984677
0.098466
0.098471
0.0984705
0.0984749
0.0984745
0.0984794
0.0984778
0.098484
0.0984818
0.0984887
0.0984861
0.0984934
0.0984926
0.0984974
0.0991226
0.0991255
0.0991284
0.09913
0.0991349
0.0991346
0.0991408
0.0991405
0.099146
0.0991471
0.0991508
0.0991542
0.0991562
0.0991613
0.0991624
0.0991689
0.0991688
0.0991769
0.0991761
0.0991853
0.0991847
0.0991946
0.0991951
0.0992038
0.0997703
0.0997751
0.0997739
0.0997824
0.0997782
0.0997893
0.0997842
0.0997954
0.0997923
0.0998011
0.099801
0.099808
0.0998096
0.0998164
0.0998186
0.0998263
0.0998277
0.0998372
0.0998382
0.0998494
0.0998498
0.0998625
0.0998643
0.0998762
0.10039
0.100392
0.100395
0.100397
0.100401
0.100403
0.100409
0.10041
0.100416
0.100419
0.100424
0.100429
0.100433
0.10044
0.100444
0.100453
0.100455
0.100467
0.100469
0.100481
0.100483
0.100498
0.100501
0.100516
0.100979
0.100983
0.100983
0.100989
0.100989
0.100995
0.100996
0.101004
0.101005
0.101013
0.101015
0.101023
0.101027
0.101035
0.10104
0.10105
0.101053
0.101065
0.101069
0.101083
0.101086
0.101103
0.101106
0.101124
0.101541
0.101544
0.101545
0.10155
0.101551
0.101557
0.101559
0.101566
0.101569
0.101575
0.10158
0.101587
0.101592
0.101601
0.101606
0.101617
0.101622
0.101635
0.101639
0.101655
0.101659
0.101678
0.101682
0.101702
0.102075
0.102078
0.102081
0.102083
0.102088
0.10209
0.102096
0.102099
0.102106
0.102111
0.102117
0.102125
0.10213
0.10214
0.102146
0.102157
0.102163
0.102177
0.102182
0.102199
0.102204
0.102224
0.102228
0.102252
0.102585
0.102587
0.102589
0.102594
0.102594
0.102602
0.102602
0.102612
0.102613
0.102623
0.102626
0.102636
0.102641
0.102652
0.102658
0.102671
0.102677
0.102692
0.102698
0.102716
0.102721
0.102743
0.102748
0.102772
0.103069
0.103071
0.103074
0.103076
0.103081
0.103083
0.103091
0.103092
0.103101
0.103105
0.103113
0.103121
0.103128
0.103139
0.103145
0.103158
0.103165
0.103181
0.103187
0.103207
0.103212
0.103235
0.103241
0.103266
0.103529
0.103531
0.103533
0.103538
0.103539
0.103546
0.103547
0.103557
0.103558
0.103569
0.103573
0.103583
0.10359
0.103601
0.103608
0.103622
0.103629
0.103646
0.103652
0.103672
0.103679
0.103702
0.103708
0.103736
0.103966
0.103968
0.103971
0.103973
0.103978
0.103981
0.103987
0.103991
0.103999
0.104005
0.104012
0.104021
0.104029
0.10404
0.104048
0.104062
0.104069
0.104086
0.104094
0.104114
0.104121
0.104146
0.104151
0.104181
0.104381
0.104384
0.104385
0.10439
0.104391
0.104398
0.1044
0.104409
0.104413
0.104422
0.104427
0.104438
0.104445
0.104457
0.104465
0.104479
0.104487
0.104505
0.104512
0.104533
0.10454
0.104566
0.104572
0.104602
0.104776
0.104777
0.104781
0.104782
0.104788
0.10479
0.104797
0.104801
0.104808
0.104816
0.104823
0.104832
0.10484
0.104852
0.10486
0.104875
0.104884
0.104901
0.10491
0.104931
0.104938
0.104965
0.104971
0.105002
0.10515
0.105153
0.105153
0.105159
0.105159
0.105167
0.105169
0.105177
0.105182
0.10519
0.105197
0.105207
0.105215
0.105227
0.105236
0.105251
0.105259
0.105277
0.105286
0.105308
0.105315
0.105342
0.105348
0.105381
0.105506
0.105507
0.10551
0.105511
0.105517
0.105519
0.105526
0.105531
0.105538
0.105545
0.105553
0.105563
0.105571
0.105583
0.105591
0.105607
0.105616
0.105634
0.105642
0.105664
0.105672
0.105699
0.105706
0.105739
0.105843
0.105845
0.105846
0.10585
0.105852
0.105858
0.105861
0.105869
0.105874
0.105883
0.105889
0.1059
0.105908
0.105921
0.105929
0.105944