/*--------------------------------*- C++ -*----------------------------------*\
  =========                 |
  \\      /  F ield         | OpenFOAM: The Open Source CFD Toolbox
   \\    /   O peration     | Website:  https://openfoam.org
    \\  /    A nd           | Version:  10
     \\/     M anipulation  |
\*---------------------------------------------------------------------------*/
FoamFile
{
    format      ascii;
    class       volScalarField;
    location    "0.5";
    object      T;
}
// * * * * * * * * * * * * * * * * * * * * * * * * * * * * * * * * * * * * * //

dimensions      [0 0 0 1 0 0 0];

internalField   nonuniform List<scalar> 
4176
(
180.347
180.351
180.373
180.382
180.426
180.444
180.507
180.537
180.614
180.66
180.749
180.809
180.913
180.986
181.101
181.191
181.307
181.43
181.534
181.703
181.777
182.011
182.023
182.327
180.356
180.36
180.382
180.392
180.437
180.456
180.519
180.552
180.628
180.677
180.767
180.829
180.935
181.01
181.128
181.22
181.34
181.465
181.571
181.744
181.819
182.062
182.077
182.412
180.384
180.388
180.41
180.42
180.463
180.482
180.543
180.575
180.649
180.698
180.785
180.846
180.95
181.023
181.139
181.228
181.347
181.468
181.572
181.74
181.811
182.049
182.065
182.41
180.436
180.44
180.461
180.471
180.514
180.534
180.594
180.626
180.701
180.749
180.837
180.897
181.001
181.073
181.192
181.279
181.399
181.522
181.622
181.795
181.863
182.097
182.111
182.44
180.511
180.515
180.536
180.546
180.588
180.607
180.667
180.699
180.772
180.82
180.907
180.966
181.07
181.14
181.258
181.343
181.465
181.586
181.683
181.857
181.925
182.156
182.17
182.488
180.61
180.614
180.635
180.645
180.687
180.706
180.765
180.797
180.869
180.917
181.002
181.062
181.164
181.234
181.351
181.435
181.558
181.673
181.777
181.945
182.015
182.244
182.261
182.579
180.733
180.737
180.758
180.767
180.809
180.828
180.886
180.918
180.989
181.036
181.121
181.18
181.28
181.35
181.466
181.548
181.672
181.781
181.89
182.051
182.123
182.349
182.368
182.685
180.88
180.884
180.905
180.914
180.955
180.973
181.031
181.062
181.133
181.18
181.263
181.321
181.421
181.489
181.604
181.684
181.808
181.914
182.025
182.181
182.255
182.478
182.498
182.81
181.051
181.055
181.075
181.084
181.125
181.143
181.2
181.231
181.3
181.346
181.428
181.486
181.584
181.652
181.766
181.844
181.967
182.069
182.182
182.332
182.408
182.627
182.649
182.956
181.245
181.249
181.269
181.278
181.319
181.336
181.393
181.423
181.491
181.537
181.618
181.674
181.771
181.837
181.95
182.027
182.149
182.247
182.362
182.506
182.585
182.798
182.821
183.123
181.463
181.467
181.487
181.496
181.536
181.553
181.609
181.638
181.706
181.751
181.83
181.886
181.981
182.046
182.157
182.232
182.354
182.449
182.564
182.702
182.783
182.99
183.015
183.311
181.705
181.709
181.729
181.737
181.777
181.793
181.849
181.877
181.944
181.988
182.066
182.121
182.215
182.278
182.388
182.46
182.581
182.673
182.788
182.921
183.003
183.204
183.23
183.521
181.971
181.975
181.994
182.002
182.041
182.057
182.112
182.14
182.205
182.248
182.325
182.379
182.471
182.533
182.641
182.712
182.83
182.919
183.034
183.163
183.245
183.441
183.467
183.751
182.26
182.264
182.283
182.291
182.329
182.345
182.399
182.426
182.49
182.532
182.608
182.66
182.751
182.811
182.917
182.986
183.102
183.189
183.303
183.427
183.51
183.699
183.726
184.004
182.573
182.577
182.596
182.603
182.641
182.656
182.709
182.735
182.799
182.839
182.913
182.964
183.053
183.111
183.216
183.283
183.397
183.481
183.594
183.713
183.796
183.98
184.006
184.278
182.91
182.914
182.932
182.939
182.977
182.991
183.043
183.068
183.13
183.17
183.242
183.292
183.379
183.435
183.538
183.602
183.715
183.795
183.908
184.021
184.105
184.282
184.309
184.574
183.27
183.274
183.292
183.299
183.336
183.349
183.4
183.424
183.486
183.524
183.595
183.642
183.728
183.782
183.883
183.945
184.055
184.132
184.243
184.351
184.435
184.606
184.633
184.892
183.655
183.658
183.676
183.682
183.719
183.731
183.781
183.804
183.864
183.901
183.97
184.016
184.099
184.152
184.25
184.31
184.418
184.492
184.601
184.704
184.788
184.952
184.979
185.231
184.063
184.066
184.084
184.09
184.125
184.137
184.186
184.208
184.266
184.301
184.369
184.413
184.494
184.544
184.64
184.697
184.803
184.874
184.981
185.079
185.162
185.32
185.347
185.592
184.494
184.498
184.515
184.52
184.555
184.566
184.614
184.635
184.691
184.725
184.79
184.833
184.912
184.96
185.053
185.107
185.211
185.279
185.382
185.477
185.559
185.71
185.737
185.974
184.95
184.953
184.97
184.975
185.009
185.019
185.065
185.085
185.14
185.172
185.235
185.276
185.352
185.398
185.489
185.54
185.641
185.705
185.807
185.896
185.977
186.122
186.149
186.378
185.429
185.432
185.449
185.453
185.486
185.495
185.54
185.558
185.612
185.642
185.704
185.742
185.816
185.859
185.947
185.996
186.093
186.155
186.253
186.337
186.418
186.555
186.583
186.804
185.932
185.935
185.951
185.954
185.987
185.995
186.039
186.055
186.107
186.135
186.195
186.231
186.302
186.343
186.428
186.474
186.568
186.626
186.721
186.801
186.88
187.011
187.038
187.251
186.458
186.461
186.477
186.48
186.511
186.518
186.561
186.576
186.626
186.652
186.709
186.743
186.812
186.85
186.932
186.975
187.066
187.12
187.212
187.287
187.365
187.488
187.515
187.719
187.008
187.01
187.026
187.028
187.058
187.064
187.105
187.119
187.167
187.192
187.247
187.278
187.344
187.379
187.459
187.498
187.586
187.636
187.725
187.796
187.871
187.988
188.014
188.209
187.581
187.583
187.598
187.6
187.629
187.634
187.674
187.686
187.732
187.754
187.807
187.836
187.899
187.932
188.008
188.044
188.128
188.175
188.26
188.327
188.4
188.509
188.534
188.721
188.177
188.179
188.194
188.195
188.223
188.227
188.265
188.275
188.32
188.34
188.39
188.416
188.477
188.507
188.58
188.613
188.693
188.736
188.818
188.88
188.95
189.053
189.076
189.256
188.796
188.798
188.812
188.812
188.84
188.842
188.879
188.888
188.93
188.948
188.996
189.02
189.078
189.104
189.174
189.204
189.281
189.32
189.398
189.455
189.523
189.617
189.64
189.812
189.438
189.44
189.453
189.453
189.479
189.481
189.516
189.523
189.563
189.579
189.625
189.646
189.701
189.724
189.791
189.817
189.891
189.926
190
190.052
190.117
190.205
190.226
190.389
190.102
190.104
190.117
190.116
190.141
190.142
190.176
190.181
190.219
190.233
190.276
190.295
190.347
190.367
190.43
190.453
190.523
190.554
190.625
190.672
190.733
190.814
190.834
190.989
190.789
190.791
190.803
190.802
190.826
190.825
190.858
190.861
190.898
190.91
190.95
190.966
191.015
191.032
191.092
191.111
191.177
191.204
191.271
191.314
191.371
191.445
191.464
191.609
191.498
191.5
191.512
191.51
191.533
191.531
191.562
191.564
191.599
191.608
191.646
191.659
191.706
191.72
191.776
191.792
191.854
191.877
191.94
191.977
192.032
192.099
192.115
192.253
192.23
192.231
192.243
192.24
192.262
192.259
192.288
192.289
192.321
192.329
192.365
192.375
192.419
192.429
192.483
192.495
192.553
192.572
192.631
192.663
192.714
192.775
192.79
192.917
192.983
192.984
192.995
192.992
193.013
193.009
193.037
193.035
193.066
193.071
193.105
193.113
193.153
193.161
193.211
193.219
193.274
193.289
193.344
193.371
193.418
193.473
193.486
193.604
193.758
193.759
193.77
193.765
193.786
193.78
193.807
193.804
193.833
193.836
193.867
193.872
193.91
193.915
193.962
193.966
194.018
194.028
194.08
194.101
194.145
194.193
194.204
194.313
194.554
194.555
194.565
194.56
194.58
194.573
194.599
194.594
194.621
194.622
194.651
194.653
194.689
194.69
194.734
194.735
194.783
194.789
194.837
194.854
194.893
194.935
194.944
195.043
195.371
195.372
195.382
195.377
195.396
195.388
195.412
195.405
195.431
195.43
195.456
195.456
195.489
195.487
195.528
195.525
195.57
195.571
195.616
195.628
195.663
195.7
195.705
195.795
196.21
196.211
196.22
196.214
196.232
196.223
196.246
196.238
196.261
196.258
196.283
196.28
196.31
196.305
196.343
196.337
196.378
196.375
196.417
196.424
196.455
196.486
196.488
196.569
197.069
197.07
197.079
197.072
197.09
197.079
197.101
197.092
197.113
197.108
197.13
197.125
197.153
197.145
197.18
197.169
197.208
197.2
197.239
197.241
197.269
197.294
197.293
197.365
197.949
197.95
197.959
197.951
197.968
197.957
197.977
197.966
197.986
197.979
197.999
197.992
198.016
198.005
198.038
198.024
198.059
198.047
198.082
198.079
198.103
198.123
198.118
198.182
198.849
198.85
198.858
198.851
198.866
198.854
198.873
198.861
198.879
198.871
198.888
198.879
198.901
198.887
198.916
198.899
198.931
198.915
198.946
198.938
198.958
198.972
198.966
199.021
199.77
199.771
199.779
199.77
199.785
199.772
199.79
199.776
199.793
199.782
199.798
199.786
199.806
199.789
199.815
199.794
199.824
199.803
199.831
199.818
199.835
199.843
199.833
199.882
200.711
200.711
200.719
200.71
200.724
200.71
200.727
200.712
200.727
200.714
200.728
200.713
200.731
200.711
200.735
200.711
200.737
200.712
200.737
200.719
200.733
200.733
200.722
200.762
201.671
201.672
201.679
201.67
201.683
201.668
201.683
201.667
201.68
201.666
201.678
201.661
201.676
201.653
201.674
201.647
201.67
201.642
201.664
201.64
201.652
201.646
201.632
201.663
202.651
202.652
202.659
202.649
202.662
202.645
202.66
202.642
202.654
202.637
202.647
202.628
202.641
202.615
202.634
202.603
202.624
202.591
202.61
202.581
202.591
202.578
202.562
202.585
203.651
203.651
203.658
203.647
203.659
203.642
203.655
203.636
203.646
203.628
203.636
203.615
203.625
203.597
203.613
203.579
203.597
203.559
203.577
203.541
203.55
203.531
203.513
203.528
204.669
204.67
204.676
204.665
204.676
204.658
204.67
204.649
204.658
204.638
204.644
204.62
204.629
204.598
204.611
204.574
204.589
204.547
204.563
204.521
204.529
204.502
204.484
204.49
205.707
205.707
205.713
205.701
205.712
205.692
205.703
205.681
205.688
205.667
205.671
205.645
205.651
205.617
205.628
205.587
205.6
205.554
205.568
205.521
205.526
205.493
205.475
205.471
206.762
206.762
206.768
206.755
206.765
206.745
206.755
206.732
206.737
206.714
206.716
206.688
206.692
206.655
206.664
206.62
206.63
206.579
206.592
206.539
206.543
206.502
206.485
206.472
207.835
207.835
207.841
207.828
207.837
207.816
207.824
207.8
207.804
207.779
207.779
207.749
207.751
207.711
207.718
207.67
207.678
207.624
207.634
207.576
207.579
207.53
207.513
207.492
208.926
208.925
208.931
208.917
208.926
208.904
208.911
208.885
208.888
208.861
208.859
208.828
208.827
208.785
208.79
208.739
208.745
208.686
208.694
208.63
208.634
208.576
208.559
208.53
210.033
210.032
210.037
210.023
210.031
210.008
210.015
209.988
209.989
209.961
209.957
209.923
209.921
209.876
209.879
209.825
209.829
209.765
209.773
209.702
209.706
209.641
209.624
209.586
211.156
211.156
211.16
211.146
211.153
211.129
211.135
211.106
211.107
211.077
211.072
211.035
211.032
210.984
210.985
210.927
210.931
210.861
210.869
210.791
210.796
210.724
210.706
210.661
212.295
212.294
212.299
212.284
212.29
212.266
212.271
212.241
212.24
212.208
212.202
212.164
212.159
212.108
212.108
212.045
212.05
211.974
211.982
211.899
211.902
211.825
211.806
211.753
213.448
213.448
213.452
213.436
213.442
213.417
213.421
213.39
213.388
213.355
213.348
213.307
213.301
213.247
213.247
213.18
213.185
213.103
213.112
213.023
213.025
212.942
212.922
212.863
214.616
214.615
214.619
214.603
214.609
214.583
214.586
214.554
214.551
214.517
214.509
214.465
214.46
214.401
214.402
214.329
214.335
214.249
214.255
214.163
214.163
214.077
214.055
213.989
215.796
215.796
215.799
215.784
215.788
215.762
215.764
215.732
215.728
215.692
215.684
215.637
215.632
215.57
215.571
215.494
215.498
215.41
215.415
215.32
215.318
215.226
215.204
215.132
216.99
216.989
216.992
216.977
216.981
216.955
216.956
216.922
216.919
216.88
216.872
216.823
216.818
216.753
216.753
216.674
216.677
216.587
216.588
216.491
216.487
216.392
216.369
216.291
218.195
218.195
218.197
218.182
218.185
218.159
218.159
218.125
218.121
218.081
218.073
218.022
218.016
217.95
217.948
217.868
217.868
217.776
217.777
217.677
217.671
217.572
217.548
217.464
219.411
219.411
219.414
219.398
219.401
219.375
219.374
219.34
219.335
219.294
219.285
219.234
219.227
219.159
219.157
219.074
219.074
218.979
218.978
218.876
218.869
218.766
218.742
218.653
220.638
220.638
220.641
220.624
220.627
220.601
220.6
220.567
220.559
220.519
220.509
220.457
220.448
220.381
220.376
220.293
220.291
220.195
220.192
220.088
220.08
219.974
219.949
219.855
221.875
221.875
221.878
221.861
221.864
221.837
221.836
221.803
221.793
221.755
221.742
221.691
221.681
221.613
221.607
221.524
221.52
221.423
221.419
221.313
221.303
221.195
221.17
221.071
223.121
223.121
223.124
223.107
223.11
223.083
223.081
223.049
223.038
223.001
222.986
222.936
222.924
222.856
222.849
222.766
222.761
222.661
222.657
222.549
222.539
222.427
222.402
222.299
224.377
224.377
224.379
224.363
224.366
224.339
224.336
224.304
224.292
224.256
224.239
224.19
224.176
224.109
224.1
224.017
224.011
223.911
223.905
223.795
223.784
223.671
223.645
223.538
225.64
225.64
225.643
225.627
225.63
225.602
225.6
225.568
225.555
225.52
225.501
225.454
225.438
225.371
225.36
225.278
225.269
225.169
225.164
225.051
225.04
224.924
224.898
224.788
226.913
226.913
226.915
226.899
226.902
226.875
226.872
226.84
226.827
226.792
226.772
226.725
226.707
226.642
226.629
226.546
226.537
226.437
226.43
226.316
226.304
226.187
226.161
226.047
228.193
228.193
228.196
228.179
228.182
228.155
228.152
228.119
228.106
228.071
228.05
228.004
227.985
227.92
227.906
227.822
227.812
227.712
227.704
227.589
227.577
227.458
227.432
227.315
229.481
229.481
229.484
229.467
229.47
229.443
229.44
229.407
229.393
229.358
229.335
229.29
229.269
229.204
229.19
229.105
229.094
228.994
228.984
228.87
228.856
228.736
228.71
228.591
230.777
230.777
230.779
230.763
230.765
230.737
230.734
230.701
230.686
230.651
230.627
230.582
230.559
230.495
230.48
230.394
230.382
230.281
230.271
230.157
230.142
230.021
229.995
229.874
232.079
232.079
232.081
232.064
232.066
232.038
232.034
232
231.985
231.95
231.924
231.88
231.855
231.791
231.774
231.688
231.677
231.574
231.563
231.449
231.433
231.312
231.285
231.163
233.386
233.387
233.389
233.371
233.373
233.344
233.339
233.305
233.289
233.253
233.226
233.182
233.154
233.092
233.072
232.988
232.975
232.871
232.859
232.746
232.729
232.608
232.582
232.458
234.697
234.697
234.699
234.681
234.683
234.653
234.648
234.613
234.596
234.56
234.531
234.488
234.458
234.397
234.374
234.291
234.277
234.173
234.161
234.048
234.03
233.909
233.883
233.759
236.008
236.008
236.01
235.992
235.994
235.963
235.958
235.923
235.905
235.868
235.839
235.796
235.764
235.705
235.68
235.599
235.581
235.48
235.467
235.353
235.336
235.215
235.189
235.065
237.317
237.317
237.319
237.301
237.302
237.272
237.267
237.232
237.214
237.178
237.148
237.106
237.073
237.016
236.987
236.91
236.889
236.792
236.777
236.663
236.646
236.526
236.5
236.376
238.619
238.619
238.622
238.604
238.607
238.577
238.573
238.539
238.522
238.487
238.458
238.417
238.384
238.328
238.299
238.224
238.202
238.106
238.09
237.978
237.961
237.841
237.817
237.693
239.914
239.914
239.918
239.901
239.904
239.876
239.874
239.841
239.826
239.793
239.766
239.727
239.695
239.643
239.613
239.542
239.517
239.426
239.408
239.298
239.282
239.163
239.139
239.016
241.2
241.201
241.205
241.189
241.195
241.169
241.169
241.138
241.126
241.096
241.071
241.036
241.006
240.957
240.929
240.862
240.837
240.751
240.731
240.625
240.609
240.49
240.468
240.345
242.481
242.482
242.488
242.473
242.48
242.456
242.458
242.431
242.422
242.395
242.374
242.342
242.316
242.272
242.246
242.184
242.161
242.078
242.062
241.957
241.943
241.824
241.803
241.68
243.762
243.764
243.77
243.757
243.765
243.743
243.747
243.723
243.716
243.693
243.675
243.647
243.624
243.584
243.563
243.505
243.487
243.408
243.395
243.294
243.283
243.165
243.146
243.022
245.053
245.056
245.061
245.049
245.058
245.038
245.042
245.02
245.014
244.994
244.978
244.954
244.933
244.897
244.881
244.823
244.815
244.734
244.732
244.63
244.628
244.512
244.497
244.376
246.364
246.367
246.373
246.361
246.369
246.349
246.353
246.331
246.325
246.306
246.29
246.267
246.247
246.213
246.2
246.142
246.141
246.059
246.065
245.963
245.969
245.856
245.848
245.736
247.708
247.71
247.716
247.702
247.711
247.688
247.692
247.667
247.66
247.637
247.62
247.595
247.574
247.541
247.522
247.47
247.465
247.387
247.393
247.294
247.304
247.192
247.19
247.084
249.094
249.096
249.101
249.086
249.092
249.066
249.067
249.038
249.028
249.001
248.979
248.95
248.923
248.887
248.862
248.81
248.796
248.721
248.722
248.622
248.634
248.519
248.522
248.415
250.529
250.53
250.534
250.517
250.52
250.491
250.488
250.455
250.439
250.406
250.377
250.341
250.307
250.264
250.229
250.172
250.148
250.069
250.064
249.956
249.968
249.844
249.85
249.735
252.014
252.016
252.017
251.999
251.999
251.968
251.959
251.922
251.899
251.861
251.823
251.781
251.736
251.684
251.638
251.571
251.536
251.444
251.428
251.309
251.314
251.177
251.184
251.054
253.546
253.548
253.549
253.529
253.527
253.492
253.481
253.439
253.411
253.367
253.322
253.273
253.218
253.157
253.098
253.022
252.969
252.865
252.836
252.697
252.691
252.533
252.534
252.382
255.119
255.12
255.121
255.099
255.097
255.059
255.047
255
254.97
254.921
254.872
254.815
254.755
254.685
254.617
254.532
254.461
254.353
254.294
254.15
254.117
253.936
253.924
253.735
256.721
256.722
256.724
256.701
256.698
256.659
256.646
256.598
256.566
256.514
256.463
256.403
256.339
256.265
256.19
256.1
256.017
255.907
255.823
255.679
255.613
255.421
255.383
255.148
258.342
258.342
258.344
258.321
258.319
258.28
258.267
258.219
258.187
258.135
258.083
258.023
257.957
257.883
257.806
257.715
257.628
257.517
257.422
257.283
257.192
257.004
256.941
256.669
259.968
259.969
259.972
259.949
259.948
259.909
259.897
259.85
259.819
259.768
259.718
259.659
259.595
259.523
259.447
259.359
259.273
259.164
259.072
258.935
258.844
258.662
258.595
258.326
261.589
261.591
261.594
261.572
261.571
261.534
261.523
261.478
261.449
261.401
261.353
261.298
261.236
261.168
261.096
261.013
260.93
260.829
260.739
260.611
260.528
260.352
260.297
260.051
263.196
263.197
263.201
263.18
263.181
263.146
263.136
263.094
263.067
263.022
262.977
262.926
262.868
262.805
262.736
262.659
262.582
262.487
262.405
262.285
262.21
262.046
261.995
261.77
264.779
264.781
264.785
264.765
264.767
264.734
264.727
264.687
264.662
264.622
264.579
264.533
264.478
264.421
264.357
264.287
264.214
264.13
264.051
263.942
263.873
263.723
263.676
263.469
266.332
266.335
266.34
266.321
266.324
266.293
266.287
266.251
266.228
266.192
266.152
266.111
266.06
266.009
265.949
265.887
265.819
265.742
265.671
265.57
265.508
265.371
265.328
265.14
267.851
267.854
267.859
267.842
267.846
267.817
267.812
267.78
267.759
267.728
267.689
267.655
267.605
267.563
267.504
267.452
267.387
267.321
267.255
267.162
267.106
266.984
266.943
266.773
269.331
269.334
269.339
269.323
269.329
269.301
269.299
269.269
269.25
269.223
269.188
269.158
269.112
269.076
269.021
268.977
268.916
268.857
268.796
268.716
268.663
268.554
268.516
268.364
270.768
270.771
270.778
270.762
270.769
270.743
270.744
270.714
270.7
270.674
270.644
270.617
270.576
270.544
270.495
270.456
270.4
270.351
270.293
270.224
270.173
270.079
270.043
269.909
272.161
272.164
272.172
272.156
272.165
272.14
272.143
272.115
272.105
272.081
272.055
272.031
271.996
271.966
271.923
271.888
271.839
271.796
271.742
271.685
271.636
271.555
271.521
271.404
273.508
273.511
273.519
273.504
273.515
273.49
273.496
273.47
273.462
273.441
273.419
273.397
273.366
273.341
273.303
273.273
273.228
273.192
273.143
273.095
273.05
272.981
272.949
272.847
274.808
274.811
274.82
274.805
274.817
274.793
274.801
274.777
274.772
274.753
274.734
274.715
274.689
274.667
274.633
274.608
274.569
274.538
274.493
274.456
274.411
274.355
274.324
274.238
276.06
276.063
276.072
276.058
276.071
276.05
276.058
276.036
276.032
276.016
276
275.985
275.961
275.943
275.914
275.893
275.858
275.833
275.794
275.762
275.721
275.678
275.646
275.575
277.264
277.267
277.277
277.262
277.279
277.254
277.268
277.244
277.246
277.23
277.218
277.204
277.185
277.17
277.144
277.128
277.097
277.078
277.041
277.019
276.979
276.946
276.917
276.858
278.421
278.424
278.432
278.422
278.432
278.418
278.424
278.409
278.407
278.397
278.385
278.375
278.358
278.347
278.325
278.312
278.285
278.271
278.24
278.221
278.187
278.162
278.135
278.087
279.529
279.531
279.544
279.526
279.549
279.521
279.543
279.518
279.526
279.512
279.506
279.497
279.483
279.475
279.456
279.447
279.424
279.414
279.385
279.374
279.342
279.326
279.299
279.263
280.591
280.595
280.601
280.596
280.602
280.596
280.598
280.592
280.589
280.585
280.576
280.572
280.56
280.555
280.538
280.533
280.513
280.507
280.483
280.475
280.448
280.438
280.413
280.387
281.607
281.608
281.622
281.603
281.63
281.601
281.629
281.602
281.618
281.604
281.603
281.598
281.589
281.586
281.573
281.57
281.554
281.551
281.529
281.528
281.503
281.499
281.476
281.46
282.578
282.582
282.585
282.588
282.585
282.592
282.585
282.591
282.582
282.587
282.579
282.58
282.572
282.572
282.56
282.561
282.546
282.548
282.53
282.531
282.51
282.511
282.49
282.482
283.505
283.504
283.521
283.499
283.533
283.498
283.535
283.503
283.527
283.511
283.518
283.514
283.51
283.511
283.502
283.505
283.494
283.498
283.482
283.488
283.47
283.475
283.456
283.456
284.388
284.394
284.392
284.403
284.391
284.411
284.393
284.413
284.397
284.411
284.402
284.409
284.403
284.407
284.4
284.405
284.396
284.403
284.39
284.4
284.383
284.394
284.376
284.383
285.231
285.23
285.248
285.224
285.261
285.224
285.266
285.233
285.262
285.245
285.257
285.254
285.255
285.259
285.254
285.262
285.255
285.264
285.253
285.266
285.252
285.266
285.251
285.263
286.032
286.039
286.034
286.05
286.034
286.06
286.037
286.065
286.046
286.066
286.056
286.067
286.063
286.071
286.067
286.076
286.072
286.083
286.075
286.09
286.077
286.095
286.081
286.099
286.797
286.795
286.811
286.792
286.823
286.795
286.831
286.804
286.831
286.819
286.831
286.831
286.835
286.842
286.84
286.851
286.847
286.862
286.854
286.872
286.862
286.882
286.868
286.893
287.52
287.527
287.524
287.536
287.527
287.546
287.532
287.554
287.541
287.559
287.554
287.565
287.565
287.575
287.574
287.586
287.585
287.599
287.594
287.615
287.605
287.629
287.616
287.645
288.212
288.212
288.222
288.214
288.231
288.22
288.239
288.23
288.245
288.243
288.252
288.256
288.261
288.27
288.271
288.284
288.284
288.301
288.297
288.318
288.311
288.337
288.325
288.357
288.866
288.871
288.871
288.877
288.878
288.884
288.886
288.894
288.896
288.905
288.907
288.917
288.919
288.931
288.932
288.947
288.948
288.966
288.963
288.987
288.979
289.008
288.997
289.031
289.489
289.491
289.495
289.497
289.501
289.507
289.508
289.517
289.519
289.529
289.531
289.542
289.545
289.557
289.56
289.575
289.577
289.596
289.595
289.619
289.614
289.644
289.634
289.67
290.079
290.082
290.085
290.086
290.095
290.092
290.106
290.102
290.116
290.117
290.126
290.133
290.14
290.151
290.155
290.171
290.173
290.194
290.193
290.219
290.214
290.246
290.236
290.275
290.639
290.642
290.644
290.65
290.649
290.661
290.656
290.673
290.668
290.684
290.684
290.698
290.701
290.715
290.719
290.736
290.739
290.76
290.76
290.787
290.783
290.816
290.806
290.847
291.171
291.173
291.177
291.177
291.186
291.184
291.198
291.194
291.209
291.21
291.221
291.228
291.236
291.248
291.254
291.271
291.275
291.296
291.297
291.325
291.322
291.356
291.347
291.389
291.674
291.678
291.678
291.685
291.684
291.695
291.693
291.707
291.706
291.72
291.722
291.735
291.74
291.755
291.76
291.778
291.782
291.804
291.806
291.834
291.833
291.866
291.859
291.9
292.153
292.153
292.159
292.158
292.167
292.166
292.177
292.179
292.189
292.195
292.203
292.213
292.22
292.234
292.24
292.258
292.263
292.285
292.288
292.316
292.315
292.349
292.342
292.386
292.605
292.608
292.607
292.616
292.613
292.625
292.624
292.635
292.639
292.649
292.655
292.667
292.673
292.687
292.695
292.712
292.718
292.741
292.743
292.772
292.772
292.807
292.801
292.844
293.034
293.035
293.041
293.038
293.05
293.047
293.058
293.061
293.069
293.077
293.084
293.096
293.103
293.117
293.125
293.143
293.148
293.171
293.175
293.203
293.204
293.239
293.233
293.278
293.44
293.443
293.442
293.451
293.448
293.46
293.459
293.471
293.474
293.485
293.49
293.503
293.509
293.524
293.532
293.55
293.556
293.579
293.583
293.612
293.612
293.648
293.643
293.687
293.825
293.826
293.83
293.831
293.838
293.839
293.848
293.852
293.861
293.868
293.876
293.887
293.895
293.909
293.917
293.935
293.941
293.964
293.969
293.998
293.999
294.035
294.03
294.073
294.19
294.191
294.194
294.197
294.201
294.205
294.21
294.218
294.223
294.234
294.239
294.252
294.259
294.274
294.282
294.3
294.306
294.33
294.334
294.363
294.364
294.4
294.394
294.44
294.535
294.537
294.537
294.544
294.543
294.553
294.553
294.564
294.568
294.578
294.585
294.597
294.604
294.619
294.627
294.645
294.651
294.674
294.679
294.708
294.71
294.745
294.741
294.784
294.862
294.863
294.867
294.866
294.876
294.873
294.886
294.886
294.897
294.903
294.912
294.923
294.931
294.945
294.953
294.972
294.978
295.001
295.006
295.034
295.036
295.071
295.066
295.111
295.171
295.174
295.173
295.181
295.177
295.191
295.186
295.203
295.201
295.216
295.219
295.233
295.239
295.254
295.262
295.281
295.286
295.31
295.314
295.343
295.345
295.38
295.376
295.418
295.465
295.465
295.47
295.467
295.479
295.474
295.49
295.486
295.501
295.503
295.515
295.524
295.532
295.546
295.555
295.573
295.579
295.603
295.607
295.635
295.637
295.672
295.667
295.711
295.742
295.745
295.742
295.754
295.745
295.764
295.754
295.774
295.769
295.786
295.788
295.803
295.809
295.823
295.831
295.849
295.855
295.879
295.883
295.911
295.912
295.949
295.945
295.985
296.005
296.004
296.012
296.004
296.023
296.01
296.032
296.023
296.042
296.042
296.054
296.063
296.071
296.085
296.093
296.111
296.117
296.14
296.145
296.173
296.173
296.21
296.205
296.248
296.253
296.258
296.251
296.268
296.252
296.279
296.261
296.287
296.278
296.298
296.298
296.313
296.318
296.333
296.341
296.358
296.365
296.388
296.392
296.419
296.421
296.456
296.453
296.492
296.49
296.488
296.498
296.486
296.509
296.491
296.518
296.504
296.526
296.524
296.537
296.545
296.554
296.568
296.576
296.593
296.599
296.621
296.626
296.653
296.655
296.689
296.686
296.726
296.711
296.716
296.709
296.726
296.71
296.737
296.718
296.746
296.734
296.756
296.754
296.77
296.775
296.79
296.797
296.814
296.821
296.843
296.847
296.874
296.877
296.909
296.907
296.946
296.924
296.921
296.931
296.921
296.941
296.926
296.95
296.938
296.959
296.957
296.969
296.978
296.986
296.999
297.007
297.024
297.03
297.052
297.057
297.083
297.084
297.119
297.116
297.154
297.122
297.126
297.12
297.135
297.121
297.145
297.13
297.154
297.146
297.164
297.164
297.179
297.184
297.198
297.205
297.222
297.228
297.251
297.254
297.28
297.284
297.313
297.313
297.35
297.312
297.31
297.318
297.31
297.327
297.316
297.335
297.329
297.344
297.346
297.356
297.365
297.372
297.386
297.393
297.41
297.415
297.437
297.441
297.468
297.469
297.5
297.499
297.536
297.49
297.493
297.488
297.501
297.491
297.51
297.5
297.519
297.514
297.529
297.531
297.544
297.549
297.564
297.57
297.587
297.593
297.615
297.617
297.644
297.645
297.677
297.675
297.711
297.66
297.659
297.664
297.661
297.671
297.667
297.679
297.678
297.689
297.694
297.702
297.712
297.718
297.732
297.738
297.755
297.76
297.781
297.784
297.812
297.812
297.842
297.841
297.877
297.819
297.821
297.819
297.827
297.824
297.834
297.832
297.844
297.844
297.856
297.859
297.872
297.877
297.891
297.896
297.914
297.918
297.94
297.944
297.967
297.969
298
297.998
298.033
297.971
297.971
297.974
297.974
297.979
297.981
297.987
297.991
297.997
298.005
298.011
298.022
298.027
298.041
298.046
298.064
298.068
298.089
298.091
298.119
298.119
298.147
298.147
298.181
298.114
298.115
298.115
298.12
298.119
298.127
298.127
298.136
298.139
298.148
298.153
298.164
298.169
298.183
298.188
298.205
298.209
298.231
298.234
298.258
298.258
298.29
298.287
298.321
298.249
298.249
298.252
298.252
298.257
298.259
298.265
298.269
298.274
298.282
298.288
298.298
298.304
298.317
298.322
298.339
298.344
298.363
298.366
298.392
298.393
298.42
298.42
298.452
298.377
298.377
298.378
298.382
298.382
298.389
298.39
298.398
298.4
298.411
298.414
298.426
298.43
298.444
298.449
298.465
298.468
298.491
298.493
298.517
298.517
298.547
298.544
298.577
298.497
298.498
298.5
298.501
298.505
298.507
298.512
298.517
298.522
298.53
298.535
298.546
298.55
298.565
298.567
298.586
298.589
298.609
298.611
298.636
298.637
298.664
298.663
298.694
298.611
298.612
298.613
298.615
298.618
298.622
298.625
298.631
298.635
298.644
298.647
298.659
298.663
298.677
298.68
298.698
298.701
298.721
298.723
298.748
298.748
298.776
298.774
298.805
298.719
298.719
298.72
298.723
298.724
298.73
298.731
298.739
298.742
298.751
298.754
298.766
298.769
298.785
298.786
298.804
298.807
298.828
298.83
298.852
298.854
298.881
298.88
298.909
298.82
298.82
298.823
298.822
298.829
298.828
298.836
298.837
298.844
298.851
298.856
298.866
298.87
298.885
298.887
298.904
298.908
298.927
298.928
298.954
298.952
298.98
298.978
299.008
298.916
298.917
298.916
298.922
298.919
298.929
298.925
298.938
298.936
298.948
298.949
298.962
298.965
298.979
298.981
298.998
299.001
299.022
299.023
299.045
299.047
299.073
299.072
299.1
299.006
299.005
299.009
299.006
299.016
299.011
299.023
299.021
299.03
299.035
299.041
299.05
299.054
299.068
299.071
299.087
299.091
299.108
299.111
299.134
299.134
299.161
299.159
299.188
299.09
299.092
299.089
299.098
299.092
299.105
299.098
299.113
299.109
299.123
299.122
299.136
299.138
299.152
299.155
299.171
299.173
299.193
299.194
299.217
299.217
299.243
299.242
299.269
299.17
299.169
299.174
299.17
299.18
299.175
299.187
299.184
299.194
299.198
299.204
299.213
299.217
299.231
299.233
299.25
299.252
299.27
299.273
299.295
299.295
299.32
299.318
299.347
299.244
299.246
299.244
299.252
299.246
299.258
299.252
299.266
299.263
299.276
299.276
299.289
299.291
299.304
299.307
299.323
299.325
299.344
299.346
299.368
299.367
299.393
299.391
299.418
299.315
299.314
299.318
299.315
299.323
299.32
299.329
299.33
299.337
299.342
299.347
299.357
299.36
299.373
299.376
299.392
299.394
299.412
299.414