/*--------------------------------*- C++ -*----------------------------------*\
  =========                 |
  \\      /  F ield         | OpenFOAM: The Open Source CFD Toolbox
   \\    /   O peration     | Website:  https://openfoam.org
    \\  /    A nd           | Version:  10
     \\/     M anipulation  |
\*---------------------------------------------------------------------------*/
FoamFile
{
    format      ascii;
    class       volVectorField;
    location    "0.5";
    object      U;
}
// * * * * * * * * * * * * * * * * * * * * * * * * * * * * * * * * * * * * * //

dimensions      [0 1 -1 0 0 0 0];

internalField   nonuniform List<vector> 
4176
(
(497.488 -0.0140457 -7.48851e-09)
(497.474 0.063611 2.11793e-09)
(497.45 0.00158363 -7.42936e-10)
(497.4 0.0902763 -9.22224e-11)
(497.346 0.051141 -2.32595e-10)
(497.271 0.0894562 -5.45235e-10)
(497.181 0.125976 -1.96529e-10)
(497.088 0.0604862 4.91162e-10)
(496.954 0.225361 8.25566e-10)
(496.848 0.00485557 7.19263e-10)
(496.672 0.344457 4.09398e-10)
(496.549 -0.0690701 2.69608e-10)
(496.339 0.469893 3.82134e-11)
(496.192 -0.139461 -2.96017e-10)
(495.956 0.567864 -4.0896e-10)
(495.773 -0.135565 -2.50838e-10)
(495.536 0.528486 -1.93091e-10)
(495.286 0.0236401 -1.50406e-11)
(495.073 0.334855 2.91322e-10)
(494.73 0.32304 1.62404e-10)
(494.576 -0.0166524 -1.24208e-10)
(494.097 0.771388 -1.13558e-10)
(494.067 -0.516454 2.00413e-10)
(493.444 1.44239 3.39164e-10)
(497.47 0.00502416 -7.48761e-09)
(497.455 0.114435 2.11805e-09)
(497.431 0.0766361 -7.43146e-10)
(497.379 0.203182 -9.29998e-11)
(497.325 0.186399 -2.32495e-10)
(497.247 0.264176 -5.44773e-10)
(497.156 0.321874 -1.97069e-10)
(497.059 0.295583 4.91229e-10)
(496.924 0.482308 8.26115e-10)
(496.814 0.29798 7.19264e-10)
(496.636 0.66297 4.08801e-10)
(496.508 0.278742 2.69469e-10)
(496.293 0.850478 3.66003e-11)
(496.142 0.258423 -2.9581e-10)
(495.9 1.01257 -4.0872e-10)
(495.713 0.302119 -2.50313e-10)
(495.47 1.04223 -1.94294e-10)
(495.216 0.510691 -1.51858e-11)
(494.996 0.914404 2.903e-10)
(494.646 0.855164 1.62011e-10)
(494.491 0.628528 -1.24128e-10)
(493.992 1.33085 -1.1587e-10)
(493.956 0.125352 2.01172e-10)
(493.269 1.99237 3.38816e-10)
(497.413 0.0233724 -7.48971e-09)
(497.399 0.161091 2.11718e-09)
(497.375 0.147812 -7.45199e-10)
(497.324 0.307525 -9.20351e-11)
(497.273 0.314002 -2.32763e-10)
(497.195 0.426367 -5.45406e-10)
(497.108 0.505996 -1.94172e-10)
(497.011 0.514812 4.93092e-10)
(496.882 0.723026 8.28023e-10)
(496.772 0.572633 7.19303e-10)
(496.599 0.960744 4.07666e-10)
(496.473 0.606136 2.68527e-10)
(496.263 1.20627 3.82197e-11)
(496.116 0.634005 -2.95595e-10)
(495.877 1.42879 -4.08873e-10)
(495.697 0.713882 -2.4905e-10)
(495.455 1.52274 -1.97057e-10)
(495.209 0.965953 -1.68359e-11)
(494.993 1.4572 2.90941e-10)
(494.653 1.34382 1.6161e-10)
(494.506 1.24778 -1.25029e-10)
(494.016 1.88205 -1.13145e-10)
(493.981 0.838932 2.01518e-10)
(493.271 2.6085 3.39829e-10)
(497.309 0.0421056 -7.48758e-09)
(497.294 0.208598 2.12085e-09)
(497.271 0.220308 -7.46319e-10)
(497.22 0.413846 -8.90227e-11)
(497.169 0.443972 -2.33501e-10)
(497.091 0.591726 -5.49582e-10)
(497.004 0.693554 -1.93854e-10)
(496.907 0.738441 4.90695e-10)
(496.777 0.968236 8.21264e-10)
(496.668 0.852937 7.22581e-10)
(496.494 1.26407 4.08403e-10)
(496.37 0.940484 2.66679e-10)
(496.158 1.56895 3.97357e-11)
(496.013 1.01821 -2.97045e-10)
(495.77 1.85369 -4.15929e-10)
(495.593 1.13538 -2.50257e-10)
(495.346 2.01719 -1.94674e-10)
(495.097 1.4265 -1.72354e-11)
(494.891 2.00933 2.93196e-10)
(494.54 1.84071 1.6102e-10)
(494.399 1.85837 -1.27788e-10)
(493.915 2.41991 -1.13888e-10)
(493.886 1.52592 1.99823e-10)
(493.206 3.20522 3.30438e-10)
(497.157 0.060436 -7.4896e-09)
(497.143 0.255124 2.12729e-09)
(497.12 0.291228 -7.42337e-10)
(497.069 0.518036 -8.90804e-11)
(497.019 0.571108 -2.3023e-10)
(496.941 0.753896 -5.43983e-10)
(496.856 0.877025 -1.95533e-10)
(496.76 0.957984 4.93027e-10)
(496.631 1.20811 8.26815e-10)
(496.524 1.12841 7.2041e-10)
(496.351 1.56086 4.08432e-10)
(496.229 1.26928 2.69463e-10)
(496.018 1.92421 3.62719e-11)
(495.876 1.39596 -2.97924e-10)
(495.634 2.27142 -4.13945e-10)
(495.461 1.55008 -2.52775e-10)
(495.211 2.51254 -1.95808e-10)
(494.966 1.86969 -1.64848e-11)
(494.764 2.55436 2.87708e-10)
(494.411 2.33858 1.66823e-10)
(494.271 2.45288 -1.20024e-10)
(493.793 2.94577 -1.10872e-10)
(493.763 2.16849 2.03486e-10)
(493.103 3.76309 3.41334e-10)
(496.957 0.0787589 -7.50287e-09)
(496.942 0.301356 2.12537e-09)
(496.919 0.361996 -7.4102e-10)
(496.869 0.621643 -9.40645e-11)
(496.819 0.697942 -2.41444e-10)
(496.742 0.915211 -5.48902e-10)
(496.658 1.06006 -1.92871e-10)
(496.561 1.17648 4.89325e-10)
(496.435 1.4474 8.27536e-10)
(496.327 1.40281 7.25772e-10)
(496.157 1.85676 4.08564e-10)
(496.035 1.59724 2.6363e-10)
(495.825 2.27786 3.34969e-11)
(495.685 1.77361 -2.95475e-10)
(495.443 2.68585 -4.16933e-10)
(495.274 1.96905 -2.50183e-10)
(495.018 3.00319 -1.85322e-10)
(494.787 2.31258 -1.36436e-11)
(494.57 3.10387 2.97512e-10)
(494.229 2.8354 1.68989e-10)
(494.084 3.04911 -1.24232e-10)
(493.611 3.47378 -1.21537e-10)
(493.575 2.81537 2.00333e-10)
(492.914 4.32002 3.417e-10)
(496.708 0.0969048 -7.50275e-09)
(496.694 0.346925 2.12304e-09)
(496.671 0.431975 -7.5737e-10)
(496.621 0.723813 -9.41513e-11)
(496.572 0.82332 -2.26828e-10)
(496.495 1.07431 -5.47837e-10)
(496.412 1.24099 -2.03948e-10)
(496.316 1.39203 4.94223e-10)
(496.192 1.68395 8.3433e-10)
(496.084 1.6737 7.20941e-10)
(495.916 2.14922 4.0563e-10)
(495.795 1.92141 2.7448e-10)
(495.588 2.62712 4.91502e-11)
(495.449 2.14762 -2.93579e-10)
(495.208 3.09419 -4.12474e-10)
(495.043 2.38636 -2.46867e-10)
(494.785 3.48282 -1.94829e-10)
(494.565 2.75726 -1.92948e-11)
(494.337 3.65131 2.91982e-10)
(494.01 3.32035 1.66546e-10)
(493.859 3.64418 -1.25629e-10)
(493.392 4.00129 -1.21571e-10)
(493.352 3.472 2.02768e-10)
(492.693 4.88228 3.46891e-10)
(496.411 0.114914 -7.51996e-09)
(496.396 0.39203 2.13378e-09)
(496.374 0.501332 -7.37486e-10)
(496.324 0.824964 -9.08663e-11)
(496.276 0.947529 -2.39786e-10)
(496.199 1.23181 -5.44784e-10)
(496.118 1.42018 -1.87089e-10)
(496.022 1.60544 4.93406e-10)
(495.899 1.91816 8.16392e-10)
(495.793 1.94199 7.18471e-10)
(495.626 2.43875 4.16329e-10)
(495.506 2.24268 2.68614e-10)
(495.301 2.97278 2.33989e-11)
(495.164 2.51865 -3.02272e-10)
(494.924 3.49801 -4.05418e-10)
(494.763 2.80116 -2.5492e-10)
(494.504 3.95505 -1.91253e-10)
(494.292 3.19955 -2.73341e-12)
(494.059 4.19409 2.9581e-10)
(493.742 3.80092 1.51835e-10)
(493.586 4.23734 -1.25811e-10)
(493.127 4.52392 -1.05386e-10)
(493.083 4.12338 2.00388e-10)
(492.431 5.43731 3.23849e-10)
(496.065 0.132741 -7.5339e-09)
(496.051 0.43658 2.1208e-09)
(496.029 0.569906 -7.5982e-10)
(495.979 0.924889 -1.03269e-10)
(495.931 1.07028 -2.40029e-10)
(495.855 1.38737 -5.52996e-10)
(495.775 1.59719 -2.02042e-10)
(495.68 1.81619 4.90761e-10)
(495.559 2.14945 8.23381e-10)
(495.454 2.20698 7.15452e-10)
(495.289 2.7246 4.04344e-10)
(495.17 2.56019 2.66873e-10)
(494.967 3.31397 3.15917e-11)
(494.832 2.88569 -3.01081e-10)
(494.594 3.8964 -4.12142e-10)
(494.436 3.21212 -2.51812e-10)
(494.177 4.4188 -1.95567e-10)
(493.973 3.63888 -1.37815e-11)
(493.735 4.73005 2.92348e-10)
(493.43 4.2749 1.58703e-10)
(493.268 4.82788 -1.2778e-10)
(492.818 5.04176 -1.16385e-10)
(492.77 4.77043 2.02307e-10)
(492.127 5.98571 3.40398e-10)
(495.671 0.150385 -7.52031e-09)
(495.656 0.480585 2.15033e-09)
(495.635 0.637693 -7.41381e-10)
(495.585 1.02361 -8.03418e-11)
(495.539 1.19157 -2.21628e-10)
(495.463 1.54104 -5.35881e-10)
(495.384 1.77201 -1.84683e-10)
(495.29 2.02432 5.087e-10)
(495.17 2.37777 8.42223e-10)
(495.066 2.46865 7.32272e-10)
(494.903 3.00668 4.22549e-10)
(494.787 2.87381 2.82522e-10)
(494.585 3.65057 4.98899e-11)
(494.453 3.24848 -2.8854e-10)
(494.216 4.28926 -3.98574e-10)
(494.062 3.61895 -2.41077e-10)
(493.803 4.87442 -1.81699e-10)
(493.607 4.07444 -2.82415e-12)
(493.364 5.25849 3.06218e-10)
(493.071 4.74261 1.70267e-10)
(492.903 5.41384 -1.15659e-10)
(492.463 5.55298 -1.04142e-10)
(492.412 5.41122 2.11951e-10)
(491.779 6.52577 3.49775e-10)
(495.228 0.167817 -7.5441e-09)
(495.214 0.523987 2.14001e-09)
(495.193 0.704594 -7.51643e-10)
(495.144 1.121 -8.80573e-11)
(495.098 1.31125 -2.28627e-10)
(495.023 1.69264 -5.43879e-10)
(494.945 1.94445 -1.8934e-10)
(494.852 2.22961 5.07612e-10)
(494.734 2.60289 8.41061e-10)
(494.631 2.72671 7.30734e-10)
(494.47 3.28464 4.22715e-10)
(494.355 3.1831 2.84806e-10)
(494.155 3.98211 5.22389e-11)
(494.026 3.60645 -2.86988e-10)
(493.791 4.67609 -3.93988e-10)
(493.641 4.02092 -2.35037e-10)
(493.382 5.32178 -1.74175e-10)
(493.194 4.50572 3.40343e-12)
(492.947 5.77852 3.1666e-10)
(492.666 5.20341 1.80997e-10)
(492.492 5.9937 -1.27365e-10)
(492.065 6.05668 -1.37939e-10)
(492.009 6.0452 1.82983e-10)
(491.386 7.05699 3.18895e-10)
(494.737 0.185015 -7.55584e-09)
(494.723 0.566744 2.14391e-09)
(494.702 0.77053 -7.55575e-10)
(494.653 1.21698 -9.37288e-11)
(494.608 1.42919 -2.33991e-10)
(494.534 1.84205 -5.49876e-10)
(494.457 2.11437 -1.96964e-10)
(494.365 2.43194 4.98457e-10)
(494.249 2.82463 8.31858e-10)
(494.147 2.98099 7.21509e-10)
(493.988 3.5583 4.12062e-10)
(493.875 3.48781 2.75339e-10)
(493.678 4.30832 4.09452e-11)
(493.551 3.95919 -2.96906e-10)
(493.318 5.05652 -4.08651e-10)
(493.172 4.41743 -2.48701e-10)
(492.915 5.76094 -1.91262e-10)
(492.733 4.93234 -9.92654e-12)
(492.483 6.28965 2.98199e-10)
(492.214 5.65793 1.62503e-10)
(492.035 6.56482 -1.22467e-10)
(491.62 6.55052 -1.08478e-10)
(491.561 6.67241 2.0922e-10)
(490.95 7.57888 3.45659e-10)
(494.197 0.201951 -7.56854e-09)
(494.183 0.608795 2.14477e-09)
(494.162 0.835401 -7.62531e-10)
(494.114 1.31141 -9.98907e-11)
(494.07 1.54523 -2.42637e-10)
(493.997 1.9891 -5.62283e-10)
(493.921 2.28156 -2.11e-10)
(493.83 2.63109 4.8275e-10)
(493.715 3.04278 8.15829e-10)
(493.616 3.23126 7.0309e-10)
(493.459 3.82738 3.85722e-10)
(493.348 3.78765 2.48975e-10)
(493.152 4.62886 7.69054e-12)
(493.029 4.30627 -3.02719e-10)
(492.798 5.43009 -3.84882e-10)
(492.656 4.80779 -2.31322e-10)
(492.4 6.19176 -1.73082e-10)
(492.225 5.35392 2.50626e-12)
(491.973 6.79111 3.10752e-10)
(491.715 6.10449 1.72791e-10)
(491.532 7.12738 -1.14336e-10)
(491.13 7.03462 -1.03169e-10)
(491.068 7.29078 2.14857e-10)
(490.468 8.09086 3.49124e-10)
(493.608 0.2186 -7.57338e-09)
(493.594 0.650088 2.17052e-09)
(493.574 0.899115 -7.6451e-10)
(493.526 1.40417 -1.19436e-10)
(493.483 1.6592 -2.4602e-10)
(493.41 2.13359 -5.53571e-10)
(493.336 2.4458 -1.89365e-10)
(493.247 2.82683 5.21177e-10)
(493.134 3.25707 8.36237e-10)
(493.036 3.47726 7.04013e-10)
(492.881 4.09165 3.9871e-10)
(492.772 4.08235 2.72173e-10)
(492.579 4.94347 4.95806e-11)
(492.459 4.64734 -2.83856e-10)
(492.23 5.79646 -4.18188e-10)
(492.093 5.1915 -2.7217e-10)
(491.838 6.61383 -2.09397e-10)
(491.67 5.76987 -1.60542e-11)
(491.417 7.28248 3.05036e-10)
(491.17 6.54285 1.78441e-10)
(490.983 7.68053 -1.26745e-10)
(490.594 7.50775 -1.31876e-10)
(490.529 7.8991 1.98358e-10)
(489.942 8.5924 3.46744e-10)
(492.97 0.23494 -7.60293e-09)
(492.956 0.690572 2.13351e-09)
(492.937 0.961582 -7.56815e-10)
(492.889 1.49515 -6.30721e-11)
(492.847 1.77095 -2.20765e-10)
(492.776 2.27532 -5.50991e-10)
(492.703 2.60683 -2.08925e-10)
(492.615 3.01888 4.76474e-10)
(492.504 3.4672 8.34664e-10)
(492.407 3.71868 7.46636e-10)
(492.255 4.35077 4.19496e-10)
(492.149 4.37159 2.66151e-10)
(491.958 5.25184 1.47612e-11)
(491.841 4.98204 -3.0576e-10)
(491.615 6.15528 -3.94278e-10)
(491.482 5.56807 -2.4299e-10)
(491.23 7.0267 -1.99084e-10)
(491.068 6.17946 -2.73367e-11)
(490.814 7.76315 2.64416e-10)
(490.579 6.97264 1.49286e-10)
(490.387 8.22392 -1.13846e-10)
(490.011 7.96913 -1.07472e-10)
(489.944 8.4961 1.98889e-10)
(489.37 9.08296 3.21826e-10)
(492.283 0.250948 -7.60254e-09)
(492.269 0.730202 2.18655e-09)
(492.25 1.02272 -7.65091e-10)
(492.203 1.58422 -1.23069e-10)
(492.162 1.8803 -2.48641e-10)
(492.092 2.4141 -5.51881e-10)
(492.02 2.76442 -1.80463e-10)
(491.934 3.20695 5.31122e-10)
(491.825 3.67286 8.40057e-10)
(491.73 3.95515 7.06463e-10)
(491.58 4.60439 4.05275e-10)
(491.477 4.65498 2.79752e-10)
(491.289 5.55362 5.87683e-11)
(491.175 5.31003 -3.09685e-10)
(490.952 6.50624 -4.50956e-10)
(490.824 5.93708 -2.68315e-10)
(490.573 7.43 -1.99345e-10)
(490.419 6.58187 -2.33376e-12)
(490.164 8.23233 3.20469e-10)
(489.94 7.39362 1.5574e-10)
(489.745 8.75688 -1.52895e-10)
(489.384 8.41844 -1.2054e-10)
(489.313 9.08118 2.12692e-10)
(488.753 9.56184 3.59803e-10)
(491.546 0.266605 -7.63291e-09)
(491.533 0.768933 2.15319e-09)
(491.514 1.08246 -7.85064e-10)
(491.468 1.67127 -1.2715e-10)
(491.428 1.98711 -2.38464e-10)
(491.358 2.54972 -5.25811e-10)
(491.288 2.9183 -1.76362e-10)
(491.204 3.39074 5.14074e-10)
(491.097 3.87367 8.38264e-10)
(491.005 4.1863 7.18537e-10)
(490.858 4.85209 3.94114e-10)
(490.757 4.93209 2.47971e-10)
(490.572 5.8484 3.89109e-11)
(490.462 5.63087 -2.79496e-10)
(490.241 6.849 -4.00611e-10)
(490.118 6.29813 -2.44909e-10)
(489.87 7.82349 -1.95654e-10)
(489.722 6.97626 -1.8633e-11)
(489.468 8.68922 2.78407e-10)
(489.255 7.80545 1.32526e-10)
(489.057 9.27787 -1.64604e-10)
(488.71 8.85634 -1.17164e-10)
(488.635 9.65481 2.31059e-10)
(488.091 10.0277 3.5701e-10)
(490.76 0.281884 -7.64172e-09)
(490.746 0.806712 2.18206e-09)
(490.728 1.14071 -7.52916e-10)
(490.683 1.75619 -7.27529e-11)
(490.644 2.09121 -2.15625e-10)
(490.576 2.68199 -5.30829e-10)
(490.508 3.06823 -1.68225e-10)
(490.425 3.56997 5.39746e-10)
(490.32 4.06931 8.80408e-10)
(490.23 4.41172 7.31321e-10)
(490.086 5.09342 3.78187e-10)
(489.988 5.20243 2.44377e-10)
(489.806 6.13569 5.65477e-12)
(489.7 5.94407 -3.31739e-10)
(489.483 7.18311 -4.43068e-10)
(489.364 6.65081 -2.70132e-10)
(489.119 8.20692 -2.12637e-10)
(488.977 7.36187 -2.19562e-11)
(488.724 9.13314 2.91692e-10)
(488.524 8.20783 1.60863e-10)
(488.322 9.78649 -1.21177e-10)
(487.99 9.28239 -1.02703e-10)
(487.91 10.2161 2.20391e-10)
(487.382 10.4802 3.61538e-10)
(489.924 0.296759 -7.66593e-09)
(489.91 0.843477 2.17344e-09)
(489.893 1.19736 -7.75253e-10)
(489.848 1.83883 -9.93137e-11)
(489.81 2.19243 -2.48881e-10)
(489.743 2.8107 -5.74878e-10)
(489.677 3.21397 -2.13775e-10)
(489.596 3.74434 4.91287e-10)
(489.494 4.25942 8.23601e-10)
(489.407 4.63102 7.08002e-10)
(489.265 5.32794 3.91331e-10)
(489.171 5.46551 2.48612e-10)
(488.992 6.41498 1.02404e-12)
(488.89 6.24906 -3.40496e-10)
(488.676 7.50805 -4.61534e-10)
(488.563 6.99456 -2.93051e-10)
(488.321 8.57983 -1.99944e-10)
(488.186 7.73821 1.9071e-11)
(487.934 9.56365 3.31817e-10)
(487.745 8.60036 1.87098e-10)
(487.54 10.2822 -1.00482e-10)
(487.224 9.69626 -9.13335e-11)
(487.14 10.7646 2.29107e-10)
(486.628 10.9187 3.66308e-10)
(489.037 0.311194 -7.70035e-09)
(489.024 0.879149 2.1897e-09)
(489.007 1.25229 -7.47992e-10)
(488.963 1.91904 -9.47143e-11)
(488.926 2.29056 -2.2361e-10)
(488.861 2.93562 -5.26388e-10)
(488.797 3.35524 -1.91758e-10)
(488.718 3.91357 4.88795e-10)
(488.618 4.44369 8.43394e-10)
(488.534 4.84385 7.48077e-10)
(488.395 5.55525 4.05218e-10)
(488.305 5.72087 2.78325e-10)
(488.13 6.68574 5.06367e-11)
(488.031 6.54526 -3.2111e-10)
(487.822 7.82324 -4.16899e-10)
(487.713 7.32875 -2.33445e-10)
(487.475 8.94169 -2.04889e-10)
(487.347 8.10471 -4.32055e-11)
(487.097 9.98036 2.82483e-10)
(486.919 8.98263 1.60091e-10)
(486.712 10.7646 -1.53975e-10)
(486.41 10.0976 -1.19273e-10)
(486.322 11.2995 2.17232e-10)
(485.828 11.3428 3.30248e-10)
(488.1 0.325152 -7.69966e-09)
(488.087 0.91364 2.20669e-09)
(488.071 1.30537 -7.50427e-10)
(488.028 1.99662 -6.05538e-11)
(487.992 2.38539 -2.05937e-10)
(487.929 3.0565 -5.65262e-10)
(487.866 3.49177 -2.37402e-10)
(487.79 4.07736 4.81518e-10)
(487.693 4.62178 8.27109e-10)
(487.611 5.04984 7.17995e-10)
(487.476 5.77496 4.05671e-10)
(487.389 5.96806 2.74182e-10)
(487.218 6.94749 4.09986e-11)
(487.124 6.83212 -2.96427e-10)
(486.918 8.1281 -3.98925e-10)
(486.816 7.6527 -2.29465e-10)
(486.581 9.29191 -1.6682e-10)
(486.46 8.46067 -1.85137e-11)
(486.213 10.3829 2.54665e-10)
(486.046 9.35425 1.27683e-10)
(485.837 11.2328 -1.54449e-10)
(485.551 10.4862 -1.31857e-10)
(485.458 11.8204 1.91333e-10)
(484.981 11.7522 3.39657e-10)
(487.113 0.338591 -7.73931e-09)
(487.1 0.94686 2.16498e-09)
(487.084 1.35644 -7.76168e-10)
(487.042 2.07139 -6.05432e-11)
(487.008 2.47666 -2.29988e-10)
(486.946 3.17306 -5.66504e-10)
(486.886 3.62326 -2.13507e-10)
(486.812 4.23538 5.26916e-10)
(486.718 4.79336 8.92288e-10)
(486.639 5.24867 7.57237e-10)
(486.508 5.98668 4.20823e-10)
(486.424 6.20668 2.60739e-10)
(486.257 7.1998 -3.59793e-12)
(486.168 7.10911 -3.1995e-10)
(485.966 8.42208 -4.0489e-10)
(485.869 7.96576 -2.51549e-10)
(485.638 9.62985 -2.11977e-10)
(485.525 8.80529 -3.98911e-11)
(485.281 10.7709 3.00218e-10)
(485.125 9.71488 1.83201e-10)
(484.914 11.6861 -1.20895e-10)
(484.644 10.8615 -1.23345e-10)
(484.548 12.3267 1.78088e-10)
(484.089 12.1463 3.45008e-10)
(486.075 0.351474 -7.7643e-09)
(486.062 0.978723 2.17205e-09)
(486.047 1.40537 -7.78919e-10)
(486.006 2.14315 -5.5307e-11)
(485.973 2.56415 -2.20694e-10)
(485.913 3.28502 -5.62541e-10)
(485.855 3.74938 -2.13371e-10)
(485.783 4.38731 4.78903e-10)
(485.692 4.95808 8.44747e-10)
(485.617 5.43996 7.63797e-10)
(485.489 6.19006 4.31541e-10)
(485.409 6.43636 2.70674e-10)
(485.246 7.44225 6.32437e-12)
(485.162 7.3758 -3.11785e-10)
(484.965 8.70467 -3.95518e-10)
(484.874 8.26734 -2.47194e-10)
(484.648 9.95487 -2.07127e-10)
(484.542 9.13771 -3.07966e-11)
(484.301 11.144 3.11338e-10)
(484.156 10.0641 1.92393e-10)
(483.944 12.1234 -1.11131e-10)
(483.691 11.223 -1.14526e-10)
(483.59 12.818 1.93429e-10)
(483.15 12.5249 3.18461e-10)
(484.985 0.36377 -7.79498e-09)
(484.973 1.00916 2.21951e-09)
(484.959 1.45204 -7.56382e-10)
(484.919 2.21174 -9.90511e-11)
(484.888 2.64764 -2.77153e-10)
(484.829 3.39213 -5.80021e-10)
(484.774 3.86985 -1.87545e-10)
(484.705 4.53281 4.96726e-10)
(484.617 5.11557 8.52428e-10)
(484.545 5.62334 7.55396e-10)
(484.421 6.3847 4.06003e-10)
(484.345 6.65671 2.85981e-10)
(484.186 7.67446 6.43361e-11)
(484.107 7.63177 -3.17797e-10)
(483.915 8.97546 -4.65952e-10)
(483.83 8.55694 -2.71277e-10)
(483.608 10.2665 -1.91336e-10)
(483.51 9.45723 -2.59762e-11)
(483.273 11.5018 3.06811e-10)
(483.138 10.4013 1.78907e-10)
(482.927 12.5439 -1.37824e-10)
(482.689 11.5698 -1.00661e-10)
(482.585 13.2931 2.45054e-10)
(482.164 12.8874 3.52628e-10)
(483.845 0.375457 -7.78793e-09)
(483.833 1.03811 2.25066e-09)
(483.819 1.49636 -7.43652e-10)
(483.78 2.27703 -8.78821e-11)
(483.751 2.72696 -2.72683e-10)
(483.695 3.49417 -5.81654e-10)
(483.642 3.98438 -1.92683e-10)
(483.575 4.67156 5.42177e-10)
(483.491 5.26546 8.9282e-10)
(483.422 5.79842 7.36308e-10)
(483.302 6.5702 3.79397e-10)
(483.231 6.86734 2.55398e-10)
(483.077 7.89601 2.57934e-11)
(483.003 7.87664 -3.08953e-10)
(482.815 9.23405 -4.06418e-10)
(482.737 8.83412 -2.22221e-10)
(482.52 10.5642 -2.0254e-10)
(482.43 9.76333 -4.5105e-11)
(482.196 11.8436 2.80007e-10)
(482.073 10.7257 1.50629e-10)
(481.861 12.9468 -1.21953e-10)
(481.64 11.9012 -9.10508e-11)
(481.534 13.7509 2.51308e-10)
(481.132 13.2332 3.53567e-10)
(482.654 0.38652 -7.80754e-09)
(482.641 1.06555 2.22769e-09)
(482.629 1.53827 -8.05816e-10)
(482.591 2.33892 -7.62533e-11)
(482.564 2.80196 -2.46526e-10)
(482.509 3.59094 -5.88942e-10)
(482.459 4.09273 -1.76105e-10)
(482.395 4.80326 5.22401e-10)
(482.314 5.40742 8.34684e-10)
(482.249 5.96484 7.54579e-10)
(482.133 6.74614 4.19169e-10)
(482.066 7.06781 2.55805e-10)
(481.917 8.10649 4.80373e-11)
(481.848 8.11 -3.20578e-10)
(481.666 9.48004 -4.59024e-10)
(481.594 9.09849 -2.53028e-10)
(481.382 10.8476 -2.1406e-10)
(481.3 10.0555 -3.49907e-11)
(481.071 12.1691 3.0974e-10)
(480.958 11.0368 1.4593e-10)
(480.747 13.3316 -1.62172e-10)
(480.543 12.2163 -1.10901e-10)
(480.434 14.19 1.92196e-10)
(480.052 13.5617 3.19283e-10)
(481.411 0.396947 -7.8919e-09)
(481.399 1.09144 2.21031e-09)
(481.387 1.57772 -8.0895e-10)
(481.351 2.39735 -1.06084e-10)
(481.325 2.87255 -2.47071e-10)
(481.272 3.68232 -5.67359e-10)
(481.225 4.19473 -1.87203e-10)
(481.164 4.9277 5.42213e-10)
(481.086 5.54116 8.83181e-10)
(481.025 6.12223 7.6782e-10)
(480.914 6.91213 4.5458e-10)
(480.851 7.25771 2.61794e-10)
(480.707 8.30546 1.86512e-11)
(480.644 8.3314 -3.27394e-10)
(480.467 9.71301 -4.37083e-10)
(480.401 9.34963 -2.58553e-10)
(480.194 11.1164 -1.96807e-10)
(480.12 10.3333 1.30544e-12)
(479.897 12.4779 3.22662e-10)
(479.794 11.3338 1.76543e-10)
(479.585 13.6976 -1.62836e-10)
(479.397 12.5148 -1.36404e-10)
(479.286 14.6098 1.93299e-10)
(478.924 13.8726 3.35904e-10)
(480.117 0.406728 -7.87741e-09)
(480.105 1.11576 2.27095e-09)
(480.094 1.61467 -7.55047e-10)
(480.059 2.45226 -9.38611e-11)
(480.035 2.93866 -2.82111e-10)
(479.984 3.76821 -5.99121e-10)
(479.939 4.29024 -2.04348e-10)
(479.882 5.0447 5.38728e-10)
(479.808 5.66644 8.86063e-10)
(479.75 6.27033 7.81457e-10)
(479.643 7.06782 4.20032e-10)
(479.586 7.43664 2.39412e-10)
(479.446 8.49246 6.33381e-12)
(479.389 8.5404 -3.34293e-10)
(479.217 9.93251 -4.3256e-10)
(479.159 9.58712 -2.42649e-10)
(478.957 11.3702 -1.67094e-10)
(478.892 10.5964 3.8756e-11)
(478.673 12.7698 3.12048e-10)
(478.581 11.6158 1.24581e-10)
(478.374 14.0436 -1.51338e-10)
(478.203 12.7973 -1.15527e-10)
(478.088 15.011 2.29349e-10)
(477.748 14.1659 3.84843e-10)
(478.772 0.41585 -7.89191e-09)
(478.76 1.13849 2.24666e-09)
(478.75 1.64909 -8.33937e-10)
(478.716 2.50359 -1.00494e-10)
(478.693 3.00021 -2.12326e-10)
(478.645 3.84852 -5.63767e-10)
(478.603 4.37917 -2.16152e-10)
(478.548 5.15413 5.41347e-10)
(478.478 5.78312 8.53152e-10)
(478.424 6.40893 7.06207e-10)
(478.322 7.21295 4.208e-10)
(478.269 7.60428 3.09786e-10)
(478.135 8.66711 3.06262e-11)
(478.083 8.73653 -3.47111e-10)
(477.918 10.1381 -4.27843e-10)
(477.866 9.81046 -2.20594e-10)
(477.67 11.6086 -1.92069e-10)
(477.613 10.8443 -2.64069e-11)
(477.399 13.0445 3.26043e-10)
(477.318 11.882 1.51561e-10)
(477.115 14.3686 -1.70605e-10)
(476.96 13.0636 -1.20994e-10)
(476.843 15.3927 2.42309e-10)
(476.523 14.4404 3.58809e-10)
(477.375 0.424296 -7.98051e-09)
(477.363 1.15959 2.22805e-09)
(477.354 1.68092 -8.25095e-10)
(477.321 2.55127 -1.13615e-10)
(477.301 3.05713 -2.61083e-10)
(477.255 3.92317 -5.90683e-10)
(477.215 4.46142 -2.03994e-10)
(477.163 5.25592 5.31561e-10)
(477.097 5.89108 8.6863e-10)
(477.047 6.5379 7.44686e-10)
(476.949 7.34734 4.27783e-10)
(476.902 7.76039 2.92489e-10)
(476.773 8.82908 4.30612e-11)
(476.727 8.91943 -3.13504e-10)
(476.567 10.3293 -4.2283e-10)
(476.522 10.0192 -2.43695e-10)
(476.333 11.831 -1.85797e-10)
(476.284 11.0766 7.55517e-12)
(476.076 13.3015 3.33971e-10)
(476.005 12.1321 1.84925e-10)
(475.805 14.6718 -1.01454e-10)
(475.668 13.3119 -1.43131e-10)
(475.549 15.7553 1.8122e-10)
(475.249 14.6978 3.32023e-10)
(475.926 0.43205 -7.93456e-09)
(475.915 1.17901 2.30018e-09)
(475.907 1.71009 -7.86138e-10)
(475.875 2.59523 -7.41061e-11)
(475.856 3.10932 -2.31119e-10)
(475.812 3.99207 -5.66656e-10)
(475.776 4.5369 -1.85229e-10)
(475.727 5.34996 5.4699e-10)
(475.664 5.99024 8.7822e-10)
(475.619 6.65718 7.46807e-10)
(475.525 7.47088 4.22264e-10)
(475.483 7.90486 2.74693e-10)
(475.359 8.97817 1.72477e-11)
(475.32 9.08882 -3.38945e-10)
(475.165 10.5056 -4.62954e-10)
(475.128 10.2128 -2.90961e-10)
(474.945 12.0371 -2.38332e-10)
(474.905 11.2926 1.94209e-11)
(474.702 13.5405 3.35851e-10)
(474.642 12.3657 1.74226e-10)
(474.446 14.9531 -1.14567e-10)
(474.325 13.5427 -1.04133e-10)
(474.204 16.0966 2.20296e-10)
(473.927 14.9357 3.61565e-10)
(474.426 0.439098 -7.98189e-09)
(474.415 1.19673 2.28108e-09)
(474.408 1.73657 -8.2685e-10)
(474.377 2.63539 -7.45914e-11)
(474.361 3.15672 -2.44298e-10)
(474.319 4.05512 -5.95026e-10)
(474.285 4.60553 -1.72442e-10)
(474.24 5.43618 5.43395e-10)
(474.18 6.08052 8.622e-10)
(474.139 6.76669 7.74591e-10)
(474.05 7.58351 4.29603e-10)
(474.012 8.03763 2.68975e-10)
(473.894 9.11428 5.59955e-11)
(473.861 9.24458 -3.21975e-10)
(473.712 10.667 -4.58098e-10)
(473.683 10.391 -2.43499e-10)
(473.506 12.2262 -2.05773e-10)
(473.474 11.4918 -2.7076e-11)
(473.278 13.761 3.37474e-10)
(473.228 12.5821 1.63027e-10)
(473.038 15.2128 -1.54907e-10)
(472.932 13.7568 -9.2649e-11)
(472.809 16.4149 2.21738e-10)
(472.555 15.1524 3.39841e-10)
(472.875 0.44543 -8.06396e-09)
(472.864 1.21274 2.29004e-09)
(472.857 1.76032 -7.92331e-10)
(472.828 2.67171 -1.15622e-10)
(472.813 3.19926 -2.38744e-10)
(472.774 4.11226 -5.49733e-10)
(472.743 4.66721 -2.11053e-10)
(472.7 5.51448 5.52789e-10)
(472.645 6.16183 9.11182e-10)
(472.607 6.86638 7.3796e-10)
(472.523 7.68518 4.3699e-10)
(472.491 8.15868 3.20514e-10)
(472.377 9.23738 2.26768e-11)
(472.35 9.38668 -3.17215e-10)
(472.208 10.8132 -4.0598e-10)
(472.186 10.5535 -2.74424e-10)
(472.015 12.398 -1.99591e-10)
(471.993 11.6738 2.10913e-11)
(471.803 13.9623 3.05123e-10)
(471.764 12.7803 1.69248e-10)
(471.578 15.4508 -1.01418e-10)
(471.488 13.954 -1.21909e-10)
(471.363 16.7102 2.29534e-10)
(471.132 15.3487 3.88131e-10)
(471.271 0.451048 -8.05809e-09)
(471.261 1.22702 2.33662e-09)
(471.255 1.78134 -7.63535e-10)
(471.227 2.70419 -8.07946e-11)
(471.214 3.23693 -2.78268e-10)
(471.177 4.16345 -5.92739e-10)
(471.148 4.7219 -1.78201e-10)
(471.109 5.5848 5.82522e-10)
(471.058 6.23409 9.41261e-10)
(471.024 6.95615 7.73435e-10)
(470.944 7.7758 3.9761e-10)
(470.917 8.26796 2.7601e-10)
(470.809 9.34744 4.94326e-11)
(470.788 9.51515 -2.93198e-10)
(470.652 10.9442 -3.8697e-10)
(470.637 10.7005 -2.56336e-10)
(470.472 12.5525 -2.48527e-10)
(470.459 11.8381 -2.12676e-11)
(470.276 14.144 3.20505e-10)
(470.248 12.9597 1.81815e-10)
(470.068 15.6669 -8.12041e-11)
(469.992 14.1345 -1.10529e-10)
(469.867 16.9817 1.7596e-10)
(469.659 15.5237 3.41605e-10)
(469.616 0.455957 -8.14995e-09)
(469.606 1.23959 2.27136e-09)
(469.601 1.79966 -8.51646e-10)
(469.574 2.73284 -1.3029e-10)
(469.563 3.26973 -2.79236e-10)
(469.528 4.2087 -6.15645e-10)
(469.502 4.76958 -2.24745e-10)
(469.466 5.64711 5.17084e-10)
(469.418 6.29725 8.57391e-10)
(469.389 7.03593 7.28697e-10)
(469.314 7.85529 3.98475e-10)
(469.292 8.3654 2.56848e-10)
(469.189 9.44438 1.33652e-12)
(469.174 9.62997 -3.5942e-10)
(469.044 11.0601 -4.78361e-10)
(469.036 10.8319 -2.94921e-10)
(468.878 12.6896 -2.42215e-10)
(468.874 11.9848 -3.95847e-11)
(468.697 14.3059 2.80151e-10)
(468.681 13.1196 1.2748e-10)
(468.506 15.8604 -1.72789e-10)
(468.445 14.2977 -1.47068e-10)
(468.32 17.229 1.83943e-10)
(468.135 15.6773 3.30832e-10)
(467.909 0.460169 -8.11756e-09)
(467.899 1.25049 2.31972e-09)
(467.894 1.81531 -8.42388e-10)
(467.869 2.75772 -6.61044e-11)
(467.86 3.29775 -2.40006e-10)
(467.827 4.24806 -5.96683e-10)
(467.804 4.81031 -1.57192e-10)
(467.771 5.70143 5.6853e-10)
(467.727 6.3513 8.88106e-10)
(467.702 7.10568 8.06085e-10)
(467.631 7.92356 4.54666e-10)
(467.614 8.45088 2.84293e-10)
(467.517 9.52809 7.75208e-11)
(467.508 9.73107 -3.08512e-10)
(467.384 11.1609 -4.44921e-10)
(467.384 10.9478 -2.82597e-10)
(467.232 12.8095 -2.49974e-10)
(467.237 12.1142 -1.48427e-12)
(467.066 14.4481 3.03373e-10)
(467.061 13.2601 1.27946e-10)
(466.892 16.0309 -1.23615e-10)
(466.846 14.4424 -1.22928e-10)
(466.722 17.451 1.85025e-10)
(466.56 15.8093 3.75342e-10)
(466.149 0.463698 -8.14435e-09)
(466.14 1.25974 2.33753e-09)
(466.136 1.82835 -8.39686e-10)
(466.112 2.77889 -5.88886e-11)
(466.104 3.32103 -2.34051e-10)
(466.074 4.28161 -5.9182e-10)
(466.054 4.84416 -1.50184e-10)
(466.024 5.74783 5.78635e-10)
(465.984 6.39628 8.9838e-10)
(465.962 7.16541 7.46594e-10)
(465.896 7.98058 3.9304e-10)
(465.885 8.52433 2.98603e-10)
(465.793 9.59844 2.11956e-11)
(465.79 9.81829 -3.6323e-10)
(465.672 11.2463 -4.32538e-10)
(465.68 11.0482 -2.70225e-10)
(465.533 12.9122 -2.36701e-10)
(465.547 12.2262 1.17507e-11)
(465.383 14.571 3.19818e-10)
(465.388 13.3813 1.40939e-10)
(465.226 16.179 -1.10101e-10)
(465.193 14.5672 -1.11126e-10)
(465.072 17.6461 2.07264e-10)
(464.933 15.9199 3.95636e-10)
(464.338 0.466552 -8.19752e-09)
(464.329 1.26736 2.39446e-09)
(464.326 1.83882 -8.16262e-10)
(464.303 2.7964 -1.17822e-10)
(464.297 3.33967 -2.3505e-10)
(464.268 4.30943 -5.36191e-10)
(464.251 4.87122 -1.77599e-10)
(464.224 5.78641 5.32043e-10)
(464.188 6.43228 9.08888e-10)
(464.17 7.2152 8.12043e-10)
(464.109 8.02639 4.43405e-10)
(464.102 8.58575 2.64992e-10)
(464.016 9.65534 4.22629e-11)
(464.02 9.89151 -2.90718e-10)
(463.907 11.3161 -4.48312e-10)
(463.923 11.1329 -2.97277e-10)
(463.783 12.9974 -2.08605e-10)
(463.806 12.321 2.51864e-11)
(463.647 14.6745 3.21976e-10)
(463.664 13.4836 1.28728e-10)
(463.507 16.3053 -1.40143e-10)
(463.488 14.6713 -9.26208e-11)
(463.371 17.8127 2.15766e-10)
(463.254 16.0087 3.28152e-10)
(462.475 0.468739 -8.26032e-09)
(462.465 1.27337 2.3342e-09)
(462.463 1.84674 -8.53797e-10)
(462.442 2.81028 -1.3318e-10)
(462.437 3.3537 -2.98029e-10)
(462.411 4.33159 -6.47396e-10)
(462.396 4.89158 -1.84656e-10)
(462.372 5.81725 6.28266e-10)
(462.339 6.45941 9.61943e-10)
(462.326 7.25515 8.21892e-10)
(462.269 8.06106 4.73055e-10)
(462.267 8.63519 3.14265e-10)
(462.186 9.6988 4.93283e-11)
(462.197 9.95067 -3.26159e-10)
(462.09 11.3703 -4.57138e-10)
(462.113 11.2016 -2.84613e-10)
(461.98 13.0648 -2.3857e-10)
(462.012 12.3983 -3.99264e-11)
(461.86 14.7585 2.72277e-10)
(461.888 13.567 1.09797e-10)
(461.736 16.4101 -1.339e-10)
(461.731 14.7555 -6.09152e-11)
(461.616 17.951 2.76199e-10)
(461.523 16.0751 4.05581e-10)
(460.558 0.47026 -8.32412e-09)
(460.549 1.27778 2.35244e-09)
(460.548 1.85213 -8.23403e-10)
(460.528 2.82056 -1.4094e-10)
(460.525 3.36316 -2.78664e-10)
(460.5 4.34812 -5.98062e-10)
(460.488 4.90527 -1.77725e-10)
(460.468 5.84043 5.95473e-10)
(460.438 6.47774 8.80724e-10)
(460.429 7.28536 7.67635e-10)
(460.376 8.08471 4.52883e-10)
(460.38 8.67278 2.52075e-10)
(460.304 9.7289 1.28391e-11)
(460.32 9.99583 -3.34568e-10)
(460.22 11.4087 -4.37034e-10)
(460.251 11.2541 -2.38081e-10)
(460.123 13.1141 -2.31841e-10)
(460.166 12.4576 -6.63082e-12)
(460.02 14.8225 3.40913e-10)
(460.059 13.6312 1.22978e-10)
(459.913 16.4933 -1.65075e-10)
(459.922 14.82 -1.18776e-10)
(459.811 18.0618 2.40024e-10)
(459.738 16.1197 3.94177e-10)
(458.589 0.471113 -8.29036e-09)
(458.58 1.28057 2.38689e-09)
(458.58 1.85498 -8.47868e-10)
(458.561 2.82722 -1.26342e-10)
(458.56 3.36804 -2.93683e-10)