/*--------------------------------*- C++ -*----------------------------------*\
  =========                 |
  \\      /  F ield         | OpenFOAM: The Open Source CFD Toolbox
   \\    /   O peration     | Website:  https://openfoam.org
    \\  /    A nd           | Version:  10
     \\/     M anipulation  |
\*---------------------------------------------------------------------------*/
FoamFile
{
    format      ascii;
    class       volScalarField;
    location    "0.03";
    object      Ma;
}
// * * * * * * * * * * * * * * * * * * * * * * * * * * * * * * * * * * * * * //

dimensions      [0 0 0 0 0 0 0];

internalField   nonuniform List<scalar> 
4176
(
0.913745
0.913712
0.913666
0.913604
0.913512
0.913405
0.913266
0.913114
0.912929
0.912731
0.912499
0.912254
0.911979
0.911675
0.911369
0.910989
0.910674
0.910182
0.909911
0.909251
0.909066
0.908243
0.908159
0.907241
0.891128
0.891092
0.891042
0.890975
0.890876
0.89076
0.890611
0.890447
0.890248
0.890036
0.889787
0.889524
0.889229
0.888904
0.888574
0.888173
0.887823
0.88732
0.886986
0.886333
0.886065
0.885217
0.885071
0.884007
0.885663
0.885627
0.885576
0.885507
0.885406
0.885287
0.885135
0.884968
0.884765
0.884548
0.884295
0.884027
0.883726
0.883396
0.883058
0.882656
0.882289
0.8818
0.881418
0.880807
0.880465
0.879636
0.879431
0.878254
0.879051
0.879014
0.878963
0.878893
0.87879
0.87867
0.878516
0.878347
0.878142
0.877923
0.877667
0.877397
0.877093
0.876762
0.876425
0.876013
0.875661
0.875148
0.874799
0.874154
0.873852
0.873005
0.872821
0.871676
0.87342
0.873384
0.873331
0.873261
0.873158
0.873038
0.872882
0.872714
0.872507
0.872289
0.872031
0.871762
0.871457
0.871126
0.870792
0.870373
0.870039
0.869502
0.869195
0.868515
0.868259
0.867403
0.867245
0.866166
0.868058
0.868021
0.867968
0.867899
0.867795
0.867675
0.867519
0.867352
0.867145
0.866928
0.866671
0.866403
0.866098
0.865772
0.865437
0.865024
0.864688
0.86416
0.863852
0.863182
0.862928
0.862083
0.861928
0.860866
0.863384
0.863347
0.863295
0.863225
0.863122
0.863003
0.862848
0.862682
0.862476
0.862261
0.862005
0.86174
0.861437
0.861115
0.860779
0.860376
0.860035
0.859523
0.859206
0.858552
0.858297
0.857463
0.857305
0.856248
0.858883
0.858847
0.858794
0.858726
0.858622
0.858506
0.858351
0.858187
0.857982
0.857771
0.857516
0.857255
0.856954
0.856637
0.856303
0.855907
0.855567
0.855064
0.854748
0.854106
0.85385
0.853031
0.85287
0.851831
0.854953
0.854918
0.854865
0.854798
0.854695
0.85458
0.854427
0.854266
0.854062
0.853854
0.853602
0.853345
0.853047
0.852736
0.852403
0.852015
0.851678
0.851183
0.85087
0.850239
0.849983
0.84918
0.849018
0.847999
0.851123
0.851087
0.851036
0.85097
0.850868
0.850755
0.850603
0.850445
0.850243
0.850039
0.849789
0.849537
0.849242
0.848937
0.848606
0.848227
0.847892
0.847408
0.847097
0.846478
0.846223
0.845437
0.845274
0.844274
0.847773
0.847738
0.847686
0.847622
0.847521
0.847411
0.84726
0.847105
0.846905
0.846706
0.846458
0.846212
0.84592
0.845622
0.845294
0.844924
0.844591
0.844119
0.843809
0.843205
0.84295
0.842181
0.842017
0.841038
0.844468
0.844434
0.844383
0.84432
0.84422
0.844112
0.843963
0.843812
0.843614
0.84342
0.843175
0.842934
0.842646
0.842354
0.842029
0.84167
0.841339
0.840879
0.840571
0.839982
0.839727
0.838976
0.838811
0.837853
0.84157
0.841537
0.841486
0.841425
0.841326
0.841221
0.841073
0.840927
0.840731
0.840541
0.8403
0.840065
0.83978
0.839496
0.839175
0.838827
0.838497
0.83805
0.837743
0.83717
0.836915
0.836183
0.836017
0.835081
0.838678
0.838645
0.838596
0.838536
0.838438
0.838336
0.83819
0.838048
0.837855
0.83767
0.837432
0.837203
0.836922
0.836645
0.836328
0.835992
0.835663
0.835231
0.834925
0.834368
0.834113
0.833401
0.833234
0.83232
0.836132
0.8361
0.83605
0.835992
0.835896
0.835797
0.835653
0.835515
0.835324
0.835146
0.83491
0.834688
0.834412
0.834142
0.83383
0.833504
0.833178
0.83276
0.832455
0.831915
0.831661
0.830968
0.830801
0.829909
0.833561
0.833529
0.833481
0.833425
0.83333
0.833234
0.833092
0.832958
0.83277
0.832597
0.832366
0.832151
0.831878
0.831617
0.83131
0.830994
0.83067
0.830267
0.829963
0.829441
0.829187
0.828515
0.828348
0.827479
0.831283
0.831252
0.831204
0.83115
0.831056
0.830964
0.830824
0.830695
0.83051
0.830343
0.830115
0.829907
0.829639
0.829386
0.829085
0.828779
0.828457
0.82807
0.827768
0.827264
0.827011
0.82636
0.826193
0.825347
0.828957
0.828927
0.82888
0.828828
0.828736
0.828647
0.828509
0.828385
0.828202
0.828042
0.827817
0.827617
0.827353
0.827109
0.826813
0.826517
0.8262
0.825828
0.825527
0.825042
0.82479
0.82416
0.823994
0.823172
0.826879
0.82685
0.826804
0.826753
0.826663
0.826577
0.826442
0.826323
0.826143
0.825989
0.825767
0.825575
0.825316
0.825081
0.82479
0.824505
0.824192
0.823836
0.823538
0.823071
0.82282
0.822212
0.822046
0.821248
0.824735
0.824706
0.824661
0.824613
0.824524
0.824442
0.824309
0.824195
0.824018
0.823871
0.823653
0.823469
0.823214
0.822989
0.822702
0.822428
0.822121
0.821782
0.821485
0.821037
0.820787
0.820202
0.820036
0.819263
0.822798
0.82277
0.822726
0.822679
0.822592
0.822514
0.822383
0.822275
0.822101
0.821961
0.821746
0.821572
0.82132
0.821106
0.820824
0.820562
0.82026
0.819936
0.819642
0.819214
0.818965
0.818402
0.818237
0.81749
0.82078
0.820753
0.820709
0.820665
0.82058
0.820506
0.820377
0.820275
0.820103
0.819972
0.819759
0.819595
0.819347
0.819144
0.818868
0.818618
0.818322
0.818012
0.81772
0.817313
0.817065
0.816526
0.816361
0.81564
0.818934
0.818908
0.818865
0.818823
0.818739
0.81867
0.818542
0.818447
0.818277
0.818155
0.817945
0.817792
0.817547
0.817357
0.817084
0.816848
0.816558
0.816264
0.815973
0.815588
0.815342
0.814826
0.814663
0.813968
0.816995
0.816969
0.816927
0.816888
0.816805
0.816741
0.816615
0.816527
0.816358
0.816247
0.816037
0.815898
0.815653
0.815479
0.815208
0.814987
0.814702
0.814424
0.814138
0.813774
0.81353
0.813039
0.812877
0.812208
0.815195
0.81517
0.815129
0.815093
0.815011
0.814953
0.814827
0.814749
0.814579
0.814481
0.814269
0.814146
0.813899
0.813744
0.813472
0.81327
0.812988
0.812726
0.812447
0.812105
0.811864
0.811397
0.811237
0.810596
0.813292
0.813268
0.813227
0.813194
0.813113
0.81306
0.812935
0.812866
0.812696
0.81261
0.812398
0.812291
0.812043
0.811906
0.811633
0.811453
0.811171
0.810929
0.810654
0.810334
0.810097
0.809655
0.809497
0.808887
0.8115
0.811477
0.811437
0.811407
0.811327
0.81128
0.811156
0.811095
0.810928
0.810851
0.810643
0.810547
0.810303
0.810181
0.80991
0.809749
0.809468
0.809248
0.808977
0.808678
0.808445
0.808029
0.807873
0.807293
0.809594
0.809572
0.809533
0.809506
0.809428
0.809385
0.809265
0.809209
0.809047
0.808978
0.808775
0.80869
0.80845
0.808342
0.808076
0.807932
0.807654
0.807456
0.807189
0.806911
0.80668
0.806292
0.806138
0.805588
0.807775
0.807753
0.807716
0.807691
0.807615
0.807576
0.80746
0.807411
0.807253
0.807192
0.806994
0.80692
0.806686
0.806591
0.806331
0.806203
0.805931
0.805752
0.805489
0.805235
0.805007
0.804646
0.804495
0.803975
0.805832
0.805811
0.805775
0.805752
0.80568
0.805645
0.805533
0.805489
0.805336
0.805284
0.805092
0.805028
0.8048
0.804719
0.804464
0.804353
0.804086
0.803928
0.803669
0.803439
0.803216
0.802881
0.802733
0.802244
0.803953
0.803933
0.803898
0.803877
0.803808
0.803777
0.803669
0.803631
0.803484
0.80344
0.803254
0.803201
0.80298
0.802911
0.802664
0.802569
0.802309
0.802171
0.801917
0.801711
0.801493
0.801186
0.801041
0.800584
0.801942
0.801922
0.80189
0.801871
0.801805
0.801777
0.801674
0.801642
0.8015
0.801465
0.801284
0.801243
0.801028
0.800974
0.800733
0.800656
0.800402
0.800284
0.800037
0.799855
0.799642
0.799364
0.799222
0.798798
0.799973
0.799953
0.799924
0.799905
0.799844
0.79982
0.799722
0.799696
0.79956
0.799533
0.799359
0.799328
0.799121
0.79908
0.798847
0.798787
0.79854
0.798443
0.798202
0.798045
0.797837
0.797589
0.797451
0.797061
0.797864
0.797844
0.797819
0.797799
0.797744
0.797722
0.797629
0.797609
0.797479
0.797461
0.797293
0.797274
0.797074
0.797048
0.796822
0.796779
0.796539
0.796464
0.79623
0.796098
0.795896
0.795677
0.795543
0.795188
0.795778
0.795759
0.795736
0.795716
0.795668
0.795646
0.795561
0.795546
0.795422
0.795412
0.795252
0.795244
0.795051
0.79504
0.794821
0.794796
0.794564
0.794509
0.794283
0.794176
0.793981
0.793792
0.793663
0.793343
0.793544
0.793525
0.793505
0.793485
0.793444
0.793421
0.793347
0.793333
0.793219
0.793216
0.793063
0.793066
0.792881
0.792884
0.792673
0.792665
0.792442
0.792408
0.79219
0.792108
0.791919
0.79176
0.791637
0.791353
0.791315
0.791297
0.791279
0.79126
0.791225
0.791203
0.791139
0.791125
0.791023
0.791023
0.790881
0.790894
0.790716
0.790734
0.790532
0.790542
0.790326
0.790314
0.790103
0.790047
0.789865
0.789736
0.789618
0.789371
0.788932
0.788915
0.788898
0.788881
0.788852
0.78883
0.788775
0.788762
0.788672
0.788675
0.788546
0.788566
0.788399
0.78843
0.788236
0.788263
0.788057
0.788065
0.787862
0.787832
0.787657
0.787559
0.787445
0.787234
0.786538
0.786521
0.786506
0.786491
0.786466
0.786446
0.7864
0.786389
0.786311
0.786316
0.786201
0.786227
0.786072
0.786114
0.78593
0.785975
0.785777
0.785806
0.785612
0.785606
0.785439
0.785371
0.785263
0.785087
0.783983
0.783967
0.783954
0.783941
0.78392
0.783902
0.783864
0.783854
0.783789
0.783797
0.783695
0.783725
0.783585
0.783637
0.783465
0.783525
0.783336
0.783387
0.783201
0.78322
0.78306
0.783022
0.782919
0.782779
0.781402
0.781387
0.781375
0.781364
0.781347
0.781332
0.781302
0.781295
0.78124
0.781251
0.781164
0.781199
0.781074
0.781133
0.780975
0.78105
0.780871
0.780943
0.780766
0.78081
0.780658
0.780649
0.780552
0.780448
0.778655
0.77864
0.77863
0.778621
0.778607
0.778596
0.778573
0.778569
0.778525
0.778539
0.778465
0.778505
0.778396
0.778462
0.77832
0.778406
0.778241
0.778331
0.778164
0.778233
0.77809
0.778111
0.778019
0.777951
0.775867
0.775853
0.775844
0.775838
0.775828
0.77582
0.775804
0.775803
0.77577
0.775788
0.775728
0.775772
0.775678
0.775751
0.775626
0.775722
0.775573
0.775679
0.775525
0.775616
0.775484
0.775534
0.775449
0.775419
0.772908
0.772894
0.772887
0.772883
0.772877
0.772872
0.772862
0.772866
0.772842
0.772864
0.772817
0.772866
0.772788
0.772868
0.772759
0.772865
0.772733
0.772853
0.772714
0.772826
0.772704
0.772785
0.772706
0.772715
0.769897
0.769884
0.769878
0.769876
0.769873
0.769873
0.769869
0.769877
0.769863
0.769889
0.769854
0.769909
0.769845
0.769933
0.769839
0.769957
0.769839
0.769975
0.769849
0.769984
0.769872
0.769982
0.769909
0.769956
0.76671
0.766697
0.766693
0.766693
0.766694
0.766697
0.766699
0.766711
0.766706
0.766737
0.766714
0.766775
0.766725
0.766821
0.766741
0.766871
0.766766
0.76692
0.766805
0.766963
0.766859
0.766999
0.766932
0.767015
0.763459
0.763448
0.763445
0.763447
0.763451
0.763458
0.763466
0.763482
0.763486
0.763522
0.763511
0.763577
0.763541
0.763645
0.76358
0.763722
0.763631
0.763801
0.763698
0.763879
0.763784
0.763952
0.763891
0.76401
0.760029
0.760018
0.760016
0.760021
0.760028
0.760039
0.760051
0.760073
0.760085
0.760126
0.760126
0.760199
0.760176
0.760288
0.760237
0.76039
0.760313
0.760499
0.760408
0.760611
0.760525
0.760721
0.760666
0.76082
0.756526
0.756516
0.756516
0.756523
0.756533
0.756547
0.756565
0.756591
0.756611
0.756658
0.756669
0.756748
0.756739
0.756858
0.756822
0.756985
0.756923
0.757124
0.757046
0.75727
0.757194
0.757417
0.757369
0.757559
0.752839
0.752829
0.752831
0.752839
0.752853
0.752871
0.752894
0.752925
0.752953
0.753004
0.753027
0.753111
0.753116
0.753242
0.753221
0.753394
0.753347
0.753562
0.753497
0.753741
0.753675
0.753926
0.753884
0.754109
0.749072
0.749063
0.749066
0.749076
0.749093
0.749115
0.749143
0.749178
0.749214
0.749271
0.749304
0.749394
0.749412
0.749545
0.749539
0.749722
0.74969
0.749919
0.749867
0.750131
0.750076
0.750353
0.750317
0.750578
0.745118
0.745108
0.745113
0.745125
0.745145
0.74517
0.745203
0.745243
0.745286
0.745348
0.745392
0.745487
0.745518
0.745658
0.745667
0.745859
0.745842
0.746084
0.746046
0.746328
0.746284
0.746588
0.746558
0.746853
0.741077
0.741068
0.741074
0.741088
0.741111
0.741139
0.741177
0.741222
0.741272
0.74134
0.741393
0.741494
0.741538
0.741685
0.741708
0.741909
0.741907
0.742162
0.742137
0.742438
0.742404
0.742734
0.74271
0.74304
0.736845
0.736836
0.736843
0.736859
0.736884
0.736916
0.736958
0.737008
0.737065
0.737138
0.737201
0.737307
0.737364
0.737517
0.737555
0.737764
0.737776
0.738043
0.738033
0.738351
0.738328
0.738682
0.738665
0.739028
0.732522
0.732514
0.732522
0.73254
0.732568
0.732603
0.732649
0.732704
0.732767
0.732845
0.732917
0.73303
0.733098
0.733257
0.733309
0.733526
0.733554
0.733832
0.733835
0.73417
0.734158
0.734536
0.734525
0.734922
0.728005
0.727998
0.728006
0.728026
0.728056
0.728095
0.728145
0.728204
0.728273
0.728357
0.728437
0.728555
0.728635
0.728801
0.728866
0.72909
0.729132
0.729422
0.729438
0.729789
0.729787
0.730189
0.730183
0.730612
0.723396
0.723388
0.723398
0.723419
0.723452
0.723493
0.723548
0.723611
0.723686
0.723775
0.723863
0.723987
0.724077
0.724249
0.724327
0.724559
0.724615
0.724915
0.724944
0.725311
0.725319
0.725743
0.725743
0.726204
0.718589
0.718582
0.718592
0.718614
0.71865
0.718694
0.718752
0.71882
0.7189
0.718993
0.71909
0.719218
0.719319
0.719496
0.719587
0.719826
0.719895
0.720204
0.720247
0.720628
0.720646
0.721092
0.721097
0.721588
0.71369
0.713683
0.713695
0.713718
0.713756
0.713802
0.713864
0.713936
0.714021
0.714119
0.714223
0.714357
0.714467
0.71465
0.714752
0.714998
0.71508
0.715399
0.715453
0.715848
0.715876
0.716342
0.716352
0.716872
0.708591
0.708584
0.708596
0.708621
0.70866
0.708709
0.708774
0.70885
0.708939
0.709043
0.709152
0.709291
0.70941
0.709599
0.709712
0.709964
0.710058
0.710385
0.710452
0.710859
0.710896
0.711381
0.711397
0.711944
0.703402
0.703396
0.703408
0.703434
0.703476
0.703527
0.703595
0.703674
0.703768
0.703876
0.703992
0.704135
0.704262
0.704456
0.704579
0.704838
0.704943
0.705279
0.705356
0.705775
0.705822
0.706325
0.706344
0.706919
0.698012
0.698005
0.698019
0.698046
0.698089
0.698142
0.698213
0.698295
0.698392
0.698505
0.698626
0.698774
0.698909
0.699107
0.69924
0.699504
0.699619
0.699963
0.70005
0.700481
0.700535
0.701055
0.701079
0.701678
0.692538
0.692532
0.692545
0.692573
0.692618
0.692673
0.692746
0.692831
0.692932
0.693049
0.693175
0.693328
0.693469
0.693672
0.693813
0.694083
0.694208
0.694559
0.694655
0.695097
0.695158
0.695695
0.695722
0.696345
0.686857
0.686851
0.686865
0.686893
0.686939
0.686996
0.687071
0.687159
0.687263
0.687383
0.687513
0.68767
0.687817
0.688025
0.688173
0.688449
0.688582
0.688939
0.689045
0.689496
0.689564
0.690115
0.690145
0.69079
0.681108
0.681101
0.681116
0.681145
0.681192
0.681251
0.681328
0.681418
0.681525
0.681648
0.681782
0.681943
0.682095
0.682307
0.682462
0.682743
0.682883
0.683247
0.683359
0.68382
0.683894
0.684459
0.684491
0.685157
0.675142
0.675135
0.67515
0.675179
0.675227
0.675287
0.675366
0.675458
0.675567
0.675694
0.67583
0.675995
0.676152
0.676368
0.676528
0.676813
0.67696
0.67733
0.677448
0.677918
0.677996
0.678574
0.678607
0.679293
0.669124
0.669117
0.669132
0.669162
0.66921
0.669271
0.669351
0.669445
0.669556
0.669686
0.669824
0.669993
0.670153
0.670373
0.670538
0.670827
0.670979
0.671355
0.671478
0.671956
0.672038
0.672628
0.672662
0.673365
0.662887
0.66288
0.662894
0.662924
0.662973
0.663035
0.663117
0.663212
0.663325
0.663456
0.663597
0.663768
0.663932
0.664154
0.664323
0.664616
0.664772
0.665154
0.66528
0.665766
0.66585
0.666451
0.666485
0.667204
0.656613
0.656605
0.65662
0.65665
0.656699
0.656761
0.656844
0.65694
0.657054
0.657188
0.65733
0.657504
0.65767
0.657895
0.658067
0.658364
0.658523
0.658909
0.659039
0.659531
0.659616
0.660228
0.660261
0.660994
0.650105
0.650096
0.650111
0.650141
0.65019
0.650253
0.650336
0.650433
0.650548
0.650683
0.650826
0.651003
0.651169
0.651397
0.651571
0.651871
0.652031
0.652423
0.652553
0.653052
0.653137
0.653758
0.653789
0.654535
0.643613
0.643604
0.643619
0.643648
0.643698
0.643761
0.643844
0.643942
0.644058
0.644193
0.644338
0.644516
0.644684
0.644913
0.645088
0.645391
0.645553
0.645948
0.646079
0.646584
0.646668
0.647297
0.647326
0.648082
0.636818
0.636808
0.636823
0.636851
0.636901
0.636963
0.637047
0.637144
0.63726
0.637396
0.637541
0.63772
0.637888
0.638119
0.638295
0.6386
0.638762
0.639161
0.63929
0.639801
0.639883
0.640519
0.640545
0.64131
0.630151
0.63014
0.630155
0.630183
0.630233
0.630294
0.630379
0.630476
0.630593
0.630729
0.630874
0.631053
0.631221
0.631453
0.63163
0.631936
0.632097
0.632499
0.632626
0.633142
0.633221
0.633862
0.633885
0.634657
0.623076
0.623064
0.623078
0.623105
0.623155
0.623215
0.623299
0.623396
0.623512
0.623648
0.623793
0.623972
0.62414
0.624372
0.624548
0.624856
0.625014
0.62542
0.625543
0.626063
0.626138
0.626785
0.626802
0.62758
0.616236
0.616224
0.616238
0.616264
0.616314
0.616374
0.616458
0.616554
0.616671
0.616805
0.616951
0.61713
0.617297
0.617529
0.617705
0.618013
0.618169
0.618578
0.618696
0.619221
0.619289
0.619941
0.619953
0.620734
0.608933
0.608919
0.608933
0.608957
0.609007
0.609065
0.609149
0.609244
0.60936
0.609494
0.609639
0.609817
0.609984
0.610216
0.610391
0.610699
0.610852
0.611265
0.611375
0.611907
0.611965
0.612623
0.612627
0.613411
0.60189
0.601875
0.601889
0.601912
0.601962
0.602019
0.602103
0.602197
0.602313
0.602446
0.602591
0.602767
0.602935
0.603166
0.60334
0.603648
0.603799
0.604215
0.604319
0.604859
0.604908
0.605573
0.605568
0.606355
0.594423
0.594407
0.59442
0.594442
0.594491
0.594547
0.594631
0.594723
0.594839
0.59497
0.595115
0.595289
0.595456
0.595685
0.595858
0.596164
0.596313
0.59673
0.59683
0.597375
0.597416
0.59809
0.598078
0.598871
0.587151
0.587134
0.587148
0.587168
0.587218
0.587273
0.587356
0.587447
0.587563
0.587692
0.587837
0.588009
0.588176
0.588402
0.588575
0.588878
0.589024
0.58944
0.589537
0.590082
0.590118
0.5908
0.590781
0.591589
0.57956
0.579541
0.579556
0.579574
0.579625
0.579679
0.579762
0.579853
0.579969
0.580096
0.580243
0.580411
0.580579
0.580801
0.580973
0.581272
0.581412
0.581832
0.581909
0.582465
0.582475
0.583165
0.58313
0.583938
0.572059
0.572038
0.572055
0.572071
0.572124
0.572178
0.572263
0.572354
0.572472
0.5726
0.572749
0.572915
0.573088
0.573304
0.573481
0.573775
0.573911
0.574344
0.57438
0.574969
0.574929
0.57563
0.575565
0.576341
0.564338
0.564314
0.564334
0.56435
0.564405
0.564461
0.564548
0.564643
0.564764
0.564896
0.565049
0.565219
0.565396
0.565614
0.565796
0.566087
0.566231
0.566664
0.56668
0.567294
0.567212
0.567929
0.567829
0.568577
0.556603
0.55658
0.556599
0.55662
0.556675
0.556738
0.556828
0.556931
0.557057
0.557199
0.557357
0.557539
0.557722
0.557953
0.558142
0.558441
0.558602
0.559022
0.559062
0.55968
0.559583
0.560329
0.560201
0.560958
0.548695
0.548673
0.548693
0.548719
0.548777
0.548848
0.548945
0.549058
0.549193
0.549348
0.549518
0.549718
0.549912
0.550164
0.550367
0.550685
0.550869
0.551288
0.551373
0.551988
0.551911
0.552692
0.552546
0.553345
0.540688
0.540666
0.540687
0.54072
0.540782
0.540863
0.540969
0.541096
0.541245
0.541417
0.541604
0.541826
0.542042
0.542321
0.542548
0.542899
0.543112
0.543557
0.543696
0.544322
0.54429
0.545115
0.54497
0.545846
0.5325
0.53248
0.532502
0.532541
0.53261
0.532701
0.532818
0.532959
0.533125
0.533318
0.533526
0.533775
0.534018
0.534333
0.534594
0.534987
0.535243
0.535734
0.53594
0.5366
0.53664
0.537532
0.537411
0.538408
0.524142
0.524123
0.524146
0.524192
0.524266
0.524367
0.524496
0.524652
0.524834
0.525047
0.525279
0.525556
0.52583
0.526182
0.526482
0.526925
0.527233
0.527786
0.52807
0.528786
0.528937
0.529921
0.529863
0.53105
0.515574
0.515557
0.51558
0.515631
0.515711
0.51582
0.515958
0.516127
0.516323
0.516555
0.516807
0.517109
0.51741
0.517795
0.518133
0.518622
0.51898
0.519595
0.519954
0.520739
0.521021
0.522097
0.522171
0.523617
0.506794
0.506778
0.506802
0.506855
0.506939
0.507053
0.507198
0.507375
0.507582
0.507826
0.508092
0.508411
0.508732
0.50914
0.509505
0.510025
0.51042
0.51108
0.51149
0.51233
0.512714
0.513847
0.514069
0.51575
0.497795
0.497778
0.497802
0.497855
0.497941
0.498056
0.498205
0.498385
0.498598
0.498845
0.499121
0.499444
0.499779
0.500192
0.500576
0.501103
0.501519
0.502192
0.502624
0.503484
0.503891
0.505056
0.505297
0.50703
0.488587
0.488564
0.488591
0.488639
0.488728
0.488839
0.48899
0.489166
0.489381
0.489622
0.489906
0.490214
0.490567
0.490955
0.491364
0.491859
0.492302
0.492944
0.493387
0.494229
0.494606
0.495778
0.495955
0.497598
0.479182
0.479151
0.479186
0.47922
0.479316
0.479412
0.47957
0.479729
0.479953
0.480167
0.480471
0.480737
0.481121
0.48145
0.481901
0.482324
0.482809
0.483376
0.483842
0.484629
0.484986
0.486114
0.486265
0.48781
0.4696
0.469565
0.469601
0.469626
0.469721
0.469809
0.46996
0.47011
0.470326
0.470527
0.470823
0.471067
0.471447
0.471744
0.472194
0.472573
0.473057
0.473572
0.474032
0.474758
0.47511
0.476158
0.476299
0.477743
0.459869
0.459832
0.459861
0.459887
0.459968
0.460056
0.460189
0.460339
0.460529
0.460734
0.460992
0.461244
0.461577
0.46188
0.462278
0.462656
0.463089
0.463587
0.464007
0.464685
0.465024
0.465978
0.466117
0.467454
0.450017
0.449978
0.450001
0.450025
0.450095
0.450178
0.450297
0.450437
0.450609
0.450803
0.451035
0.451278
0.451574
0.451869
0.452222
0.452588
0.452975
0.453446
0.453826
0.454456
0.454773
0.455634
0.455775
0.457004
0.440075
0.440035
0.440052
0.440071
0.440132
0.440206
0.440313
0.44044
0.440596
0.440773
0.440984
0.441208
0.441475
0.44175
0.442067
0.442408
0.442755
0.443191
0.443535
0.444111
0.444401
0.44518
0.44532
0.446441
0.430074
0.430031
0.430043
0.430057
0.430109
0.430174
0.430268
0.430382
0.430521
0.430681
0.430869
0.431073
0.431312
0.431562
0.431846
0.432157
0.432468
0.432865
0.433173
0.433695
0.433954
0.434659
0.434793
0.435805
0.420043
0.419998
0.420006
0.420014
0.420057
0.420112
0.420193
0.420293
0.420415
0.420557
0.420723
0.420905
0.421117
0.421342
0.421593
0.421872
0.422149
0.422505
0.422779
0.423247
0.423475
0.424108
0.424229
0.425129
0.41001
0.409963
0.409966
0.409969
0.410004
0.410048
0.410118
0.410202
0.410308
0.410431
0.410577
0.410736
0.410921
0.411119
0.41134
0.411587
0.411829
0.412144
0.412384
0.4128
0.412998
0.413563
0.413662
0.414454
0.400002
0.399953
0.399953
0.399949
0.399976
0.400011
0.400068
0.400138
0.400228
0.400333
0.400457
0.400594
0.400753
0.400924
0.401115
0.401329
0.401539
0.401812
0.402021
0.402382
0.402553
0.403048
0.403126
0.40382
0.390044
0.389993
0.389988
0.389979
0.389998
0.390024
0.390068
0.390126
0.390199
0.390286
0.390389
0.390504
0.390638
0.390784
0.390945
0.391127
0.391305
0.391538
0.391715
0.392024
0.392167
0.392593
0.39265
0.393256
0.380156
0.380104
0.380096
0.380082
0.380093
0.380109
0.380143
0.380186
0.380244
0.380313
0.380397
0.380491
0.380601
0.38072
0.380853
0.381003
0.381151
0.381345
0.381491
0.381749
0.381866
0.382225
0.382266
0.38278
0.370361
0.370307
0.370296
0.370277
0.370281
0.370288
0.370311
0.370341
0.370384
0.370437
0.370501
0.370574
0.370661
0.370755
0.370861
0.370981
0.371099
0.371255
0.371372
0.371581
0.371673
0.371966
0.371992
0.372418
0.360675
0.36062
0.360606
0.360583
0.36058
0.360579
0.36059
0.360609
0.360638
0.360674
0.36072
0.360773
0.360837
0.360908
0.360987
0.361079
0.361168
0.361288
0.361377
0.361539
0.361607
0.361837
0.361849
0.362189
0.351114
0.351059
0.351042
0.351015
0.351005
0.350996
0.350998
0.351005
0.35102
0.351041
0.35107
0.351104
0.351147
0.351195
0.351249
0.351313
0.351376
0.351461
0.351523
0.35164
0.351686
0.351855
0.351856
0.352112
0.341693
0.341638
0.341619
0.341587
0.341572
0.341555
0.341548
0.341544
0.341546
0.341553
0.341565
0.341581
0.341603
0.34163
0.341661
0.341699
0.341735
0.341787
0.341825
0.341899
0.341924
0.342036
0.342025
0.342203
0.332424
0.332368
0.332347
0.332312
0.332291
0.332268
0.332252
0.332237
0.332227
0.33222
0.332217
0.332217
0.332219
0.332226
0.332234
0.332247
0.332259
0.33228
0.332294
0.332327
0.332334
0.332391
0.332371
0.332475
0.323317
0.323261
0.323238
0.3232
0.323174
0.323144
0.32312
0.323096
0.323074
0.323054
0.323036
0.32302
0.323005
0.322992
0.322979
0.322969
0.322958
0.322951
0.322941
0.322936
0.322923
0.32293
0.322899
0.322934
0.31438
0.314325
0.3143
0.314259
0.314228
0.314193
0.314161
0.314128
0.314096
0.314064
0.314032
0.314001
0.313968
0.313938
0.313904
0.313874
0.313839
0.313806
0.313773
0.313735
0.313702
0.313662
0.31362
0.313588
0.305621
0.305566
0.30554
0.305496
0.305461
0.30542
0.305381
0.30534
0.305298
0.305255
0.305211
0.305166
0.305117
0.305071
0.305018
0.304968
0.304912
0.304854
0.3048
0.30473
0.304678
0.304595
0.304542
0.304448
0.297045
0.296991
0.296963
0.296917
0.296879
0.296833
0.296788
0.296739
0.296688
0.296635
0.296578
0.296521
0.296457
0.296395
0.296325
0.296256
0.296182
0.296101
0.296027
0.295927
0.295859
0.295735
0.295673
0.295522
0.288657
0.288604
0.288575
0.288527
0.288485
0.288435
0.288383
0.288327
0.288268
0.288206
0.288138
0.288069
0.287992
0.287916
0.28783
0.287744
0.287652
0.287549
0.287459
0.28733
0.287248
0.287086
0.287016
0.286814
0.280459
0.280407
0.280377
0.280328
0.280282
0.280228
0.280172
0.28011
0.280043
0.279972
0.279894
0.279814
0.279725
0.279636
0.279535
0.279433
0.279326
0.279203
0.279097
0.278943
0.278848
0.278651
0.278574
0.278326
0.272454
0.272403
0.272372
0.272321
0.272273
0.272216
0.272154
0.272087
0.272013
0.271934
0.271848
0.271758
0.271657
0.271556
0.271443
0.271325
0.271205
0.271063
0.270944
0.270765
0.270659
0.270431
0.270347
0.270058
0.264642
0.264592
0.264561
0.264509
0.264459
0.264398
0.264332
0.264259
0.26418
0.264094
0.263999
0.263901
0.263789
0.263678
0.263552
0.263422
0.263288
0.263129
0.262999
0.262798
0.262682
0.262425
0.262336
0.262009
0.257024
0.256975
0.256943
0.256891
0.256838
0.256775
0.256705
0.256628
0.256543
0.25645
0.256348
0.256242
0.256121
0.256
0.255864
0.255721
0.255576
0.255402
0.25526
0.25504
0.254915
0.254632
0.254537
0.254178
0.249598
0.249551
0.249519
0.249466
0.249411
0.249345
0.249273
0.249191
0.249101
0.249003
0.248894
0.248781
0.248651
0.248522
0.248375
0.248223
0.248067
0.247879
0.247727
0.247489
0.247356
0.24705
0.246951
0.24656
0.242364
0.242318
0.242286
0.242232
0.242176
0.242108
0.242033
0.241948
0.241853
0.24175
0.241634
0.241516
0.241378
0.241242
0.241085
0.240924
0.240758
0.240559
0.240397
0.240143
0.240002
0.239676
0.239572
0.239155
0.235319
0.235274
0.235242
0.235188
0.235131
0.235061
0.234983
0.234895
0.234796
0.234689
0.234568
0.234444
0.234299
0.234157
0.233991
0.233822
0.233647
0.233438
0.233267
0.233
0.232851
0.232507
0.232399
0.231957
0.228461
0.228417
0.228385
0.228331
0.228273
0.228202
0.228122
0.228031
0.227928
0.227818
0.227691
0.227564
0.227411
0.227264
0.22709
0.226915
0.22673
0.226513
0.226334
0.226055
0.225899
0.225538
0.225428
0.224963
0.221786
0.221744
0.221712
0.221659
0.2216
0.221527
0.221445
0.221352
0.221246
0.221133
0.221001
0.22087
0.220711
0.22056
0.220378
0.220198
0.220005
0.219781
0.219593
0.219304
0.219143
0.218767
0.218654
0.218169
0.215292
0.215252
0.21522
0.215166
0.215107
0.215033
0.214949
0.214854
0.214746
0.214631
0.214495
0.214361
0.214196
0.214042
0.213853
0.213669
0.213467
0.213238
0.213042
0.212745
0.212578
0.212189
0.212073
0.21157
0.208974
0.208936
0.208904
0.208851
0.208791
0.208717
0.208632
0.208535
0.208424
0.208307
0.208167
0.208031
0.207862
0.207704
0.20751
0.207322
0.207114
0.20688
0.206677
0.206374
0.2062
0.2058
0.205682
0.205163
0.20283
0.202792
0.202761
0.202708
0.202648
0.202573
0.202487
0.20239
0.202277
0.202158
0.202015
0.201877
0.201704
0.201543
0.201345
0.201153
0.20094
0.200702
0.200493
0.200185
0.200005
0.199597
0.199476
0.198945
0.196853
0.196818
0.196786
0.196734
0.196674
0.196599
0.196512
0.196414
0.196299
0.196179
0.196034
0.195894
0.195718
0.195554
0.195354
0.195157
0.194943
0.194698
0.194488
0.194172
0.193992
0.193575
0.193453
0.192912
0.191041
0.191007
0.190976
0.190924
0.190864
0.190789
0.190702
0.190603
0.190487
0.190366
0.190219
0.190077
0.1899
0.189733
0.189532
0.18933
0.189116
0.188863
0.188656
0.188331
0.188154
0.187727
0.187607
0.187059
0.185388
0.185355
0.185325
0.185274
0.185214
0.185139
0.185051
0.184952
0.184835
0.184714
0.184566
0.184422
0.184244
0.184074
0.183873
0.183666
0.183455
0.183195
0.182991
0.182657
0.182485
0.182048
0.181932
0.181377
0.17989
0.179859
0.179829
0.179779
0.179719
0.179644
0.179556
0.179457
0.179339
0.179218
0.179069
0.178924
0.178746
0.178574
0.178374
0.178162
0.177953
0.177687
0.177487
0.177145
0.176978
0.176532
0.17642
0.175859
0.174542
0.174513
0.174483
0.174433
0.174374
0.1743
0.174212
0.174113
0.173995
0.173873
0.173724
0.173579
0.173401
0.173226
0.173027
0.172812
0.172606
0.172334
0.172138
0.171788
0.171627
0.171174
0.171065
0.1705
0.169339
0.169311
0.169282
0.169234
0.169174
0.169101
0.169013
0.168915
0.168796
0.168675
0.168526
0.16838
0.168202
0.168026
0.167829
0.167611
0.167407
0.167131
0.16694
0.166582
0.166428
0.165968
0.165863
0.165295
0.164278
0.164251
0.164222
0.164174
0.164116
0.164043
0.163955
0.163858
0.163739
0.163618
0.163469
0.163323
0.163147
0.162969
0.162774
0.162553
0.162352
0.162072
0.161886
0.161522
0.161374
0.16091
0.160808
0.160237
0.159351
0.159326
0.159298
0.159251
0.159193
0.159121
0.159033
0.158937
0.158819
0.158698
0.15855
0.158404
0.158229
0.15805
0.157857
0.157634
0.157438
0.157153
0.156973
0.156603
0.156462
0.155993
0.155894
0.155322
0.154556
0.154532
0.154505
0.154459
0.154401
0.15433
0.154243
0.154147
0.154031
0.15391
0.153764
0.153616
0.153445
0.153263
0.153076
0.152847
0.152659
0.152366
0.152197
0.151818
0.151685
0.151212
0.151118
0.150545
0.149888
0.149865
0.149838
0.149793
0.149736
0.149666
0.14958
0.149485
0.149369
0.149248
0.149105
0.148955
0.148789
0.148603
0.148424
0.148188
0.148012
0.147707
0.147553
0.147165
0.14704
0.146564
0.146474
0.145901
0.145341
0.14532
0.145293
0.145249
0.145193
0.145123
0.145039
0.144944
0.144831
0.144709
0.14457
0.144417
0.144258
0.144065
0.143898
0.143651
0.14349
0.143174
0.143033
0.142638
0.14252
0.142043
0.141957
0.141386
0.140912
0.140892
0.140866
0.140822
0.140767
0.140698
0.140616
0.14052
0.140411
0.140286
0.140155
0.139994
0.139849
0.139643
0.139494
0.139232
0.139089
0.138762
0.138631
0.138234
0.138122
0.137646
0.137562
0.136995
0.136595
0.136576
0.136551
0.136508
0.136454
0.136386
0.136306
0.136208
0.136106
0.135974
0.135856
0.135684
0.135555
0.135336
0.135204
0.13493
0.1348
0.134468
0.134345
0.133947
0.13384
0.133366
0.133286
0.132723
0.132387
0.132369
0.132345
0.132303
0.132251
0.132182
0.132106