/*--------------------------------*- C++ -*----------------------------------*\
  =========                 |
  \\      /  F ield         | OpenFOAM: The Open Source CFD Toolbox
   \\    /   O peration     | Website:  https://openfoam.org
    \\  /    A nd           | Version:  10
     \\/     M anipulation  |
\*---------------------------------------------------------------------------*/
FoamFile
{
    format      ascii;
    class       volScalarField;
    location    "0.03";
    object      p;
}
// * * * * * * * * * * * * * * * * * * * * * * * * * * * * * * * * * * * * * //

dimensions      [1 -1 -2 0 0 0 0];

internalField   nonuniform List<scalar> 
4176
(
2748.69
2748.75
2748.9
2749.11
2749.41
2749.75
2750.2
2750.69
2751.29
2751.93
2752.67
2753.47
2754.34
2755.34
2756.29
2757.55
2758.51
2760.15
2760.95
2763.14
2763.66
2766.37
2766.59
2769.55
2765.51
2765.58
2765.73
2765.94
2766.25
2766.61
2767.07
2767.57
2768.19
2768.84
2769.61
2770.42
2771.32
2772.33
2773.33
2774.58
2775.65
2777.19
2778.28
2780.21
2781.17
2783.76
2784.31
2787.88
2790.74
2790.81
2790.96
2791.18
2791.49
2791.86
2792.33
2792.84
2793.46
2794.12
2794.9
2795.72
2796.64
2797.66
2798.67
2799.94
2801
2802.56
2803.65
2805.59
2806.55
2809.17
2809.72
2813.39
2813.41
2813.48
2813.64
2813.86
2814.18
2814.54
2815.02
2815.53
2816.17
2816.83
2817.61
2818.44
2819.36
2820.39
2821.38
2822.69
2823.68
2825.36
2826.26
2828.39
2829.11
2831.81
2832.24
2835.63
2834.75
2834.82
2834.98
2835.2
2835.52
2835.89
2836.37
2836.88
2837.51
2838.17
2838.96
2839.78
2840.71
2841.72
2842.72
2844.03
2844.99
2846.7
2847.54
2849.69
2850.38
2853.05
2853.44
2856.73
2854.91
2854.99
2855.14
2855.37
2855.68
2856.05
2856.53
2857.03
2857.67
2858.32
2859.11
2859.92
2860.85
2861.85
2862.86
2864.12
2865.13
2866.75
2867.65
2869.74
2870.44
2873.09
2873.49
2876.79
2874.07
2874.14
2874.3
2874.52
2874.84
2875.2
2875.68
2876.18
2876.81
2877.46
2878.24
2879.04
2879.97
2880.95
2881.95
2883.2
2884.2
2885.8
2886.71
2888.75
2889.46
2892.06
2892.47
2895.73
2892.4
2892.47
2892.63
2892.85
2893.16
2893.52
2893.99
2894.49
2895.12
2895.75
2896.53
2897.32
2898.24
2899.2
2900.2
2901.42
2902.42
2903.99
2904.89
2906.9
2907.61
2910.17
2910.57
2913.78
2910.02
2910.1
2910.25
2910.47
2910.78
2911.13
2911.6
2912.08
2912.71
2913.33
2914.11
2914.88
2915.79
2916.73
2917.73
2918.92
2919.92
2921.45
2922.35
2924.32
2925.03
2927.53
2927.94
2931.09
2927.08
2927.15
2927.3
2927.51
2927.83
2928.17
2928.64
2929.11
2929.73
2930.34
2931.11
2931.86
2932.76
2933.68
2934.68
2935.84
2936.83
2938.32
2939.22
2941.14
2941.85
2944.3
2944.72
2947.81
2943.65
2943.73
2943.88
2944.09
2944.4
2944.73
2945.19
2945.66
2946.27
2946.87
2947.62
2948.36
2949.25
2950.15
2951.14
2952.26
2953.25
2954.71
2955.6
2957.47
2958.18
2960.57
2960.99
2964.02
2959.87
2959.94
2960.09
2960.3
2960.6
2960.93
2961.39
2961.84
2962.44
2963.02
2963.77
2964.49
2965.37
2966.24
2967.23
2968.31
2969.3
2970.7
2971.6
2973.42
2974.13
2976.46
2976.88
2979.84
2975.79
2975.86
2976.01
2976.21
2976.51
2976.83
2977.28
2977.72
2978.32
2978.89
2979.62
2980.32
2981.19
2982.04
2983.01
2984.05
2985.04
2986.4
2987.3
2989.06
2989.77
2992.04
2992.46
2995.35
2991.51
2991.58
2991.73
2991.92
2992.22
2992.53
2992.98
2993.4
2993.99
2994.54
2995.27
2995.95
2996.8
2997.62
2998.58
2999.59
3000.57
3001.88
3002.77
3004.48
3005.2
3007.39
3007.82
3010.63
3007.09
3007.16
3007.31
3007.5
3007.79
3008.09
3008.53
3008.94
3009.52
3010.05
3010.77
3011.42
3012.27
3013.06
3014.01
3014.97
3015.95
3017.21
3018.1
3019.74
3020.46
3022.59
3023.02
3025.76
3022.61
3022.68
3022.82
3023.01
3023.3
3023.58
3024.02
3024.41
3024.99
3025.49
3026.2
3026.83
3027.66
3028.42
3029.35
3030.28
3031.26
3032.46
3033.36
3034.93
3035.65
3037.7
3038.14
3040.79
3038.11
3038.18
3038.32
3038.5
3038.79
3039.06
3039.49
3039.87
3040.44
3040.92
3041.62
3042.22
3043.04
3043.77
3044.68
3045.58
3046.55
3047.69
3048.58
3050.09
3050.81
3052.79
3053.22
3055.8
3053.67
3053.73
3053.87
3054.04
3054.33
3054.59
3055.01
3055.37
3055.93
3056.39
3057.08
3057.66
3058.46
3059.16
3060.06
3060.91
3061.87
3062.95
3063.85
3065.29
3066.01
3067.91
3068.34
3070.84
3069.31
3069.38
3069.52
3069.68
3069.96
3070.21
3070.63
3070.97
3071.52
3071.96
3072.64
3073.18
3073.97
3074.64
3075.53
3076.34
3077.28
3078.31
3079.2
3080.56
3081.29
3083.11
3083.55
3085.95
3085.11
3085.18
3085.32
3085.47
3085.75
3085.99
3086.4
3086.72
3087.26
3087.67
3088.34
3088.85
3089.63
3090.26
3091.13
3091.9
3092.84
3093.8
3094.69
3095.98
3096.71
3098.44
3098.88
3101.2
3101.11
3101.17
3101.31
3101.46
3101.72
3101.95
3102.35
3102.65
3103.19
3103.57
3104.23
3104.71
3105.48
3106.07
3106.92
3107.65
3108.56
3109.47
3110.36
3111.58
3112.3
3113.95
3114.39
3116.61
3117.34
3117.4
3117.53
3117.67
3117.94
3118.15
3118.55
3118.83
3119.35
3119.71
3120.36
3120.8
3121.56
3122.1
3122.94
3123.62
3124.52
3125.37
3126.25
3127.4
3128.12
3129.68
3130.12
3132.25
3133.84
3133.9
3134.03
3134.17
3134.43
3134.62
3135.01
3135.27
3135.79
3136.11
3136.76
3137.16
3137.91
3138.4
3139.24
3139.86
3140.74
3141.53
3142.41
3143.47
3144.19
3145.67
3146.11
3148.14
3150.66
3150.72
3150.85
3150.98
3151.23
3151.41
3151.8
3152.03
3152.55
3152.83
3153.48
3153.82
3154.58
3155.01
3155.84
3156.41
3157.27
3158.01
3158.86
3159.85
3160.57
3161.95
3162.39
3164.31
3167.83
3167.9
3168.02
3168.14
3168.39
3168.55
3168.94
3169.13
3169.66
3169.89
3170.55
3170.83
3171.6
3171.96
3172.8
3173.29
3174.15
3174.82
3175.66
3176.56
3177.27
3178.55
3178.99
3180.81
3185.4
3185.46
3185.58
3185.69
3185.94
3186.07
3186.46
3186.62
3187.15
3187.34
3187.99
3188.22
3188.99
3189.29
3190.13
3190.54
3191.41
3192
3192.83
3193.64
3194.35
3195.54
3195.97
3197.68
3203.38
3203.44
3203.56
3203.65
3203.9
3204.02
3204.4
3204.54
3205.05
3205.21
3205.85
3206.04
3206.79
3207.04
3207.87
3208.21
3209.08
3209.58
3210.4
3211.14
3211.84
3212.92
3213.36
3214.95
3221.81
3221.87
3221.99
3222.08
3222.32
3222.42
3222.79
3222.91
3223.4
3223.53
3224.15
3224.31
3225.04
3225.24
3226.05
3226.34
3227.19
3227.61
3228.42
3229.07
3229.77
3230.75
3231.18
3232.66
3240.73
3240.79
3240.9
3240.98
3241.21
3241.3
3241.66
3241.75
3242.23
3242.33
3242.94
3243.05
3243.77
3243.91
3244.71
3244.93
3245.76
3246.11
3246.92
3247.47
3248.16
3249.04
3249.47
3250.82
3260.16
3260.22
3260.33
3260.4
3260.62
3260.7
3261.04
3261.12
3261.58
3261.65
3262.23
3262.31
3263
3263.1
3263.87
3264.03
3264.85
3265.12
3265.91
3266.37
3267.05
3267.82
3268.24
3269.48
3280.13
3280.19
3280.3
3280.37
3280.57
3280.64
3280.96
3281.02
3281.46
3281.5
3282.06
3282.1
3282.77
3282.81
3283.57
3283.66
3284.46
3284.65
3285.42
3285.8
3286.46
3287.12
3287.54
3288.65
3300.68
3300.74
3300.84
3300.9
3301.1
3301.15
3301.46
3301.49
3301.91
3301.92
3302.46
3302.46
3303.1
3303.1
3303.83
3303.86
3304.63
3304.74
3305.5
3305.78
3306.43
3306.97
3307.39
3308.36
3321.83
3321.89
3321.97
3322.04
3322.22
3322.26
3322.55
3322.56
3322.96
3322.94
3323.46
3323.41
3324.03
3323.97
3324.68
3324.64
3325.39
3325.42
3326.16
3326.34
3326.97
3327.41
3327.81
3328.66
3343.6
3343.66
3343.73
3343.8
3343.96
3343.99
3344.26
3344.25
3344.64
3344.58
3345.08
3344.98
3345.58
3345.47
3346.15
3346.04
3346.77
3346.72
3347.43
3347.52
3348.13
3348.45
3348.85
3349.56
3366.02
3366.08
3366.14
3366.22
3366.34
3366.39
3366.62
3366.6
3366.96
3366.87
3367.34
3367.21
3367.78
3367.61
3368.26
3368.09
3368.79
3368.66
3369.35
3369.34
3369.93
3370.14
3370.52
3371.09
3389.11
3389.18
3389.23
3389.31
3389.41
3389.46
3389.65
3389.63
3389.94
3389.84
3390.28
3390.1
3390.65
3390.43
3391.05
3390.81
3391.48
3391.28
3391.94
3391.83
3392.4
3392.49
3392.86
3393.28
3412.91
3412.98
3413.02
3413.1
3413.17
3413.22
3413.38
3413.36
3413.63
3413.51
3413.91
3413.7
3414.22
3413.94
3414.54
3414.23
3414.87
3414.58
3415.22
3415.01
3415.56
3415.53
3415.89
3416.17
3437.43
3437.5
3437.54
3437.6
3437.66
3437.71
3437.83
3437.81
3438.03
3437.91
3438.26
3438.03
3438.5
3438.18
3438.74
3438.37
3438.98
3438.61
3439.22
3438.91
3439.44
3439.29
3439.64
3439.78
3462.69
3462.76
3462.8
3462.86
3462.9
3462.94
3463.03
3463.01
3463.18
3463.06
3463.35
3463.1
3463.52
3463.16
3463.69
3463.25
3463.83
3463.38
3463.96
3463.55
3464.06
3463.79
3464.12
3464.12
3488.73
3488.8
3488.82
3488.88
3488.91
3488.94
3489
3488.97
3489.1
3488.97
3489.2
3488.94
3489.31
3488.91
3489.39
3488.9
3489.44
3488.91
3489.46
3488.96
3489.44
3489.06
3489.38
3489.23
3515.55
3515.62
3515.64
3515.69
3515.71
3515.73
3515.76
3515.72
3515.81
3515.67
3515.85
3515.57
3515.88
3515.46
3515.88
3515.33
3515.84
3515.23
3515.74
3515.15
3515.6
3515.1
3515.4
3515.11
3543.18
3543.25
3543.27
3543.31
3543.32
3543.32
3543.33
3543.28
3543.33
3543.17
3543.3
3543.02
3543.26
3542.82
3543.17
3542.59
3543.03
3542.36
3542.84
3542.15
3542.57
3541.95
3542.24
3541.8
3571.65
3571.71
3571.73
3571.76
3571.75
3571.75
3571.73
3571.67
3571.68
3571.51
3571.59
3571.29
3571.46
3571
3571.29
3570.68
3571.06
3570.33
3570.75
3569.97
3570.36
3569.62
3569.89
3569.3
3600.96
3601.03
3601.03
3601.06
3601.04
3601.03
3600.99
3600.91
3600.88
3600.7
3600.73
3600.41
3600.53
3600.04
3600.26
3599.61
3599.93
3599.15
3599.52
3598.65
3599
3598.15
3598.39
3597.65
3631.14
3631.2
3631.21
3631.23
3631.2
3631.17
3631.1
3631.01
3630.95
3630.75
3630.73
3630.39
3630.46
3629.94
3630.11
3629.41
3629.68
3628.83
3629.16
3628.2
3628.52
3627.55
3627.78
3626.89
3662.2
3662.27
3662.27
3662.28
3662.24
3662.19
3662.11
3662
3661.91
3661.69
3661.63
3661.27
3661.28
3660.73
3660.84
3660.11
3660.32
3659.4
3659.69
3658.65
3658.93
3657.85
3658.05
3657.03
3694.16
3694.23
3694.23
3694.23
3694.18
3694.12
3694.02
3693.89
3693.77
3693.53
3693.43
3693.04
3693
3692.43
3692.48
3691.7
3691.85
3690.88
3691.11
3689.99
3690.24
3689.05
3689.23
3688.07
3727.04
3727.12
3727.1
3727.1
3727.04
3726.97
3726.85
3726.7
3726.55
3726.29
3726.14
3725.74
3725.64
3725.04
3725.03
3724.22
3724.31
3723.29
3723.47
3722.27
3722.48
3721.18
3721.34
3720.03
3760.86
3760.93
3760.91
3760.91
3760.83
3760.75
3760.61
3760.44
3760.26
3759.98
3759.79
3759.37
3759.22
3758.59
3758.52
3757.67
3757.71
3756.63
3756.75
3755.48
3755.65
3754.24
3754.38
3752.93
3795.62
3795.69
3795.67
3795.66
3795.57
3795.47
3795.32
3795.13
3794.92
3794.63
3794.39
3793.95
3793.74
3793.1
3792.97
3792.08
3792.06
3790.93
3791
3789.65
3789.77
3788.26
3788.38
3786.79
3831.33
3831.41
3831.38
3831.37
3831.27
3831.16
3830.98
3830.78
3830.54
3830.23
3829.96
3829.49
3829.23
3828.56
3828.37
3827.46
3827.37
3826.19
3826.2
3824.78
3824.86
3823.25
3823.34
3821.62
3868.03
3868.1
3868.07
3868.05
3867.94
3867.82
3867.63
3867.41
3867.14
3866.81
3866.5
3866.01
3865.7
3865.01
3864.76
3863.81
3863.66
3862.44
3862.39
3860.9
3860.94
3859.23
3859.3
3857.44
3905.7
3905.78
3905.75
3905.72
3905.6
3905.46
3905.26
3905.02
3904.73
3904.37
3904.03
3903.51
3903.16
3902.44
3902.14
3901.16
3900.95
3899.68
3899.58
3898.02
3898.01
3896.21
3896.25
3894.25
3944.37
3944.45
3944.41
3944.38
3944.25
3944.1
3943.88
3943.63
3943.31
3942.94
3942.55
3942.02
3941.62
3940.88
3940.52
3939.51
3939.24
3937.93
3937.77
3936.15
3936.1
3934.2
3934.21
3932.09
3984.03
3984.12
3984.08
3984.04
3983.9
3983.75
3983.51
3983.24
3982.9
3982.5
3982.09
3981.53
3981.09
3980.32
3979.91
3978.87
3978.54
3977.19
3976.98
3975.3
3975.2
3973.21
3973.2
3970.95
4024.71
4024.8
4024.76
4024.71
4024.57
4024.4
4024.15
4023.86
4023.5
4023.09
4022.64
4022.07
4021.58
4020.79
4020.32
4019.26
4018.87
4017.48
4017.21
4015.48
4015.33
4013.27
4013.22
4010.86
4066.4
4066.49
4066.45
4066.4
4066.25
4066.07
4065.8
4065.5
4065.12
4064.69
4064.21
4063.62
4063.09
4062.28
4061.76
4060.68
4060.23
4058.81
4058.48
4056.7
4056.51
4054.36
4054.29
4051.81
4109.12
4109.21
4109.16
4109.11
4108.95
4108.77
4108.49
4108.17
4107.77
4107.32
4106.82
4106.2
4105.64
4104.81
4104.24
4103.13
4102.63
4101.18
4100.8
4098.96
4098.73
4096.5
4096.41
4093.82
4152.85
4152.94
4152.89
4152.84
4152.67
4152.48
4152.19
4151.86
4151.44
4150.98
4150.45
4149.82
4149.21
4148.37
4147.75
4146.62
4146.07
4144.59
4144.15
4142.28
4142
4139.7
4139.58
4136.89
4197.6
4197.7
4197.65
4197.6
4197.42
4197.23
4196.92
4196.58
4196.15
4195.67
4195.11
4194.47
4193.83
4192.96
4192.31
4191.16
4190.55
4189.05
4188.56
4186.64
4186.32
4183.97
4183.81
4181.03
4243.38
4243.48
4243.43
4243.37
4243.19
4242.99
4242.68
4242.32
4241.88
4241.38
4240.8
4240.14
4239.47
4238.59
4237.9
4236.73
4236.08
4234.55
4234.02
4232.06
4231.7
4229.28
4229.11
4226.23
4290.17
4290.28
4290.23
4290.17
4289.99
4289.78
4289.45
4289.09
4288.63
4288.12
4287.53
4286.85
4286.15
4285.26
4284.53
4283.35
4282.65
4281.1
4280.52
4278.54
4278.13
4275.67
4275.46
4272.5
4337.97
4338.08
4338.03
4337.97
4337.79
4337.57
4337.24
4336.88
4336.4
4335.88
4335.27
4334.58
4333.85
4332.96
4332.18
4330.99
4330.25
4328.69
4328.07
4326.06
4325.61
4323.1
4322.87
4319.84
4386.78
4386.9
4386.85
4386.79
4386.6
4386.38
4386.05
4385.67
4385.19
4384.66
4384.03
4383.33
4382.58
4381.68
4380.87
4379.67
4378.89
4377.32
4376.65
4374.62
4374.14
4371.59
4371.34
4368.24
4436.58
4436.7
4436.65
4436.59
4436.4
4436.18
4435.84
4435.46
4434.97
4434.43
4433.79
4433.09
4432.32
4431.4
4430.57
4429.36
4428.55
4426.96
4426.26
4424.22
4423.7
4421.12
4420.84
4417.69
4487.37
4487.49
4487.44
4487.39
4487.2
4486.98
4486.63
4486.25
4485.75
4485.21
4484.55
4483.84
4483.05
4482.14
4481.28
4480.07
4479.22
4477.63
4476.9
4474.84
4474.29
4471.69
4471.39
4468.19
4539.11
4539.24
4539.2
4539.15
4538.95
4538.73
4538.39
4538
4537.5
4536.95
4536.29
4535.57
4534.77
4533.85
4532.97
4531.76
4530.89
4529.29
4528.53
4526.46
4525.88
4523.26
4522.95
4519.7
4591.82
4591.95
4591.91
4591.86
4591.67
4591.45
4591.1
4590.72
4590.21
4589.66
4588.99
4588.28
4587.46
4586.54
4585.64
4584.43
4583.54
4581.95
4581.15
4579.09
4578.48
4575.85
4575.52
4572.24
4645.44
4645.59
4645.55
4645.5
4645.31
4645.1
4644.75
4644.36
4643.85
4643.31
4642.63
4641.92
4641.09
4640.18
4639.26
4638.06
4637.14
4635.56
4634.74
4632.68
4632.05
4629.41
4629.06
4625.77
4700
4700.15
4700.11
4700.07
4699.88
4699.67
4699.32
4698.94
4698.43
4697.88
4697.21
4696.5
4695.67
4694.76
4693.83
4692.64
4691.7
4690.13
4689.29
4687.23
4686.59
4683.95
4683.59
4680.29
4755.42
4755.58
4755.54
4755.51
4755.32
4755.12
4754.77
4754.39
4753.89
4753.34
4752.67
4751.96
4751.13
4750.23
4749.29
4748.11
4747.16
4745.6
4744.75
4742.7
4742.05
4739.42
4739.04
4735.74
4811.73
4811.89
4811.86
4811.84
4811.65
4811.45
4811.11
4810.74
4810.24
4809.7
4809.03
4808.33
4807.49
4806.61
4805.66
4804.49
4803.54
4801.99
4801.13
4799.1
4798.43
4795.82
4795.44
4792.14
4868.85
4869.02
4868.99
4868.97
4868.79
4868.6
4868.26
4867.9
4867.4
4866.87
4866.21
4865.51
4864.68
4863.81
4862.85
4861.71
4860.75
4859.22
4858.36
4856.34
4855.67
4853.07
4852.69
4849.41
4926.81
4926.99
4926.97
4926.96
4926.79
4926.6
4926.27
4925.92
4925.42
4924.9
4924.24
4923.56
4922.73
4921.87
4920.92
4919.79
4918.84
4917.32
4916.47
4914.47
4913.8
4911.22
4910.84
4907.58
4985.52
4985.7
4985.69
4985.68
4985.52
4985.34
4985.01
4984.67
4984.18
4983.68
4983.02
4982.35
4981.53
4980.69
4979.73
4978.63
4977.67
4976.18
4975.33
4973.36
4972.7
4970.15
4969.77
4966.54
5045.02
5045.22
5045.21
5045.21
5045.05
5044.88
5044.57
5044.23
5043.75
5043.26
5042.6
5041.96
5041.14
5040.31
5039.36
5038.29
5037.33
5035.86
5035.02
5033.06
5032.42
5029.89
5029.52
5026.34
5105.2
5105.41
5105.4
5105.42
5105.26
5105.1
5104.79
5104.47
5104
5103.52
5102.87
5102.24
5101.43
5100.63
5099.68
5098.64
5097.68
5096.23
5095.4
5093.45
5092.83
5090.32
5089.96
5086.82
5166.13
5166.34
5166.34
5166.36
5166.21
5166.07
5165.77
5165.46
5164.99
5164.53
5163.89
5163.28
5162.47
5161.7
5160.75
5159.75
5158.79
5157.39
5156.54
5154.63
5154
5151.51
5151.15
5148.02
5227.67
5227.9
5227.9
5227.93
5227.79
5227.65
5227.36
5227.06
5226.6
5226.16
5225.52
5224.94
5224.14
5223.39
5222.45
5221.49
5220.54
5219.19
5218.34
5216.5
5215.87
5213.41
5213.05
5209.91
5289.9
5290.14
5290.13
5290.19
5290.04
5289.91
5289.62
5289.33
5288.88
5288.45
5287.81
5287.26
5286.45
5285.75
5284.8
5283.88
5282.96
5281.6
5280.88
5278.98
5278.52
5276.07
5275.79
5272.78
5352.74
5352.99
5352.97
5353.04
5352.89
5352.76
5352.47
5352.18
5351.73
5351.3
5350.66
5350.12
5349.29
5348.63
5347.66
5346.8
5345.86
5344.49
5343.94
5341.95
5341.65
5339.24
5339.08
5336.31
5416.23
5416.49
5416.48
5416.54
5416.39
5416.26
5415.96
5415.66
5415.2
5414.75
5414.11
5413.54
5412.71
5412.03
5411.05
5410.21
5409.19
5407.94
5407.33
5405.34
5405.16
5402.71
5402.65
5399.98
5480.38
5480.65
5480.64
5480.68
5480.53
5480.37
5480.07
5479.74
5479.26
5478.77
5478.11
5477.5
5476.65
5475.92
5474.9
5474.03
5472.94
5471.77
5470.97
5469.08
5468.85
5466.32
5466.34
5463.63
5545.26
5545.52
5545.51
5545.54
5545.38
5545.2
5544.87
5544.5
5543.98
5543.45
5542.74
5542.06
5541.16
5540.35
5539.27
5538.32
5537.13
5535.96
5534.94
5533.11
5532.7
5530.11
5530.13
5527.25
5610.9
5611.16
5611.16
5611.16
5610.99
5610.77
5610.41
5610
5609.43
5608.84
5608.06
5607.3
5606.31
5605.39
5604.21
5603.14
5601.81
5600.53
5599.25
5597.41
5596.74
5594.02
5593.95
5590.78
5677.38
5677.64
5677.64
5677.62
5677.44
5677.19
5676.79
5676.33
5675.71
5675.05
5674.2
5673.34
5672.25
5671.21
5669.89
5668.66
5667.14
5665.69
5664.1
5662.15
5661.08
5658.13
5657.87
5654.2
5744.75
5745.01
5745.01
5744.98
5744.78
5744.51
5744.08
5743.58
5742.91
5742.19
5741.27
5740.33
5739.14
5737.98
5736.52
5735.12
5733.41
5731.74
5729.84
5727.68
5726.08
5722.81
5722.14
5717.66
5813.03
5813.28
5813.29
5813.25
5813.04
5812.76
5812.31
5811.79
5811.09
5810.34
5809.36
5808.38
5807.11
5805.88
5804.31
5802.8
5800.93
5799.08
5796.94
5794.58
5792.44
5788.96
5787.58
5782.04
5882.19
5882.44
5882.46
5882.42
5882.22
5881.94
5881.49
5880.97
5880.26
5879.5
5878.51
5877.51
5876.21
5874.96
5873.35
5871.8
5869.87
5867.95
5865.72
5863.27
5860.89
5857.4
5855.51
5849.4
5952.16
5952.43
5952.45
5952.44
5952.24
5951.98
5951.54
5951.04
5950.35
5949.62
5948.64
5947.68
5946.38
5945.2
5943.57
5942.1
5940.15
5938.32
5936.11
5933.75
5931.52
5927.99
5926.51
5920.9
6022.84
6023.15
6023.15
6023.18
6022.99
6022.77
6022.35
6021.91
6021.23
6020.59
6019.6
6018.79
6017.44
6016.47
6014.75
6013.56
6011.53
6009.99
6007.78
6005.65
6003.61
6000.29
5998.97
5993.92
6094.1
6094.44
6094.41
6094.53
6094.3
6094.19
6093.75
6093.43
6092.73
6092.26
6091.21
6090.66
6089.19
6088.57
6086.7
6085.93
6083.76
6082.65
6080.38
6078.63
6076.65
6073.72
6072.49
6068.01
6165.77
6166.12
6166.13
6166.24
6166.1
6165.98
6165.66
6165.32
6164.79
6164.29
6163.46
6162.88
6161.66
6161.03
6159.43
6158.7
6156.78
6155.8
6153.75
6152.28
6150.36
6147.92
6146.75
6142.84
6237.67
6238.03
6238.08
6238.21
6238.12
6238.03
6237.79
6237.51
6237.08
6236.64
6235.96
6235.42
6234.43
6233.83
6232.49
6231.82
6230.17
6229.33
6227.5
6226.29
6224.51
6222.58
6221.42
6218.1
6309.64
6310
6310.08
6310.24
6310.2
6310.16
6309.99
6309.77
6309.44
6309.08
6308.54
6308.09
6307.26
6306.77
6305.63
6305.1
6303.67
6303.02
6301.39
6300.47
6298.83
6297.37
6296.24
6293.48
6381.49
6381.86
6381.97
6382.15
6382.16
6382.17
6382.07
6381.93
6381.69
6381.42
6381
6380.66
6379.99
6379.63
6378.67
6378.3
6377.07
6376.63
6375.21
6374.56
6373.12
6372.03
6370.96
6368.75
6453.05
6453.43
6453.56
6453.77
6453.83
6453.89
6453.86
6453.79
6453.64
6453.47
6453.16
6452.95
6452.42
6452.2
6451.42
6451.21
6450.18
6449.95
6448.72
6448.35
6447.09
6446.38
6445.36
6443.73
6524.17
6524.55
6524.7
6524.94
6525.05
6525.16
6525.19
6525.2
6525.14
6525.07
6524.87
6524.77
6524.39
6524.31
6523.69
6523.66
6522.8
6522.78
6521.74
6521.64
6520.56
6520.18
6519.32
6518.22
6594.69
6595.08
6595.26
6595.52
6595.67
6595.83
6595.93
6596.01
6596.03
6596.06
6595.97
6595.99
6595.74
6595.8
6595.34
6595.47
6594.79
6594.98
6594.12
6594.28
6593.37
6593.32
6592.58
6592.02
6664.49
6664.89
6665.08
6665.37
6665.56
6665.77
6665.93
6666.08
6666.18
6666.3
6666.32
6666.45
6666.33
6666.52
6666.21
6666.51
6665.99
6666.39
6665.7
6666.11
6665.36
6665.65
6665.05
6664.9
6733.46
6733.86
6734.07
6734.38
6734.61
6734.86
6735.08
6735.29
6735.48
6735.68
6735.8
6736.03
6736.04
6736.36
6736.2
6736.65
6736.29
6736.88
6736.35
6737.02
6736.41
6737.02
6736.54
6736.81
6801.49
6801.88
6802.11
6802.45
6802.7
6803
6803.27
6803.55
6803.81
6804.09
6804.31
6804.64
6804.76
6805.21
6805.18
6805.78
6805.57
6806.34
6805.97
6806.87
6806.4
6807.31
6806.93
6807.62
6868.49
6868.88
6869.12
6869.48
6869.77
6870.11
6870.42
6870.76
6871.09
6871.45
6871.75
6872.19
6872.41
6872.98
6873.07
6873.81
6873.75
6874.69
6874.46
6875.58
6875.24
6876.44
6876.15
6877.24
6934.39
6934.78
6935.03
6935.41
6935.72
6936.1
6936.46
6936.85
6937.24
6937.68
6938.06
6938.58
6938.91
6939.58
6939.8
6940.67
6940.74
6941.84
6941.74
6943.07
6942.85
6944.33
6944.12
6945.58
6999.13
6999.52
6999.78
7000.17
7000.51
7000.92
7001.32
7001.77
7002.22
7002.71
7003.18
7003.78
7004.21
7004.98
7005.3
7006.3
7006.48
7007.74
7007.76
7009.28
7009.17
7010.9
7010.77
7012.56
7062.66
7063.05
7063.32
7063.72
7064.09
7064.53
7064.97
7065.45
7065.96
7066.52
7067.05
7067.73
7068.24
7069.11
7069.53
7070.64
7070.94
7072.33
7072.47
7074.16
7074.16
7076.12
7076.03
7078.19
7124.96
7125.34
7125.62
7126.03
7126.42
7126.88
7127.36
7127.88
7128.44
7129.05
7129.65
7130.4
7130.99
7131.94
7132.46
7133.67
7134.07
7135.59
7135.83
7137.69
7137.77
7139.95
7139.93
7142.36
7185.99
7186.37
7186.65
7187.07
7187.48
7187.96
7188.47
7189.03
7189.63
7190.3
7190.95
7191.77
7192.42
7193.45
7194.06
7195.36
7195.85
7197.49
7197.83
7199.84
7200.01
7202.38
7202.43
7205.1
7245.75
7246.11
7246.4
7246.83
7247.25
7247.75
7248.29
7248.89
7249.52
7250.23
7250.94
7251.81
7252.53
7253.63
7254.31
7255.7
7256.28
7258.02
7258.45
7260.59
7260.84
7263.4
7263.49
7266.42
7304.22
7304.58
7304.87
7305.3
7305.73
7306.25
7306.81
7307.44
7308.11
7308.86
7309.61
7310.54
7311.32
7312.48
7313.23
7314.69
7315.35
7317.18
7317.69
7319.95
7320.27
7322.98
7323.12
7326.29
7361.41
7361.76
7362.05
7362.48
7362.93
7363.46
7364.04
7364.69
7365.4
7366.18
7366.97
7367.95
7368.77
7369.99
7370.8
7372.34
7373.06
7374.97
7375.55
7377.92
7378.3
7381.16
7381.33
7384.69
7417.33
7417.67
7417.96
7418.4
7418.85
7419.4
7419.99
7420.67
7421.39
7422.21
7423.04
7424.05
7424.92
7426.19
7427.05
7428.65
7429.42
7431.42
7432.05
7434.51
7434.95
7437.93
7438.14
7441.67
7472
7472.32
7472.62
7473.05
7473.51
7474.07
7474.68
7475.37
7476.12
7476.96
7477.82
7478.87
7479.77
7481.09
7481.99
7483.64
7484.47
7486.53
7487.21
7489.76
7490.24
7493.33
7493.56
7497.24
7525.43
7525.75
7526.04
7526.47
7526.94
7527.5
7528.12
7528.83
7529.59
7530.46
7531.34
7532.42
7533.36
7534.71
7535.65
7537.35
7538.22
7540.34
7541.06
7543.68
7544.2
7547.38
7547.64
7551.44
7577.66
7577.96
7578.25
7578.68
7579.15
7579.72
7580.35
7581.06
7581.85
7582.73
7583.63
7584.74
7585.71
7587.09
7588.06
7589.8
7590.7
7592.87
7593.63
7596.31
7596.86
7600.13
7600.4
7604.31
7628.71
7629
7629.29
7629.71
7630.18
7630.75
7631.39
7632.12
7632.91
7633.81
7634.73
7635.85
7636.84
7638.26
7639.25
7641.02
7641.95
7644.17
7644.96
7647.69
7648.27
7651.6
7651.89
7655.89
7678.61
7678.89
7679.18
7679.6
7680.07
7680.64
7681.28
7682.01
7682.82
7683.73
7684.66
7685.8
7686.81
7688.24
7689.26
7691.06
7692.02
7694.26
7695.08
7697.85
7698.45
7701.84
7702.15
7706.22
7727.4
7727.67
7727.96
7728.37
7728.84
7729.41
7730.06
7730.79
7731.6
7732.52
7733.47
7734.62
7735.64
7737.09
7738.13
7739.95
7740.92
7743.2
7744.03
7746.85
7747.46
7750.89
7751.22
7755.34
7775.13
7775.38
7775.66
7776.07
7776.54
7777.11
7777.75
7778.49
7779.31
7780.23
7781.18
7782.35
7783.38
7784.84
7785.89
7787.73
7788.72
7791.02
7791.87
7794.71
7795.34
7798.8
7799.14
7803.31
7821.81
7822.06
7822.33
7822.73
7823.2
7823.77
7824.41
7825.15
7825.97
7826.9
7827.85
7829.02
7830.06
7831.54
7832.59
7834.44
7835.45
7837.76
7838.62
7841.48
7842.13
7845.61
7845.95
7850.17
7867.51
7867.74
7868.01
7868.4
7868.87
7869.43
7870.07
7870.81
7871.62
7872.56
7873.51
7874.69
7875.73
7877.21
7878.28
7880.13
7881.15
7883.46
7884.34
7887.21
7887.87
7891.37
7891.71
7895.95
7912.25
7912.47
7912.73
7913.12
7913.58
7914.13
7914.77
7915.51
7916.32
7917.26
7918.21
7919.39
7920.43
7921.91
7922.98
7924.84
7925.86
7928.18
7929.07
7931.94
7932.58
7936.15
7936.46
7940.72
7956.07
7956.28
7956.54
7956.92
7957.37
7957.92
7958.56
7959.29
7960.1
7961.03
7961.98
7963.16
7964.2
7965.68
7966.75
7968.61
7969.63
7971.95
7972.84
7975.71
7976.36
7979.93
7980.25
7984.51
7999.02
7999.22
7999.47
7999.84
8000.29
8000.83
8001.46
8002.19
8002.99
8003.93
8004.86
8006.05
8007.08
8008.56
8009.62
8011.48
8012.5
8014.82
8015.71
8018.58
8019.23
8022.78
8023.1
8027.37
8041.14
8041.33
8041.57
8041.93
8042.37
8042.91
8043.53
8044.26
8045.05
8045.98
8046.91
8048.09
8049.11
8050.6
8051.64
8053.51
8054.51
8056.83
8057.7
8060.57
8061.22
8064.76
8065.08
8069.32
8082.46
8082.64
8082.88
8083.23
8083.67
8084.2
8084.81
8085.53
8086.31
8087.24
8088.15
8089.33
8090.34
8091.82
8092.85
8094.72
8095.7
8098.02
8098.88
8101.75
8102.39
8105.9
8106.22
8110.44
8123.03
8123.2
8123.43
8123.78
8124.2
8124.72
8125.33
8126.04
8126.81
8127.73
8128.64
8129.81
8130.8
8132.28
8133.3
8135.16
8136.13
8138.44
8139.28
8142.14
8142.75
8146.27
8146.57
8150.77
8162.88
8163.04
8163.27
8163.61
8164.02
8164.54
8165.13
8165.83
8166.59
8167.51
8168.4
8169.56
8170.54
8172.01
8173.02
8174.86
8175.82
8178.12
8178.94
8181.8
8182.38
8185.89
8186.18
8190.34
8202.06
8202.21
8202.43
8202.76
8203.16
8203.67
8204.26
8204.95
8205.7
8206.6
8207.48
8208.64
8209.6
8211.06
8212.04
8213.88
8214.82
8217.11
8217.89
8220.76
8221.32
8224.8
8225.08
8229.21
8240.59
8240.73
8240.95
8241.26
8241.66
8242.16
8242.74
8243.42
8244.15
8245.05
8245.91
8247.06
8248
8249.46
8250.42
8252.25
8253.16
8255.45
8256.22
8259.05
8259.58
8263.05
8263.31
8267.41
8278.52
8278.65
8278.86
8279.17
8279.56
8280.05
8280.61
8281.28
8282
8282.89
8283.74
8284.87
8285.8
8287.24
8288.18
8290
8290.89
8293.16
8293.91
8296.72
8297.23
8300.67
8300.92
8304.98
8315.87
8316
8316.2
8316.5
8316.88
8317.36
8317.91
8318.58
8319.28
8320.16
8320.98
8322.11
8323.02
8324.45
8325.37
8327.17
8328.03
8330.29
8331.01
8333.81
8334.29
8337.7
8337.94
8341.95
8352.69
8352.81
8353
8353.3
8353.67
8354.14
8354.68
8355.33
8356.02
8356.89
8357.69
8358.81
8359.69
8361.11
8362
8363.8
8364.61
8366.89
8367.55
8370.36
8370.8
8374.18
8374.41
8378.36
8389.01
8389.11
8389.3
8389.59
8389.95
8390.41
8390.93
8391.58
8392.25
8393.11
8393.89
8395
8395.85
8397.27
8398.12
8399.92
8400.7
8402.96
8403.57
8406.37
8406.79
8410.13
8410.35
8414.24
8424.84
8424.95
8425.13
8425.4
8425.76
8426.2
8426.72
8427.35
8428
8428.86
8429.61
8430.72
8431.53
8432.96
8433.76
8435.57
8436.28
8438.56
8439.13
8441.9
8442.3
8445.59
8445.8
8449.64
8460.24
8460.33
8460.51
8460.78
8461.12
8461.56
8462.05
8462.69
8463.31
8464.17
8464.88
8466
8466.76
8468.2
8468.93
8470.77
8471.42
8473.69
8474.23
8476.96
8477.35
8480.59
8480.79
8484.56
8495.22
8495.31
8495.48
8495.74
8496.07
8496.5
8496.98
8497.61
8498.2
8499.06
8499.73
8500.87
8501.56
8503.03
8503.71
8505.54
8506.16
8508.4
8508.91
8511.6
8511.98
8515.16
8515.36
8519.06
8529.82
8529.9
8530.06
8530.32
8530.63
8531.06
8531.52
8532.14
8532.71
8533.57
8534.2
8535.34
8536
8537.45
8538.1
8539.91
8540.5
8542.71
8543.21
8545.85
8546.22
8549.34
8549.53
8553.16
8564.06
8564.13
8564.29
8564.53
8564.85
8565.25
8565.71
8566.31
8566.87
8567.72
8568.32
8569.45
8570.08
8571.51
8572.13
8573.91
8574.49
8576.65
8577.14
8579.73
8580.09
8583.14
8583.34
8586.89
8597.97
8598.04
8598.19
8598.42
8598.73
8599.12
8599.58
8600.14
8600.72
8601.5
8602.13
8603.21
8603.83
8605.24
8605.84
8607.59
8608.15
8610.26
8610.74
8613.27
8613.63
8616.61
8616.8
8620.28
8631.58
8631.65
8631.79
8632.02
8632.32
8632.69
8633.14
8633.67
8634.27
8634.99
8635.65
8636.66
8637.31
8638.66
8639.25
8640.96
8641.5
8643.57
8644.04
8646.51
8646.86
8649.78
8649.97
8653.36
8664.93
8664.98
8665.13
8665.34
8665.63
8665.99
8666.43
8666.95
8667.54
8668.21
8668.9
8669.82
8670.52
8671.78
8672.4
8674.05
8674.59
8676.6
8677.06
8679.47
8679.82
8682.66
8682.85
8686.17
8698.03
8698.08
8698.22
8698.42
8698.7
8699.06
8699.48
8699.98
8700.56
8701.2
8701.91
8702.75
8703.49
8704.66
8705.32
8706.88
8707.43
8709.39
8709.84
8712.18
8712.53
8715.3
8715.49
8718.73
8730.92
8730.97
8731.1
8731.29
8731.57
8731.91
8732.32
8732.81
8733.36
8733.99
8734.69
8735.48
8736.24
8737.32
8738.03
8739.49
8740.07
8741.96
8742.41
8744.68
8745.03
8747.72
8747.91
8751.07
8763.63
8763.68
8763.8
8763.99
8764.26
8764.59
8764.99
8765.46
8766
8766.61
8767.29
8768.04
8768.82
8769.82
8770.56
8771.93
8772.54
8774.34
8774.8
8777.01
8777.36
8779.97
8780.16
8783.23
8796.22
8796.25
8796.37
8796.56
8796.81
8797.13
8797.52
8797.97
8798.5
8799.09
8799.75
8800.47
8801.25
8802.19
8802.95
8804.23
8804.88
8806.58
8807.07
8809.2
8809.54
8812.08
8812.27
8815.26
8828.7
8828.74
8828.85
8829.03
8829.27
8829.58
8829.96
8830.4
8830.9
8831.48
8832.11
8832.82
8833.58
8834.47
8835.24
8836.45
8837.12
8838.73
8839.24
8841.28
8841.64
8844.09
8844.29
8847.19
8861.15
8861.18
8861.29
8861.46
8861.69
8861.99
8862.35
8862.78
8863.27
8863.82
8864.44
8865.12
8865.87
8866.71
8867.49
8868.62
8869.31
8870.84
8871.37
8873.33
8873.69
8876.06
8876.27
8879.09
8893.61
8893.64
8893.74
8893.9
8894.13
8894.41
8894.76
8895.18
8895.65
8896.19
8896.78
8897.44
8898.17
8898.97
8899.75
8900.82
8901.52
8902.97
8903.51
8905.39
8905.76
8908.06
8908.27
8911
8926.16
8926.18
8926.28
8926.43
8926.65
8926.92
8927.26
8927.66
8928.11
8928.63
8929.21
8929.85
8930.55
8931.31
8932.1
8933.1
8933.82
8935.18
8935.74
8937.54
8937.91
8940.15
8940.35
8943.01
8958.86
8958.88
8958.98
8959.12
8959.33
8959.6
8959.92
8960.3
8960.74
8961.24
8961.8
8962.42
8963.09
8963.83
8964.6
8965.54
8966.27
8967.57
8968.14
8969.86
8970.24
8972.39
8972.61
8975.19
8991.82
8991.84
8991.93
8992.07
8992.27
8992.52
8992.83
8993.2
8993.62
8994.1
8994.64
8995.24
8995.89
8996.6
8997.36
8998.25
8998.98
9000.21
9000.79
9002.43
9002.82
9004.9
9005.12
9007.63
9025.14
9025.15
9025.24
9025.37
9025.56
9025.8
9026.1
9026.46
9026.86
9027.33
9027.84
9028.42
9029.05
9029.74
9030.48
9031.32
9032.05
9033.21
9033.8
9035.37
9035.77
9037.78
9038
9040.44
9058.93
9058.94
9059.02
9059.15
9059.33
9059.56
9059.85
9060.18
9060.58
9061.02
9061.52
9062.07
9062.68
9063.35
9064.06
9064.86
9065.6
9066.69
9067.29
9068.8
9069.2
9071.14
9071.36
9073.73
9093.32
9093.33
9093.4
9093.52
9093.69
9093.92
9094.19
9094.51
9094.89
9095.32
9095.8
9096.33
9096.92
9097.56
9098.25
9099.01
9099.75
9100.78
9101.39
9102.83
9103.23
9105.11
9105.33
9107.63
9128.44