/*--------------------------------*- C++ -*----------------------------------*\
  =========                 |
  \\      /  F ield         | OpenFOAM: The Open Source CFD Toolbox
   \\    /   O peration     | Website:  https://openfoam.org
    \\  /    A nd           | Version:  10
     \\/     M anipulation  |
\*---------------------------------------------------------------------------*/
FoamFile
{
    format      ascii;
    class       surfaceScalarField;
    location    "0.03";
    object      phi;
}
// * * * * * * * * * * * * * * * * * * * * * * * * * * * * * * * * * * * * * //

dimensions      [1 0 -1 0 0 0 0];

internalField   nonuniform List<scalar> 
8154
(
2.11155e-08
8.34925e-08
1.85684e-07
3.25749e-07
4.98677e-07
7.01263e-07
9.24659e-07
1.16494e-06
1.40915e-06
1.65179e-06
1.87779e-06
2.07462e-06
2.23313e-06
2.31853e-06
2.36903e-06
2.23493e-06
2.17798e-06
1.64889e-06
1.53367e-06
5.84736e-07
4.38569e-07
-5.07235e-07
-7.01193e-07
-0.000207932
-0.000623751
3.10303e-08
-0.00103958
1.23357e-07
-0.00145541
2.75611e-07
-0.00187122
4.85596e-07
-0.00228701
7.49776e-07
-0.00270279
1.06409e-06
-0.00311854
1.42294e-06
-0.00353426
1.82043e-06
-0.00394994
2.24865e-06
-0.00436559
2.70009e-06
-0.0047812
3.16379e-06
-0.00519674
3.63128e-06
-0.00561226
4.08926e-06
-0.00602771
4.52976e-06
-0.00644306
4.91159e-06
-0.00685848
5.29126e-06
-0.00727349
5.47564e-06
-0.00768916
5.78001e-06
-0.00810356
5.56042e-06
-0.00851958
5.679e-06
-0.00893381
4.92474e-06
-0.00934981
4.27693e-06
-0.00976513
2.81556e-06
-0.000207726
-0.000623133
2.48237e-08
-0.00103855
9.86532e-08
-0.00145396
2.20356e-07
-0.00186935
3.88037e-07
-0.00228472
5.98937e-07
-0.00270007
8.49064e-07
-0.00311538
1.13468e-06
-0.00353066
1.44937e-06
-0.00394589
1.78861e-06
-0.00436108
2.14369e-06
-0.00477622
2.50846e-06
-0.00519129
2.87399e-06
-0.00560632
3.23045e-06
-0.00602123
3.57218e-06
-0.00643612
3.85975e-06
-0.00685087
4.17213e-06
-0.00726554
4.28926e-06
-0.00768021
4.57929e-06
-0.00809449
4.35804e-06
-0.00850916
4.54828e-06
-0.00892304
3.97908e-06
-0.00933775
3.47209e-06
-0.00975128
2.45838e-06
-0.000207509
-0.000622481
1.34771e-08
-0.00103746
5.33655e-08
-0.00145244
1.18613e-07
-0.00186739
2.08146e-07
-0.00228231
3.18449e-07
-0.00269721
4.48322e-07
-0.00311207
5.91206e-07
-0.00352689
7.46533e-07
-0.00394166
9.04349e-07
-0.00435637
1.06466e-06
-0.00477103
1.21516e-06
-0.00518561
1.35451e-06
-0.00560014
1.47163e-06
-0.00601452
1.55015e-06
-0.00642896
1.61929e-06
-0.00684303
1.58634e-06
-0.0072574
1.60061e-06
-0.00767108
1.3975e-06
-0.0080853
1.33692e-06
-0.00849872
8.97342e-07
-0.00891221
8.45609e-07
-0.00932593
3.61002e-07
-0.00973755
8.40902e-08
-0.000207272
-0.000621769
1.08833e-08
-0.00103627
4.30314e-08
-0.00145077
9.55129e-08
-0.00186524
1.67773e-07
-0.00227968
2.56049e-07
-0.0026941
3.60728e-07
-0.00310846
4.73986e-07
-0.00352279
5.98564e-07
-0.00393706
7.21655e-07
-0.00435126
8.4871e-07
-0.00476541
9.62873e-07
-0.00517947
1.06953e-06
-0.00559346
1.15343e-06
-0.00600733
1.20605e-06
-0.00642117
1.25605e-06
-0.00683479
1.18373e-06
-0.00724845
1.22169e-06
-0.00766181
9.51032e-07
-0.00807508
9.63073e-07
-0.00848843
6.49335e-07
-0.00890101
4.58175e-07
-0.00931443
1.31955e-07
-0.00972577
-8.97373e-08
-0.000207024
-0.000621026
1.1782e-08
-0.00103503
4.66717e-08
-0.00144903
1.0402e-07
-0.00186301
1.82967e-07
-0.00227695
2.8132e-07
-0.00269085
3.97441e-07
-0.00310471
5.27743e-07
-0.00351853
6.69995e-07
-0.00393228
8.19136e-07
-0.00434596
9.7258e-07
-0.00475958
1.12359e-06
-0.00517311
1.27023e-06
-0.00558656
1.40251e-06
-0.00599991
1.52339e-06
-0.00641312
1.60612e-06
-0.00682633
1.69259e-06
-0.00723918
1.683e-06
-0.0076523
1.72743e-06
-0.00806476
1.73071e-06
-0.00847771
1.48615e-06
-0.00888965
1.30302e-06
-0.00930266
1.00087e-06
-0.00971383
6.50101e-07
-0.000206767
-0.000620255
1.03425e-08
-0.00103375
4.09467e-08
-0.00144723
9.12406e-08
-0.00186069
1.60739e-07
-0.00227411
2.47048e-07
-0.00268749
3.49625e-07
-0.00310083
4.63939e-07
-0.00351411
5.89982e-07
-0.00392733
7.20661e-07
-0.00434048
8.56799e-07
-0.00475356
9.88777e-07
-0.00516653
1.1181e-06
-0.00557944
1.23307e-06
-0.00599222
1.3372e-06
-0.0064049
1.41738e-06
-0.00681748
1.47273e-06
-0.00722985
1.48975e-06
-0.00764228
1.46908e-06
-0.00805421
1.31494e-06
-0.00846657
1.26601e-06
-0.00887787
1.09497e-06
-0.00929029
8.15367e-07
-0.00970065
4.86996e-07
-0.0002065
-0.000619453
9.23855e-09
-0.00103241
3.6552e-08
-0.00144536
8.14721e-08
-0.00185828
1.43701e-07
-0.00227116
2.20968e-07
-0.002684
3.13108e-07
-0.00309679
4.15648e-07
-0.00350953
5.29232e-07
-0.0039222
6.46647e-07
-0.00433479
7.69668e-07
-0.00474731
8.88326e-07
-0.00515972
1.00523e-06
-0.00557206
1.10854e-06
-0.00598427
1.20155e-06
-0.00639638
1.27473e-06
-0.00680837
1.32022e-06
-0.00722016
1.3398e-06
-0.00763199
1.31525e-06
-0.00804331
1.29713e-06
-0.00845507
1.13286e-06
-0.00886574
9.66781e-07
-0.00927756
7.14689e-07
-0.00968723
4.15328e-07
-0.000206219
-0.000618613
8.38185e-09
-0.00103101
3.31363e-08
-0.0014434
7.38892e-08
-0.00185575
1.30472e-07
-0.00226807
2.00768e-07
-0.00268035
2.84818e-07
-0.00309257
3.78367e-07
-0.00350473
4.82361e-07
-0.00391683
5.89828e-07
-0.00432884
7.02968e-07
-0.00474078
8.11985e-07
-0.00515261
9.20081e-07
-0.00556436
1.01537e-06
-0.00597597
1.10078e-06
-0.00638748
1.16708e-06
-0.00679888
1.2093e-06
-0.00721005
1.22764e-06
-0.00762127
1.20191e-06
-0.00803197
1.14177e-06
-0.00844312
1.03385e-06
-0.00885314
8.82152e-07
-0.00926433
6.51621e-07
-0.00967334
3.7628e-07
-0.000205929
-0.000617741
7.69483e-09
-0.00102956
3.03907e-08
-0.00144136
6.77983e-08
-0.00185313
1.19832e-07
-0.00226487
1.84537e-07
-0.00267655
2.62041e-07
-0.00308819
3.48372e-07
-0.00349976
4.44571e-07
-0.00391127
5.44079e-07
-0.00432268
6.49222e-07
-0.00473403
7.50699e-07
-0.00514524
8.51932e-07
-0.0055564
9.41185e-07
-0.00596739
1.02237e-06
-0.00637829
1.08216e-06
-0.00678907
1.12224e-06
-0.00719961
1.13757e-06
-0.00761021
1.1162e-06
-0.00802026
1.06698e-06
-0.00843078
9.60552e-07
-0.00884014
8.16907e-07
-0.0092507
6.05656e-07
-0.00965904
3.47523e-07
-0.000205625
-0.000616829
7.13932e-09
-0.00102804
2.81631e-08
-0.00143923
6.28553e-08
-0.00185039
1.1119e-07
-0.00226152
1.71348e-07
-0.00267259
2.43496e-07
-0.00308362
3.23908e-07
-0.00349457
4.13642e-07
-0.00390546
5.06498e-07
-0.00431625
6.04846e-07
-0.00472697
6.99859e-07
-0.00513756
7.95152e-07
-0.00554808
8.7975e-07
-0.00595844
9.58717e-07
-0.0063687
1.01278e-06
-0.00677883
1.05055e-06
-0.00718873
1.06348e-06
-0.00759868
1.04567e-06
-0.00800807
9.96025e-07
-0.00841793
9.00657e-07
-0.00882663
7.64764e-07
-0.00923652
5.68827e-07
-0.00964418
3.25366e-07
-0.00020531
-0.000615884
6.67337e-09
-0.00102646
2.62887e-08
-0.00143703
5.87021e-08
-0.00184755
1.03921e-07
-0.00225805
1.60275e-07
-0.00266849
2.27891e-07
-0.00307888
3.03342e-07
-0.00348919
3.87534e-07
-0.00389944
4.74711e-07
-0.00430959
5.67009e-07
-0.00471967
6.56116e-07
-0.00512961
7.45429e-07
-0.00553949
8.2443e-07
-0.00594918
8.96961e-07
-0.00635879
9.51107e-07
-0.00676826
9.88165e-07
-0.00717749
9.99804e-07
-0.00758677
9.85385e-07
-0.00799549
9.36852e-07
-0.00840467
8.5035e-07
-0.00881268
7.20773e-07
-0.00922188
5.38584e-07
-0.00962885
3.06087e-07
-0.000204981
-0.000614898
6.27663e-09
-0.00102482
2.46864e-08
-0.00143472
5.51553e-08
-0.00184459
9.77194e-08
-0.00225443
1.50855e-07
-0.0026642
2.14639e-07
-0.00307393
2.85938e-07
-0.00348358
3.65481e-07
-0.00389317
4.47946e-07
-0.00430264
5.35178e-07
-0.00471206
6.1934e-07
-0.00512132
7.03566e-07
-0.00553053
7.77673e-07
-0.00593954
8.45923e-07
-0.00634846
8.97035e-07
-0.00675724
9.34914e-07
-0.00716579
9.46054e-07
-0.00757437
9.34129e-07
-0.0079824
8.8722e-07
-0.00839086
8.08045e-07
-0.00879818
6.84824e-07
-0.00920667
5.13235e-07
-0.00961293
2.90507e-07
-0.000204641
-0.000613878
5.92052e-09
-0.00102312
2.32442e-08
-0.00143234
5.1968e-08
-0.00184153
9.21466e-08
-0.00225068
1.42422e-07
-0.00265978
2.02785e-07
-0.00306882
2.70466e-07
-0.00347778
3.45935e-07
-0.00388668
4.24455e-07
-0.00429546
5.07407e-07
-0.00470419
5.87678e-07
-0.00511275
6.67792e-07
-0.00552127
7.38091e-07
-0.00592957
8.02346e-07
-0.0063378
8.47157e-07
-0.00674586
8.8798e-07
-0.00715371
9.00172e-07
-0.00756157
8.9058e-07
-0.00796889
8.4587e-07
-0.00837663
7.72252e-07
-0.00878323
6.53602e-07
-0.00919097
4.9159e-07
-0.00959651
2.76009e-07
-0.000204286
-0.000612815
5.5961e-09
-0.00102134
2.19242e-08
-0.00142986
4.90474e-08
-0.00183834
8.70423e-08
-0.00224679
1.34693e-07
-0.00265516
1.91934e-07
-0.0030635
2.5631e-07
-0.00347174
3.28099e-07
-0.00387993
4.03114e-07
-0.00428799
4.82373e-07
-0.004696
5.59548e-07
-0.00510384
6.36636e-07
-0.00551163
7.049e-07
-0.0059192
7.67295e-07
-0.00632672
8.12282e-07
-0.00673403
8.49018e-07
-0.00714115
8.61138e-07
-0.00754826
8.53882e-07
-0.00795485
8.14654e-07
-0.00836183
7.40768e-07
-0.00876769
6.25405e-07
-0.00917467
4.71182e-07
-0.00957946
2.62971e-07
-0.00020392
-0.000611717
5.28997e-09
-0.00101951
2.06753e-08
-0.0014273
4.62796e-08
-0.00183505
8.21981e-08
-0.00224276
1.27339e-07
-0.0026504
1.81581e-07
-0.003058
2.42748e-07
-0.00346551
3.10941e-07
-0.00387296
3.82472e-07
-0.00428028
4.5805e-07
-0.00468755
5.3213e-07
-0.00509464
6.06277e-07
-0.00550169
6.72833e-07
-0.0059085
7.34308e-07
-0.00631528
7.8068e-07
-0.00672183
8.14433e-07
-0.0071282
8.23522e-07
-0.00753454
8.17054e-07
-0.00794038
7.59518e-07
-0.00834657
7.07424e-07
-0.00875168
5.95875e-07
-0.00915786
4.50388e-07
-0.0095619
2.4915e-07
-0.00020354
-0.000610576
5.00447e-09
-0.00101761
1.95054e-08
-0.00142464
4.36801e-08
-0.00183162
7.76506e-08
-0.00223857
1.20412e-07
-0.00264545
1.71822e-07
-0.00305229
2.29877e-07
-0.00345903
2.94599e-07
-0.00386572
3.62569e-07
-0.00427226
4.34391e-07
-0.00467877
5.04908e-07
-0.00508508
5.756e-07
-0.00549136
6.39421e-07
-0.0058974
6.98927e-07
-0.0063034
7.44722e-07
-0.00670916
7.8298e-07
-0.00711476
7.86125e-07
-0.0075203
7.7902e-07
-0.00792536
7.07802e-07
-0.00833074
6.73161e-07
-0.00873507
5.65963e-07
-0.00914043
4.28803e-07
-0.00954369
2.35788e-07
-0.000203147
-0.0006094
4.73039e-09
-0.00101565
1.83812e-08
-0.00142189
4.11812e-08
-0.00182809
7.32863e-08
-0.00223426
1.13761e-07
-0.00264035
1.62469e-07
-0.0030464
2.17525e-07
-0.00345235
2.78916e-07
-0.00385825
3.43362e-07
-0.00426401
4.11456e-07
-0.00466972
4.78105e-07
-0.00507524
5.44912e-07
-0.00548072
6.04764e-07
-0.00588596
6.60497e-07
-0.00629116
7.03325e-07
-0.00669611
7.38515e-07
-0.00710092
7.44769e-07
-0.00750563
7.39489e-07
-0.0079099
7.34566e-07
-0.00831444
6.40563e-07
-0.00871798
5.34931e-07
-0.0091225
4.07199e-07
-0.00952495
2.21956e-07
-0.00020274
-0.000608179
4.46954e-09
-0.00101362
1.73082e-08
-0.00141905
3.87928e-08
-0.00182443
6.91292e-08
-0.00222978
1.07431e-07
-0.00263506
1.53612e-07
-0.0030403
2.05856e-07
-0.00344542
2.64206e-07
-0.00385051
3.25418e-07
-0.00425544
3.90208e-07
-0.00466034
4.53316e-07
-0.00506503
5.16689e-07
-0.0054697
5.72537e-07
-0.0058741
6.2438e-07
-0.00627849
6.62123e-07
-0.00668259
6.90516e-07
-0.00708658
7.00738e-07
-0.00749044
6.94915e-07
-0.00789388
6.13369e-07
-0.00829757
6.029e-07
-0.00870029
5.06816e-07
-0.00910393
3.87053e-07
-0.00950557
2.09554e-07
-0.000202321
-0.000606923
4.20865e-09
-0.00101152
1.62362e-08
-0.00141612
3.64055e-08
-0.00182066
6.49817e-08
-0.00222518
1.01114e-07
-0.00262961
1.44806e-07
-0.00303401
1.94283e-07
-0.0034383
2.49715e-07
-0.00384255
3.07919e-07
-0.00424663
3.69769e-07
-0.00465069
4.29909e-07
-0.00505453
4.90665e-07
-0.00545835
5.43803e-07
-0.0058619
5.93408e-07
-0.00626544
6.27894e-07
-0.00666868
6.5439e-07
-0.00707183
6.55098e-07
-0.00747482
6.57932e-07
-0.00787742
5.72291e-07
-0.00828022
5.74093e-07
-0.0086821
4.81498e-07
-0.00908485
3.69369e-07
-0.00948565
1.9791e-07
-0.000201888
-0.000605624
3.94209e-09
-0.00100936
1.51406e-08
-0.00141308
3.39595e-08
-0.00181676
6.07436e-08
-0.00222041
9.46299e-08
-0.00262398
1.35795e-07
-0.00302751
1.82365e-07
-0.00343093
2.3485e-07
-0.00383431
2.89967e-07
-0.00423752
3.48994e-07
-0.00464071
4.06308e-07
-0.00504367
4.64933e-07
-0.00544662
5.16381e-07
-0.00584929
5.65266e-07
-0.00625195
5.9978e-07
-0.0066543
6.27054e-07
-0.0070566
6.28872e-07
-0.00745867
6.29729e-07
-0.00786041
5.92619e-07
-0.0082623
5.52194e-07
-0.00866332
4.59051e-07
-0.00906513
3.53185e-07
-0.00946507
1.87403e-07
-0.000201443
-0.000604288
3.65418e-09
-0.00100713
1.39602e-08
-0.00140997
3.13242e-08
-0.00181276
5.61806e-08
-0.00221551
8.76383e-08
-0.00261819
1.26042e-07
-0.00302084
1.69464e-07
-0.00342336
2.18589e-07
-0.00382585
2.70346e-07
-0.00422816
3.25857e-07
-0.00463046
3.80174e-07
-0.00503252
4.35758e-07
-0.00543457
4.8561e-07
-0.00583634
5.33308e-07
-0.00623811
5.69057e-07
-0.00663954
5.99528e-07
-0.00704095
6.09646e-07
-0.0074421
6.0706e-07
-0.00784295
5.70975e-07
-0.0082439
5.29329e-07
-0.00864403
4.37094e-07
-0.0090449
3.36794e-07
-0.00944396
1.76159e-07
-0.000200983
-0.00060291
3.33465e-09
-0.00100484
1.26494e-08
-0.00140675
2.83856e-08
-0.00180862
5.10829e-08
-0.00221046
7.98648e-08
-0.00261222
1.15042e-07
-0.00301394
1.55233e-07
-0.00341554
2.00212e-07
-0.00381711
2.48592e-07
-0.0042185
2.9936e-07
-0.00461988
3.507e-07
-0.00502101
4.00525e-07
-0.00542215
4.49182e-07
-0.00582298
4.92217e-07
-0.00622383
5.27735e-07
-0.00662432
5.57741e-07
-0.0070248
5.69858e-07
-0.007425
5.83611e-07
-0.00782495
5.38153e-07
-0.00822492
4.99363e-07
-0.00862415
4.1131e-07
-0.00902404
3.18208e-07
-0.0094222
1.648e-07
-0.000200511
-0.000601495
2.96537e-09
-0.00100248
1.11426e-08
-0.00140345
2.50215e-08
-0.00180438
4.51131e-08
-0.00220527
7.09713e-08
-0.00260609
1.01778e-07
-0.00300687
1.38832e-07
-0.00340752
1.81167e-07
-0.00380815
2.22791e-07
-0.00420859
2.52387e-07
-0.00460902
3.15922e-07
-0.00500921
3.74373e-07
-0.0054094
4.05854e-07
-0.00580928
4.39166e-07
-0.00620918
4.74642e-07
-0.00660872
4.96747e-07
-0.00700827
5.07931e-07
-0.00740746
5.11255e-07
-0.00780649
4.85363e-07
-0.00820548
4.53487e-07
-0.00860378
3.75089e-07
-0.00900266
2.95354e-07
-0.00939991
1.53357e-07
-0.000200025
-0.000600039
2.52834e-09
-0.00100005
9.37526e-09
-0.00140005
2.11495e-08
-0.00180001
3.84395e-08
-0.00219993
6.06264e-08
-0.00259978
9.46103e-08
-0.00299959
1.16702e-07
-0.00339927
1.45406e-07
-0.00379893
1.85577e-07
-0.00419839
2.22731e-07
-0.00459785
2.63537e-07
-0.00499706
3.28275e-07
-0.00539628
3.40997e-07
-0.00579518
3.9668e-07
-0.00619411
4.05936e-07
-0.00659266
4.2061e-07
-0.00699124
4.32592e-07
-0.00738944
4.26061e-07
-0.0077875
4.0464e-07
-0.00818548
3.85047e-07
-0.00858283
3.17354e-07
-0.00898068
2.56402e-07
-0.00937698
1.34154e-07
-0.000199528
-0.000598546
2.01775e-09
-0.000997563
7.32353e-09
-0.00139657
1.62978e-08
-0.00179553
3.16678e-08
-0.00219446
4.63462e-08
-0.00259331
7.09385e-08
-0.00299213
9.26779e-08
-0.00339081
1.25087e-07
-0.00378948
1.51252e-07
-0.00418793
1.88487e-07
-0.00458642
2.1496e-07
-0.0049846
2.54593e-07
-0.00538285
2.73263e-07
-0.00578073
3.12999e-07
-0.00617867
3.14219e-07
-0.00657622
3.42906e-07
-0.0069738
3.36576e-07
-0.007371
3.3324e-07
-0.00776808
2.90801e-07
-0.00816501
2.81855e-07
-0.0085614
2.26266e-07
-0.0089582
1.79406e-07
-0.00935353
7.76631e-08
-0.000199016
-0.000597012
1.68402e-09
-0.000995006
5.46527e-09
-0.00139299
1.31374e-08
-0.00179093
2.5142e-08
-0.00218884
3.92847e-08
-0.00258666
5.87328e-08
-0.00298447
7.9219e-08
-0.00338211
1.0523e-07
-0.00377977
1.30071e-07
-0.00417719
1.60582e-07
-0.00457467
1.86502e-07
-0.00497181
2.18846e-07
-0.00536906
2.40781e-07
-0.00576588
2.71642e-07
-0.00616284
2.82601e-07
-0.00655933
3.07565e-07
-0.0069559
2.9871e-07
-0.00735204
3.15442e-07
-0.00774815
2.90765e-07
-0.00814402
2.65034e-07
-0.00853941
2.14126e-07
-0.00893514
1.72471e-07
-0.00932951
7.5478e-08
-0.000198493
-0.000595443
1.36706e-09
-0.000992391
4.62888e-09
-0.00138933
1.02272e-08
-0.00178622
1.94215e-08
-0.00218309
3.10617e-08
-0.00257987
4.65969e-08
-0.00297663
6.37887e-08
-0.00337323
8.50961e-08
-0.00376985
1.06362e-07
-0.00416622
1.32034e-07
-0.00456265
1.54736e-07
-0.00495874
1.82613e-07
-0.00535495
2.02899e-07
-0.00575072
2.30142e-07
-0.00614664
2.42914e-07
-0.00654206
2.66262e-07
-0.00693761
2.65574e-07
-0.00733269
2.83549e-07
-0.00772776
2.71343e-07
-0.00812256
2.59567e-07
-0.00851694
2.00011e-07
-0.00891158
1.66227e-07
-0.00930496
7.43135e-08
-0.000197957
-0.000593835
8.93683e-10
-0.000989711
2.71779e-09
-0.00138558
6.17978e-09
-0.0017814
1.21624e-08
-0.0021772
1.99962e-08
-0.0025729
3.08274e-08
-0.00296859
4.29439e-08
-0.00336412
5.85052e-08
-0.00375967
7.39925e-08
-0.00415497
9.35441e-08
-0.00455034
1.10424e-07
-0.00494535
1.32479e-07
-0.0053405
1.47693e-07
-0.00573518
1.70071e-07
-0.00613005
1.79482e-07
-0.00652438
1.9933e-07
-0.00691889
1.9742e-07
-0.00731287
2.1188e-07
-0.00770688
1.89125e-07
-0.00810058
2.02094e-07
-0.00849393
1.51704e-07
-0.00888744
1.3073e-07
-0.00927981
5.40374e-08
-0.000197409
-0.000592193
4.02124e-10
-0.000986974
5.77277e-10
-0.00138175
1.42655e-09
-0.00177647
3.59316e-09
-0.00217118
6.8683e-09
-0.00256579
1.21482e-08
-0.00296039
1.81771e-08
-0.00335482
2.69151e-08
-0.00374928
3.53881e-08
-0.00414348
4.75443e-08
-0.00453777
5.72758e-08
-0.00493168
7.22374e-08
-0.00532575
8.10747e-08
-0.00571932
9.76348e-08
-0.00611312
1.02465e-07
-0.00650633
1.18709e-07
-0.00689978
1.15324e-07
-0.00729263
1.28203e-07
-0.0076856
1.11394e-07
-0.00807815
1.11807e-07
-0.00847046
8.81933e-08
-0.00886283
8.43362e-08
-0.00925416
2.66119e-08
-0.000196848
-0.000590512
-1.87174e-10
-0.000984174
-1.62486e-09
-0.00137783
-3.99445e-09
-0.00177144
-6.10388e-09
-0.00216503
-7.79307e-09
-0.00255851
-8.76777e-09
-0.002952
-9.44113e-09
-0.00334531
-8.31423e-09
-0.00373866
-7.73097e-09
-0.00413173
-3.82468e-09
-0.00452491
-2.21387e-09
-0.0049177
4.89276e-09
-0.00531066
6.50046e-09
-0.00570311
1.68411e-08
-0.0060958
1.6586e-08
-0.00648789
2.96662e-08
-0.00688023
2.49382e-08
-0.00727195
3.98577e-08
-0.00766384
2.76991e-08
-0.00805525
4.47078e-08
-0.00844648
2.47171e-08
-0.00883769
3.62164e-08
-0.00922796
-3.10758e-09
-0.000196277
-0.000588799
-8.3359e-10
-0.000981318
-4.16949e-09
-0.00137384
-1.05696e-08
-0.0017663
-1.64562e-08
-0.00215875
-2.35559e-08
-0.00255109
-3.13526e-08
-0.00294344
-3.89379e-08
-0.00333561
-4.61984e-08
-0.00372782
-5.39293e-08
-0.00411976
-5.90229e-08
-0.0045118
-6.60554e-08
-0.00490345
-6.75146e-08
-0.00529528
-7.35582e-08
-0.00568659
-6.99981e-08
-0.00607816
-7.55039e-08
-0.00646909
-6.58579e-08
-0.00686033
-7.19542e-08
-0.00725089
-5.55879e-08
-0.00764167
-6.41558e-08
-0.00803191
-4.06758e-08
-0.00842206
-5.64071e-08
-0.00881208
-1.99246e-08
-0.0092013
-3.56243e-08
-0.000195693
-0.000587049
-1.5724e-09
-0.0009784
-7.63273e-09
-0.00136975
-1.62984e-08
-0.00176105
-2.57715e-08
-0.00215233
-4.09418e-08
-0.00254352
-5.47766e-08
-0.0029347
-6.97542e-08
-0.00332571
-8.60434e-08
-0.00371676
-1.02214e-07
-0.00410753
-1.16885e-07
-0.00449842
-1.32909e-07
-0.0048889
-1.43276e-07
-0.00527958
-1.57413e-07
-0.00566972
-1.60865e-07
-0.00606015
-1.7198e-07
-0.00644991
-1.65775e-07
-0.00684002
-1.73156e-07
-0.0072294
-1.54362e-07
-0.00761906
-1.5721e-07
-0.00800811
-1.23787e-07
-0.00839717
-1.29877e-07
-0.00878598
-7.37469e-08
-0.00917412
-6.65451e-08
-0.000195099
-0.000585266
-2.16074e-09
-0.000975431
-9.89356e-09
-0.0013656
-2.18705e-08
-0.00175571
-3.74894e-08
-0.00214581
-5.72318e-08
-0.0025358
-7.60471e-08
-0.0029258
-1.03007e-07
-0.00331563
-1.26955e-07
-0.0037055
-1.51716e-07
-0.00409509
-1.76565e-07
-0.0044848
-2.01279e-07
-0.00487409
-2.20978e-07
-0.00526361
-2.43197e-07
-0.00565256
-2.53987e-07
-0.00604183
-2.70866e-07
-0.0064304
-2.68611e-07
-0.00681936
-2.77572e-07
-0.00720754
-2.57244e-07
-0.00759607
-2.5555e-07
-0.00798392
-2.11898e-07
-0.00837185
-1.98727e-07
-0.00875945
-1.21761e-07
-0.0091465
-9.9419e-08
-0.000194493
-0.00058345
-2.81614e-09
-0.000972405
-1.25538e-08
-0.00136136
-2.75171e-08
-0.00175026
-4.8997e-08
-0.00213915
-7.36999e-08
-0.00252794
-1.01842e-07
-0.00291674
-1.37411e-07
-0.00330535
-1.64351e-07
-0.00369402
-2.04164e-07
-0.00408241
-2.36992e-07
-0.00447092
-2.70332e-07
-0.00485901
-2.99717e-07
-0.00524733
-3.29525e-07
-0.00563508
-3.47733e-07
-0.00602317
-3.70541e-07
-0.00641053
-3.72284e-07
-0.00679832
-3.83131e-07
-0.00718529
-3.61375e-07
-0.00757267
-3.55238e-07
-0.00795929
-3.03113e-07
-0.00834609
-2.73822e-07
-0.00873245
-1.8054e-07
-0.00911839
-1.29882e-07
-0.000193878
-0.000581604
-3.58022e-09
-0.000969329
-1.56208e-08
-0.00135705
-3.48306e-08
-0.00174472
-6.06254e-08
-0.00213239
-9.08294e-08
-0.00251995
-1.27107e-07
-0.00290752
-1.66437e-07
-0.00329491
-2.05836e-07
-0.00368236
-2.39437e-07
-0.00406952
-2.91021e-07
-0.00445682
-3.41785e-07
-0.00484368
-3.78503e-07
-0.0052308
-4.14922e-07
-0.00561732
-4.41018e-07
-0.00600421
-4.69008e-07
-0.00639035
-4.74996e-07
-0.00677695
-4.87593e-07
-0.00716269
-4.64498e-07
-0.0075489
-4.5427e-07
-0.00793428
-3.93911e-07
-0.00831994
-3.54469e-07
-0.00870504
-2.503e-07
-0.00908987
-1.56095e-07
-0.000193251
-0.000579725
-4.28197e-09
-0.000966198
-1.84808e-08
-0.00135267
-4.12629e-08
-0.00173909
-7.19784e-08
-0.00212551
-1.07846e-07
-0.00251182
-1.51309e-07
-0.00289815
-1.97512e-07
-0.00328428
-2.48118e-07
-0.0036705
-2.99837e-07
-0.00405641
-3.52479e-07
-0.00444247
-4.24856e-07
-0.0048281
-4.50944e-07
-0.00521398
-5.01795e-07
-0.00559926
-5.33618e-07
-0.00598494
-5.6555e-07
-0.00636983
-5.7602e-07
-0.00675523
-5.90154e-07
-0.00713972
-5.65133e-07
-0.00752474
-5.49955e-07
-0.00790887
-4.79626e-07
-0.00829336
-4.28633e-07
-0.00867722
-2.98808e-07
-0.00906089
-2.18615e-07
-0.000192615
-0.000577818
-4.94251e-09
-0.000963021
-2.11643e-08
-0.00134822
-4.72962e-08
-0.00173338
-8.25664e-08
-0.00211852
-1.24484e-07
-0.00250357
-1.74757e-07
-0.00288863
-2.28604e-07
-0.00327351
-2.88273e-07
-0.00365846
-3.49334e-07
-0.0040431
-4.10865e-07
-0.00442792
-4.81647e-07
-0.00481228
-5.26055e-07
-0.00519693
-5.73875e-07
-0.00558094
-6.20734e-07
-0.00596539
-6.60982e-07
-0.00634901
-6.75873e-07
-0.0067332
-6.90095e-07
-0.00711642
-6.63345e-07
-0.00750025
-6.43128e-07
-0.0078831
-5.63463e-07
-0.00826643
-4.96125e-07
-0.00864898
-3.47115e-07
-0.00903156
-2.1441e-07
-0.000191969
-0.000575881
-5.60262e-09
-0.000959794
-2.38452e-08
-0.00134371
-5.32643e-08
-0.00172757
-9.27958e-08
-0.00211143
-1.40972e-07
-0.00249519
-1.98306e-07
-0.00287896
-2.59969e-07
-0.00326256
-3.28326e-07
-0.00364623
-3.97959e-07
-0.0040296
-4.68736e-07
-0.00441314
-5.41032e-07
-0.00479622
-5.99671e-07
-0.00517961
-6.20968e-07
-0.00556235
-7.05963e-07
-0.00594554
-7.62979e-07
-0.00632789
-7.75928e-07
-0.00671084
-7.87589e-07
-0.00709279
-7.59454e-07
-0.0074754
-7.35187e-07
-0.00785697
-6.47324e-07
-0.00823911
-5.68987e-07
-0.00862037
-4.03489e-07
-0.00900177
-2.7431e-07
-0.000191315
-0.000573919
-6.31503e-09
-0.000956524
-2.67351e-08
-0.00133913
-5.97272e-08
-0.00172169
-1.04174e-07
-0.00210424
-1.58366e-07
-0.0024867
-2.23005e-07
-0.00286917
-2.92749e-07
-0.00325147
-3.70049e-07
-0.00363384
-4.48515e-07
-0.00401592
-5.28902e-07
-0.00439817
-6.08484e-07
-0.00477995
-6.79758e-07
-0.00516207
-7.44935e-07
-0.00554351
-8.01588e-07
-0.00592544
-8.88495e-07
-0.0063065
-8.69251e-07
-0.0066882
-8.86825e-07
-0.00706885
-8.56263e-07
-0.00745024
-8.25052e-07
-0.00783051
-7.2824e-07
-0.00821145
-6.38142e-07
-0.0085914
-4.55006e-07
-0.00897164
-2.90178e-07
-0.000190651
-0.000571929
-7.09314e-09
-0.000953207
-2.98935e-08
-0.00133449
-6.68046e-08
-0.00171573
-1.16612e-07
-0.00209695
-1.77491e-07
-0.0024781
-2.49836e-07
-0.00285924
-3.28317e-07
-0.00324023
-4.15319e-07
-0.00362128
-5.03416e-07
-0.00400205
-5.9449e-07
-0.00438299
-6.83314e-07
-0.00476347
-7.6515e-07
-0.00514429
-8.4358e-07
-0.00552442
-9.05039e-07
-0.00590507
-1.0214e-06
-0.00628482
-9.78834e-07
-0.00666526
-9.87282e-07
-0.0070446
-9.6204e-07
-0.00742475
-9.20022e-07
-0.00780371
-8.11004e-07
-0.00818343
-7.06065e-07
-0.00856206
-5.03548e-07
-0.00894112
-3.14274e-07
-0.000189979
-0.000569914
-7.95291e-09
-0.000949851
-3.33888e-08
-0.00132979
-7.46521e-08
-0.00170969
-1.30479e-07
-0.00208957
-1.99081e-07
-0.00246938
-2.79814e-07
-0.00284919
-3.67996e-07
-0.00322885
-4.65881e-07
-0.00360857
-5.65034e-07
-0.00398802
-6.68393e-07
-0.00436763
-7.68142e-07
-0.00474679
-8.62318e-07
-0.0051263
-9.50606e-07
-0.00550511
-1.0178e-06
-0.00588447
-1.08638e-06
-0.00626289
-1.09752e-06
-0.00664206
-1.06439e-06
-0.00702009
-1.07228e-06
-0.00739897
-1.04114e-06
-0.00777661
-9.15222e-07
-0.0081551
-7.90326e-07
-0.0085324
-5.6103e-07
-0.00891028
-3.41265e-07
-0.000189299
-0.000567874
-8.92797e-09
-0.000946452
-3.7317e-08
-0.00132503
-8.34904e-08
-0.00170358
-1.46049e-07
-0.0020821
-2.23106e-07
-0.00246056
-3.1387e-07
-0.00283902
-4.13449e-07
-0.00321734
-5.24121e-07
-0.0035957
-6.36287e-07
-0.00397381
-7.54826e-07
-0.00435209
-8.67371e-07
-0.00472991
-9.7866e-07
-0.00510809
-1.07724e-06
-0.00548557
-1.16307e-06
-0.00586363
-1.23162e-06
-0.00624071
-1.26794e-06
-0.0066186
-1.25723e-06
-0.00699528
-1.25529e-06
-0.00737291
-1.23626e-06
-0.00774921
-1.07588e-06
-0.00812646
-9.28114e-07
-0.00850242
-6.68026e-07
-0.00887908
-4.0703e-07
-0.000188611
-0.000565812
-9.82895e-09
-0.000943015
-4.0924e-08
-0.00132022
-9.16035e-08
-0.00169739
-1.60327e-07
-0.00207455
-2.45152e-07
-0.00245164
-3.45107e-07
-0.00282873
-4.55258e-07
-0.00320569
-5.77346e-07
-0.00358269
-7.01742e-07
-0.00395945
-8.3335e-07
-0.00433637
-9.5829e-07
-0.00471286
-1.08345e-06
-0.00508968
-1.19265e-06
-0.00546583
-1.29235e-06
-0.00584255
-1.36664e-06
-0.00621831
-1.41815e-06
-0.00659489
-1.43098e-06
-0.00697023
-1.4171e-06
-0.00734658
-1.42097e-06
-0.00772155
-1.2197e-06
-0.00809755
-1.05711e-06
-0.00847217
-7.74388e-07
-0.00884762
-4.7895e-07
-0.000187916
-0.000563726
-1.04688e-08
-0.000939539
-4.35615e-08
-0.00131536
-9.74648e-08
-0.00169114
-1.70673e-07
-0.00206691
-2.61037e-07
-0.00244263
-3.67472e-07
-0.00281833
-4.85087e-07
-0.00319392
-6.14785e-07
-0.00356954
-7.4787e-07
-0.00394494
-8.86645e-07
-0.00432048
-1.02108e-06
-0.00469561
-1.15066e-06
-0.00507107
-1.26984e-06
-0.00544588
-1.36845e-06
-0.00582125
-1.45304e-06
-0.00619567
-1.4953e-06
-0.00657091
-1.51955e-06
-0.00694494
-1.48527e-06
-0.00731998
-1.50148e-06
-0.00769361
-1.27618e-06
-0.00806836
-1.09981e-06
-0.00844162
-7.97818e-07
-0.0088159
-4.83233e-07
-0.000187214
-0.00056162
-1.11933e-08
-0.00093603
-4.64982e-08
-0.00131045
-1.04037e-07
-0.00168483
-1.82231e-07
-0.00205921
-2.78798e-07
-0.00243352
-3.92425e-07
-0.00280783
-5.18582e-07
-0.00318203
-6.57445e-07
-0.00355626
-7.99981e-07
-0.00393028
-9.48673e-07
-0.00430445
-1.09238e-06
-0.00467821
-1.23126e-06
-0.0050523
-1.35825e-06
-0.00542575
-1.46375e-06
-0.00579977
-1.5534e-06
-0.00617283
-1.5984e-06
-0.00654675
-1.62439e-06
-0.00691942
-1.58518e-06
-0.00729315
-1.61057e-06
-0.00766543
-1.36118e-06
-0.00803892
-1.17031e-06
-0.00841082
-8.48101e-07
-0.00878388
-5.10556e-07
-0.000186505
-0.000559495
-1.19829e-08
-0.000932488
-4.96955e-08
-0.00130549
-1.1121e-07
-0.00167846
-1.94866e-07
-0.00205142
-2.98283e-07
-0.00242433
-4.19992e-07
-0.00279723
-5.55341e-07
-0.00317003
-7.04227e-07
-0.00354287
-8.57219e-07
-0.00391549
-1.01706e-06
-0.00428826
-1.17105e-06
-0.00466065
-1.32102e-06
-0.00503336
-1.45651e-06
-0.00540543
-1.57137e-06
-0.00577809
-1.66586e-06
-0.00614978
-1.7165e-06
-0.00652237
-1.74402e-06
-0.00689366
-1.69942e-06
-0.0072661
-1.65121e-06
-0.007637
-1.45519e-06
-0.00800923
-1.25433e-06
-0.00837976
-9.10241e-07
-0.00875159
-5.46554e-07
-0.00018579
-0.000557351
-1.28163e-08
-0.000928916
-5.30601e-08
-0.00130049
-1.1876e-07
-0.00167204
-2.08168e-07
-0.00204357
-3.18818e-07
-0.00241506
-4.49059e-07
-0.00278655
-5.9411e-07
-0.00315794
-7.53498e-07
-0.00352935
-9.17656e-07
-0.00390058
-1.08921e-06
-0.00427195
-1.25433e-06
-0.00464294
-1.41603e-06
-0.00501426
-1.56093e-06
-0.00538495
-1.68594e-06
-0.00575624
-1.78619e-06
-0.00612655
-1.84334e-06
-0.00649779
-1.87111e-06
-0.0068677
-1.82553e-06
-0.00723884
-1.75097e-06
-0.00760836
-1.56305e-06
-0.00797931
-1.34704e-06
-0.00834846
-9.80152e-07
-0.00871906
-5.86838e-07
-0.000185069
-0.000555189
-1.36758e-08
-0.000925314
-5.65346e-08
-0.00129545
-1.26561e-07
-0.00166556
-2.21914e-07
-0.00203566
-3.40051e-07
-0.00240572
-4.79094e-07
-0.00277577
-6.34205e-07
-0.00314574
-8.04401e-07
-0.00351573
-9.80191e-07
-0.00388555
-1.16376e-06
-0.0042555
-1.34059e-06
-0.00462509
-1.51424e-06
-0.00499501
-1.66926e-06
-0.0053643
-1.8045e-06
-0.00573421
-1.91133e-06
-0.00610314
-1.97485e-06
-0.00647303
-2.00349e-06
-0.00684156
-1.95769e-06
-0.00721138
-1.87448e-06
-0.00757951
-1.67798e-06
-0.00794918
-1.44458e-06
-0.00831695
-1.05324e-06
-0.00868631
-6.29139e-07
-0.000184342
-0.000553011
-1.45458e-08
-0.000921684
-6.0043e-08
-0.00129037
-1.34437e-07
-0.00165903
-2.35794e-07
-0.00202769
-3.61505e-07
-0.0023963
-5.09475e-07
-0.00276491
-6.74864e-07
-0.00313345
-8.55845e-07
-0.00350201
-1.04337e-06
-0.00387041
-1.23897e-06
-0.00423893
-1.42773e-06
-0.00460711
-1.61332e-06
-0.00497562
-1.77879e-06
-0.00534352
-1.92416e-06
-0.00571204
-2.03797e-06
-0.00607957
-2.10769e-06
-0.0064481
-2.13758e-06
-0.00681524
-2.09132e-06
-0.00718373
-2.00113e-06
-0.00755048
-1.79421e-06
-0.00791886
-1.5433e-06
-0.00828524
-1.12731e-06
-0.00865337
-6.71867e-07
-0.000183611
-0.000550817
-1.54123e-08
-0.000918028
-6.35428e-08
-0.00128525
-1.42297e-07
-0.00165246
-2.49638e-07
-0.00201966
-3.829e-07
-0.00238682
-5.3975e-07
-0.00275398
-7.15309e-07
-0.00312107
-9.07158e-07
-0.00348819
-1.10646e-06
-0.00385516
-1.31404e-06
-0.00422224
-1.51483e-06
-0.00458901
-1.71223e-06
-0.0049561
-1.88831e-06
-0.00532259
-2.0436e-06
-0.00568971
-2.16469e-06
-0.00605585
-2.2403e-06
-0.006423
-2.27187e-06
-0.00678875
-2.2248e-06
-0.0071559
-2.12819e-06
-0.00752127
-1.91042e-06
-0.00788835
-1.64236e-06
-0.00825334
-1.20139e-06
-0.00862023
-7.14844e-07
-0.000182874
-0.000548608
-1.62633e-08
-0.000914348
-6.69721e-08
-0.0012801
-1.49997e-07
-0.00164584
-2.63196e-07
-0.00201157
-4.0385e-07
-0.00237728
-5.69376e-07
-0.00274298
-7.54861e-07
-0.00310862
-9.57412e-07
-0.00347428
-1.16835e-06
-0.00383981
-1.38764e-06
-0.00420545
-1.60033e-06
-0.0045708
-1.80923e-06
-0.00493646
-1.99584e-06
-0.00530154
-2.16074e-06
-0.00566724
-2.28911e-06
-0.00603199
-2.37035e-06
-0.00639775
-2.40374e-06
-0.00676212
-2.3558e-06
-0.00712792
-2.25302e-06
-0.0074919