/*--------------------------------*- C++ -*----------------------------------*\
  =========                 |
  \\      /  F ield         | OpenFOAM: The Open Source CFD Toolbox
   \\    /   O peration     | Website:  https://openfoam.org
    \\  /    A nd           | Version:  10
     \\/     M anipulation  |
\*---------------------------------------------------------------------------*/
FoamFile
{
    format      ascii;
    class       volScalarField;
    location    "0.03";
    object      rho;
}
// * * * * * * * * * * * * * * * * * * * * * * * * * * * * * * * * * * * * * //

dimensions      [1 -3 0 0 0 0 0];

internalField   nonuniform List<scalar> 
4176
(
0.0428757
0.0428717
0.0428737
0.0428765
0.0428802
0.0428844
0.0428899
0.0428957
0.0429029
0.0429105
0.0429195
0.0429289
0.0429395
0.0429513
0.0429629
0.0429778
0.0429894
0.0430088
0.0430186
0.0430444
0.043051
0.043083
0.0430858
0.0431208
0.0427863
0.0427824
0.0427843
0.0427871
0.0427908
0.042795
0.0428005
0.0428063
0.0428136
0.0428211
0.0428302
0.0428396
0.0428503
0.042862
0.0428739
0.0428882
0.0429011
0.0429185
0.0429321
0.0429537
0.042966
0.0429955
0.0430028
0.043045
0.0430825
0.0430786
0.0430806
0.0430834
0.0430872
0.0430914
0.043097
0.0431028
0.0431102
0.0431178
0.043127
0.0431364
0.0431472
0.0431589
0.0431708
0.0431854
0.0431979
0.0432158
0.0432286
0.0432509
0.0432622
0.0432922
0.0432986
0.0433407
0.043301
0.0432971
0.0432991
0.0433019
0.0433057
0.0433099
0.0433155
0.0433213
0.0433288
0.0433363
0.0433455
0.0433549
0.0433657
0.0433774
0.043389
0.043404
0.0434154
0.0434348
0.043445
0.0434697
0.0434778
0.0435088
0.0435134
0.0435516
0.0435314
0.0435275
0.0435295
0.0435323
0.0435362
0.0435403
0.0435459
0.0435517
0.0435591
0.0435666
0.0435758
0.043585
0.0435959
0.0436073
0.043619
0.0436338
0.0436451
0.0436644
0.0436742
0.0436987
0.0437068
0.0437371
0.0437416
0.0437788
0.0437249
0.043721
0.043723
0.0437258
0.0437296
0.0437337
0.0437393
0.043745
0.0437524
0.0437597
0.0437689
0.043778
0.0437888
0.0438
0.0438117
0.0438259
0.0438377
0.0438558
0.0438665
0.04389
0.0438983
0.0439281
0.0439328
0.0439703
0.0439313
0.0439273
0.0439293
0.0439321
0.0439359
0.0439399
0.0439455
0.043951
0.0439584
0.0439656
0.0439748
0.0439837
0.0439944
0.0440053
0.044017
0.0440309
0.0440426
0.0440604
0.0440711
0.0440939
0.0441023
0.0441316
0.0441362
0.0441731
0.0441058
0.0441019
0.0441039
0.0441066
0.0441104
0.0441143
0.0441198
0.0441253
0.0441326
0.0441396
0.0441486
0.0441573
0.0441679
0.0441786
0.0441902
0.0442037
0.0442153
0.0442327
0.0442433
0.0442657
0.044274
0.0443025
0.0443072
0.0443433
0.0442957
0.0442917
0.0442937
0.0442963
0.0443001
0.0443039
0.0443094
0.0443147
0.044322
0.0443288
0.0443377
0.0443462
0.0443567
0.044367
0.0443787
0.0443917
0.0444033
0.0444202
0.0444307
0.0444525
0.0444608
0.0444887
0.0444934
0.0445286
0.0444577
0.0444538
0.0444557
0.0444583
0.044462
0.0444658
0.0444712
0.0444763
0.0444835
0.0444901
0.0444989
0.0445072
0.0445175
0.0445275
0.0445391
0.0445517
0.0445632
0.0445795
0.04459
0.0446112
0.0446195
0.0446465
0.0446512
0.0446856
0.0446366
0.0446326
0.0446346
0.0446372
0.0446408
0.0446445
0.0446498
0.0446548
0.0446618
0.0446683
0.044677
0.044685
0.0446952
0.0447049
0.0447163
0.0447284
0.0447399
0.0447557
0.0447661
0.0447866
0.0447949
0.0448212
0.0448259
0.0448595
0.0447912
0.0447872
0.0447891
0.0447917
0.0447952
0.0447988
0.044804
0.0448089
0.0448158
0.044822
0.0448306
0.0448383
0.0448484
0.0448577
0.044869
0.0448806
0.044892
0.0449072
0.0449176
0.0449373
0.0449457
0.0449711
0.0449758
0.0450085
0.0449636
0.0449596
0.0449615
0.044964
0.0449675
0.0449709
0.0449761
0.0449808
0.0449876
0.0449936
0.045002
0.0450095
0.0450194
0.0450284
0.0450395
0.0450506
0.045062
0.0450765
0.0450869
0.0451059
0.0451142
0.0451388
0.0451436
0.0451753
0.0451147
0.0451107
0.0451126
0.045115
0.0451184
0.0451218
0.0451268
0.0451313
0.045138
0.0451438
0.045152
0.0451592
0.0451689
0.0451776
0.0451885
0.0451991
0.0452104
0.0452243
0.0452346
0.0452528
0.0452612
0.0452848
0.0452896
0.0453204
0.0452842
0.0452802
0.045282
0.0452844
0.0452878
0.045291
0.0452959
0.0453003
0.0453068
0.0453124
0.0453205
0.0453273
0.0453369
0.0453452
0.0453559
0.045366
0.0453773
0.0453904
0.0454007
0.0454181
0.0454265
0.0454492
0.045454
0.0454838
0.0454352
0.0454311
0.0454329
0.0454352
0.0454385
0.0454416
0.0454464
0.0454506
0.045457
0.0454623
0.0454702
0.0454768
0.0454861
0.045494
0.0455046
0.0455142
0.0455253
0.0455377
0.0455481
0.0455646
0.0455729
0.0455947
0.0455995
0.0456282
0.0456048
0.0456007
0.0456025
0.0456047
0.045608
0.0456109
0.0456156
0.0456196
0.0456259
0.0456309
0.0456387
0.0456449
0.045654
0.0456616
0.0456719
0.045681
0.0456921
0.0457037
0.045714
0.0457297
0.045738
0.0457588
0.0457636
0.0457913
0.0457583
0.0457543
0.045756
0.0457581
0.0457613
0.0457641
0.0457687
0.0457725
0.0457786
0.0457834
0.045791
0.0457968
0.0458058
0.0458129
0.045823
0.0458316
0.0458425
0.0458534
0.0458636
0.0458784
0.0458867
0.0459065
0.0459113
0.0459379
0.0459306
0.0459265
0.0459282
0.0459303
0.0459334
0.0459361
0.0459406
0.0459441
0.0459501
0.0459546
0.0459621
0.0459675
0.0459763
0.045983
0.0459929
0.046001
0.0460116
0.0460218
0.046032
0.0460459
0.0460542
0.0460729
0.0460777
0.0461032
0.046089
0.046085
0.0460867
0.0460886
0.0460917
0.0460942
0.0460986
0.0461019
0.0461078
0.0461119
0.0461192
0.0461243
0.0461329
0.0461391
0.0461488
0.0461563
0.0461668
0.0461762
0.0461863
0.0461993
0.0462076
0.0462252
0.04623
0.0462543
0.0462662
0.0462622
0.0462638
0.0462657
0.0462687
0.046271
0.0462753
0.0462784
0.0462842
0.046288
0.0462951
0.0462998
0.0463082
0.0463139
0.0463234
0.0463304
0.0463406
0.0463493
0.0463593
0.0463714
0.0463796
0.0463962
0.046401
0.0464241
0.0464317
0.0464277
0.0464293
0.046431
0.046434
0.0464361
0.0464403
0.0464431
0.0464488
0.0464522
0.0464592
0.0464634
0.0464717
0.0464768
0.0464861
0.0464925
0.0465024
0.0465105
0.0465204
0.0465315
0.0465397
0.0465552
0.0465599
0.0465818
0.0466158
0.0466117
0.0466133
0.046615
0.0466178
0.0466198
0.046624
0.0466264
0.046632
0.046635
0.046642
0.0466456
0.0466538
0.0466583
0.0466675
0.0466732
0.0466829
0.0466902
0.0467
0.0467101
0.0467182
0.0467326
0.0467373
0.046758
0.04679
0.046786
0.0467875
0.0467891
0.0467919
0.0467936
0.0467977
0.0467998
0.0468054
0.0468079
0.0468149
0.0468178
0.0468261
0.0468298
0.0468389
0.0468439
0.0468534
0.04686
0.0468695
0.0468786
0.0468866
0.0468998
0.0469045
0.0469239
0.0469827
0.0469787
0.0469802
0.0469817
0.0469844
0.0469859
0.04699
0.0469917
0.0469973
0.0469992
0.0470062
0.0470085
0.0470168
0.0470197
0.0470289
0.0470329
0.0470424
0.0470481
0.0470574
0.0470655
0.0470734
0.0470854
0.0470901
0.0471081
0.0471673
0.0471633
0.0471648
0.0471661
0.0471689
0.04717
0.0471741
0.0471755
0.047181
0.0471824
0.0471894
0.0471911
0.0471992
0.0472014
0.0472106
0.0472136
0.0472231
0.0472279
0.0472371
0.047244
0.0472519
0.0472626
0.0472673
0.0472838
0.0473703
0.0473663
0.0473677
0.0473689
0.0473716
0.0473726
0.0473766
0.0473776
0.047383
0.0473841
0.0473908
0.047392
0.0474
0.0474015
0.0474105
0.0474128
0.0474222
0.0474259
0.047435
0.047441
0.0474487
0.0474582
0.0474628
0.047478
0.0475667
0.0475627
0.0475641
0.0475652
0.0475677
0.0475686
0.0475724
0.0475732
0.0475783
0.0475791
0.0475855
0.0475863
0.047594
0.047595
0.0476037
0.0476052
0.0476144
0.0476172
0.0476261
0.047631
0.0476387
0.0476469
0.0476515
0.0476652
0.0477813
0.0477773
0.0477787
0.0477797
0.0477822
0.0477829
0.0477865
0.047787
0.0477919
0.0477923
0.0477986
0.0477988
0.0478063
0.0478067
0.0478151
0.0478159
0.0478249
0.0478268
0.0478356
0.0478393
0.0478469
0.0478538
0.0478583
0.0478706
0.0479908
0.0479868
0.0479881
0.0479891
0.0479914
0.0479919
0.0479953
0.0479956
0.0480003
0.0480003
0.0480063
0.0480061
0.0480133
0.0480131
0.0480212
0.0480213
0.04803
0.0480309
0.0480395
0.0480422
0.0480495
0.0480551
0.0480596
0.0480703
0.0482185
0.0482145
0.0482158
0.0482167
0.0482188
0.0482192
0.0482224
0.0482225
0.0482269
0.0482266
0.0482323
0.0482316
0.0482385
0.0482377
0.0482455
0.0482448
0.0482533
0.0482533
0.0482616
0.0482632
0.0482704
0.0482747
0.0482791
0.0482882
0.0484423
0.0484383
0.0484394
0.0484403
0.0484423
0.0484425
0.0484455
0.0484453
0.0484495
0.0484488
0.0484542
0.0484531
0.0484597
0.0484582
0.0484657
0.0484643
0.0484724
0.0484715
0.0484795
0.0484799
0.048487
0.0484899
0.0484942
0.0485017
0.0486842
0.0486803
0.0486813
0.0486822
0.048684
0.0486841
0.0486869
0.0486864
0.0486903
0.0486893
0.0486944
0.0486927
0.048699
0.0486969
0.0487042
0.0487019
0.0487097
0.0487079
0.0487157
0.0487149
0.0487218
0.0487233
0.0487275
0.0487335
0.0489233
0.0489195
0.0489203
0.0489212
0.0489227
0.0489228
0.0489253
0.0489246
0.0489283
0.0489268
0.0489316
0.0489295
0.0489355
0.0489327
0.0489396
0.0489366
0.0489441
0.0489413
0.0489488
0.0489469
0.0489535
0.0489536
0.0489577
0.048962
0.0491806
0.0491768
0.0491775
0.0491785
0.0491797
0.0491798
0.0491819
0.0491811
0.0491844
0.0491826
0.0491871
0.0491845
0.0491901
0.0491868
0.0491933
0.0491896
0.0491967
0.0491929
0.0492001
0.0491971
0.0492034
0.0492022
0.0492061
0.0492088
0.0494361
0.0494324
0.049433
0.0494339
0.0494348
0.049435
0.0494366
0.0494358
0.0494386
0.0494366
0.0494408
0.0494376
0.0494429
0.0494389
0.0494451
0.0494406
0.0494473
0.0494426
0.0494495
0.0494453
0.0494514
0.0494487
0.0494525
0.0494534
0.0497098
0.0497061
0.0497067
0.0497076
0.0497082
0.0497084
0.0497095
0.0497088
0.049711
0.0497089
0.0497125
0.0497091
0.0497139
0.0497094
0.0497151
0.0497098
0.0497162
0.0497106
0.0497171
0.0497118
0.0497176
0.0497136
0.0497173
0.0497164
0.0499827
0.0499789
0.0499794
0.0499803
0.0499807
0.0499808
0.0499816
0.0499808
0.0499825
0.0499803
0.0499833
0.0499796
0.0499839
0.0499788
0.0499842
0.0499781
0.0499841
0.0499776
0.0499837
0.0499773
0.0499828
0.0499774
0.0499809
0.0499784
0.0502736
0.05027
0.0502704
0.0502712
0.0502714
0.0502715
0.0502719
0.050271
0.0502721
0.05027
0.0502722
0.0502684
0.050272
0.0502666
0.0502715
0.0502647
0.0502703
0.0502628
0.0502686
0.0502611
0.0502663
0.0502595
0.0502628
0.0502587
0.0505646
0.050561
0.0505613
0.050562
0.0505621
0.050562
0.0505621
0.0505611
0.0505618
0.0505595
0.0505611
0.0505571
0.0505601
0.0505543
0.0505586
0.0505511
0.0505563
0.0505479
0.0505533
0.0505447
0.0505496
0.0505414
0.0505446
0.0505387
0.0508737
0.0508701
0.0508704
0.050871
0.050871
0.0508708
0.0508705
0.0508695
0.0508696
0.0508672
0.0508682
0.0508641
0.0508663
0.0508603
0.0508639
0.0508559
0.0508605
0.0508513
0.0508563
0.0508465
0.0508511
0.0508416
0.0508446
0.0508371
0.0511836
0.05118
0.0511802
0.0511808
0.0511806
0.0511802
0.0511797
0.0511785
0.0511782
0.0511757
0.0511761
0.0511718
0.0511733
0.051167
0.0511697
0.0511614
0.0511653
0.0511554
0.0511598
0.051149
0.0511532
0.0511423
0.0511451
0.0511359
0.0515116
0.0515081
0.0515083
0.0515087
0.0515084
0.0515079
0.0515071
0.0515057
0.051505
0.0515023
0.0515021
0.0514977
0.0514984
0.0514919
0.0514939
0.0514852
0.0514883
0.0514778
0.0514816
0.0514698
0.0514736
0.0514614
0.0514639
0.051453
0.0518411
0.0518376
0.0518376
0.051838
0.0518375
0.0518369
0.0518358
0.0518343
0.0518332
0.0518303
0.0518295
0.0518249
0.051825
0.0518182
0.0518194
0.0518104
0.0518127
0.0518016
0.0518048
0.051792
0.0517953
0.0517818
0.0517841
0.0517714
0.0521887
0.0521852
0.0521852
0.0521856
0.0521849
0.0521841
0.0521828
0.0521811
0.0521796
0.0521765
0.0521752
0.0521704
0.0521698
0.0521627
0.0521633
0.0521537
0.0521555
0.0521436
0.0521463
0.0521325
0.0521355
0.0521206
0.0521228
0.0521084
0.0525382
0.0525348
0.0525348
0.052535
0.0525342
0.0525333
0.0525318
0.0525299
0.0525279
0.0525247
0.0525229
0.0525178
0.0525166
0.0525092
0.052509
0.0524991
0.0525001
0.0524876
0.0524897
0.052475
0.0524776
0.0524615
0.0524634
0.0524474
0.0529059
0.0529026
0.0529025
0.0529027
0.0529017
0.0529007
0.0528989
0.0528968
0.0528945
0.0528911
0.0528888
0.0528834
0.0528816
0.0528739
0.0528731
0.0528627
0.0528631
0.0528499
0.0528515
0.0528358
0.052838
0.0528207
0.0528223
0.0528048
0.0532761
0.0532728
0.0532726
0.0532727
0.0532716
0.0532705
0.0532684
0.0532662
0.0532635
0.0532599
0.053257
0.0532515
0.053249
0.0532411
0.0532395
0.0532288
0.0532284
0.0532147
0.0532156
0.0531991
0.0532008
0.0531823
0.0531837
0.0531645
0.0536644
0.0536612
0.053661
0.053661
0.0536598
0.0536585
0.0536563
0.0536538
0.0536508
0.0536469
0.0536436
0.0536378
0.0536348
0.0536266
0.0536243
0.0536132
0.0536121
0.0535979
0.0535981
0.0535808
0.053582
0.0535623
0.0535635
0.0535428
0.0540556
0.0540523
0.0540521
0.0540521
0.0540507
0.0540492
0.0540468
0.0540441
0.0540408
0.0540367
0.054033
0.0540269
0.0540233
0.0540148
0.0540119
0.0540004
0.0539986
0.0539838
0.0539834
0.0539653
0.053966
0.0539451
0.053946
0.0539237
0.0544649
0.0544618
0.0544614
0.0544614
0.0544599
0.0544583
0.0544557
0.0544528
0.0544492
0.0544449
0.0544407
0.0544344
0.0544302
0.0544214
0.0544178
0.054406
0.0544035
0.0543882
0.0543871
0.0543683
0.0543684
0.0543465
0.0543471
0.0543233
0.0548773
0.0548742
0.0548738
0.0548737
0.0548721
0.0548703
0.0548675
0.0548644
0.0548606
0.0548559
0.0548514
0.0548448
0.0548401
0.054831
0.0548267
0.0548145
0.0548114
0.0547955
0.0547938
0.0547742
0.0547739
0.0547508
0.0547512
0.0547258
0.055308
0.055305
0.0553046
0.0553044
0.0553027
0.0553008
0.0552978
0.0552945
0.0552904
0.0552855
0.0552805
0.0552738
0.0552685
0.0552592
0.0552542
0.0552417
0.0552378
0.0552215
0.0552192
0.0551989
0.055198
0.0551739
0.055174
0.0551472
0.0557417
0.0557387
0.0557383
0.055738
0.0557362
0.0557342
0.0557311
0.0557275
0.0557232
0.0557181
0.0557127
0.0557057
0.0556999
0.0556903
0.0556848
0.0556718
0.0556673
0.0556505
0.0556476
0.0556265
0.0556252
0.0556
0.0555999
0.0555715
0.056194
0.0561911
0.0561906
0.0561903
0.0561884
0.0561863
0.056183
0.0561793
0.0561746
0.0561693
0.0561636
0.0561563
0.05615
0.0561401
0.0561341
0.0561208
0.0561157
0.0560984
0.0560948
0.0560731
0.0560713
0.056045
0.0560447
0.0560149
0.0566492
0.0566463
0.0566458
0.0566454
0.0566435
0.0566412
0.0566377
0.0566338
0.056629
0.0566234
0.0566174
0.0566098
0.0566031
0.0565929
0.0565863
0.0565727
0.056567
0.0565492
0.056545
0.0565226
0.0565204
0.056493
0.0564925
0.0564612
0.0571231
0.0571203
0.0571198
0.0571194
0.0571173
0.0571149
0.0571113
0.0571072
0.0571022
0.0570964
0.0570901
0.0570823
0.0570751
0.0570647
0.0570575
0.0570436
0.0570373
0.0570191
0.0570144
0.0569912
0.0569887
0.0569603
0.0569595
0.0569269
0.0575995
0.0575968
0.0575962
0.0575957
0.0575936
0.0575911
0.0575874
0.0575831
0.0575779
0.0575718
0.0575652
0.0575572
0.0575496
0.0575389
0.0575313
0.057517
0.0575102
0.0574915
0.0574863
0.0574624
0.0574595
0.0574301
0.0574291
0.0573951
0.0580952
0.0580926
0.058092
0.0580915
0.0580893
0.0580867
0.0580829
0.0580784
0.058073
0.0580668
0.0580599
0.0580516
0.0580437
0.0580327
0.0580246
0.05801
0.0580027
0.0579835
0.0579779
0.0579534
0.0579501
0.0579198
0.0579186
0.0578834
0.0585924
0.0585899
0.0585893
0.0585887
0.0585865
0.0585838
0.0585799
0.0585753
0.0585697
0.0585633
0.0585561
0.0585476
0.0585393
0.0585281
0.0585196
0.0585047
0.0584969
0.0584774
0.0584712
0.0584462
0.0584425
0.0584113
0.0584099
0.0583734
0.0591096
0.0591071
0.0591066
0.059106
0.0591037
0.0591009
0.0590968
0.0590921
0.0590864
0.0590798
0.0590724
0.0590637
0.0590551
0.0590437
0.0590348
0.0590196
0.0590114
0.0589914
0.0589849
0.0589593
0.0589552
0.0589232
0.0589216
0.058884
0.0596275
0.0596251
0.0596246
0.0596239
0.0596216
0.0596187
0.0596146
0.0596098
0.0596038
0.0595971
0.0595895
0.0595806
0.0595717
0.0595601
0.0595508
0.0595354
0.0595267
0.0595064
0.0594995
0.0594733
0.0594689
0.0594362
0.0594344
0.0593957
0.0601659
0.0601637
0.0601631
0.0601624
0.0601601
0.0601572
0.0601529
0.060148
0.060142
0.0601351
0.0601273
0.0601183
0.0601091
0.0600973
0.0600877
0.0600721
0.060063
0.0600425
0.0600351
0.0600085
0.0600037
0.0599705
0.0599684
0.0599288
0.0607032
0.060701
0.0607004
0.0606998
0.0606974
0.0606944
0.0606901
0.0606851
0.060679
0.060672
0.060664
0.0606549
0.0606454
0.0606335
0.0606235
0.0606077
0.0605983
0.0605775
0.0605697
0.0605428
0.0605377
0.0605038
0.0605015
0.060461
0.0612632
0.0612612
0.0612606
0.06126
0.0612576
0.0612546
0.0612502
0.0612452
0.0612389
0.0612318
0.0612237
0.0612144
0.0612048
0.0611928
0.0611825
0.0611666
0.0611568
0.0611358
0.0611276
0.0611005
0.061095
0.0610607
0.0610582
0.061017
0.0618187
0.0618169
0.0618163
0.0618156
0.0618132
0.0618102
0.0618058
0.0618007
0.0617943
0.0617872
0.061779
0.0617696
0.0617598
0.0617477
0.0617371
0.0617211
0.061711
0.06169
0.0616814
0.0616541
0.0616482
0.0616137
0.0616109
0.0615691
0.0623992
0.0623975
0.0623969
0.0623963
0.0623939
0.0623909
0.0623864
0.0623813
0.0623749
0.0623677
0.0623594
0.0623499
0.0623399
0.0623278
0.062317
0.062301
0.0622905
0.0622695
0.0622606
0.0622332
0.062227
0.0621922
0.0621892
0.062147
0.0629729
0.0629713
0.0629707
0.0629702
0.0629677
0.0629647
0.0629602
0.0629551
0.0629487
0.0629414
0.062933
0.0629236
0.0629135
0.0629013
0.0628903
0.0628743
0.0628636
0.0628426
0.0628333
0.062806
0.0627993
0.0627645
0.0627612
0.0627187
0.0635732
0.0635717
0.0635712
0.0635707
0.0635682
0.0635653
0.0635608
0.0635557
0.0635492
0.063542
0.0635335
0.0635241
0.0635139
0.0635018
0.0634906
0.0634747
0.0634637
0.0634428
0.0634332
0.063406
0.0633991
0.0633642
0.0633607
0.063318
0.0641615
0.0641601
0.0641596
0.0641592
0.0641567
0.0641538
0.0641493
0.0641443
0.0641377
0.0641306
0.064122
0.0641126
0.0641023
0.0640903
0.0640789
0.0640632
0.0640519
0.0640312
0.0640213
0.0639942
0.063987
0.0639522
0.0639486
0.0639058
0.0647856
0.0647844
0.064784
0.0647836
0.0647812
0.0647784
0.0647739
0.0647689
0.0647624
0.0647553
0.0647468
0.0647375
0.0647271
0.0647152
0.0647037
0.0646881
0.0646767
0.0646561
0.0646461
0.0646191
0.0646118
0.0645771
0.0645733
0.0645305
0.0653808
0.0653797
0.0653792
0.0653789
0.0653765
0.0653737
0.0653692
0.0653643
0.0653578
0.0653508
0.0653422
0.065333
0.0653226
0.0653109
0.0652992
0.0652839
0.0652723
0.065252
0.0652417
0.0652151
0.0652075
0.0651731
0.0651692
0.0651266
0.0660335
0.0660327
0.0660323
0.066032
0.0660297
0.0660271
0.0660227
0.0660179
0.0660114
0.0660045
0.065996
0.0659869
0.0659765
0.065965
0.0659532
0.0659381
0.0659264
0.0659063
0.065896
0.0658695
0.065862
0.0658277
0.0658238
0.0657812
0.0666313
0.0666306
0.0666301
0.06663
0.0666276
0.066625
0.0666206
0.0666159
0.0666095
0.0666027
0.0665942
0.0665853
0.0665749
0.0665636
0.0665517
0.066537
0.0665252
0.0665054
0.0664951
0.0664689
0.0664613
0.0664274
0.0664235
0.0663813
0.0673096
0.0673091
0.0673087
0.0673087
0.0673065
0.067304
0.0672997
0.0672952
0.0672888
0.0672822
0.0672737
0.067265
0.0672546
0.0672436
0.0672316
0.0672172
0.0672054
0.0671859
0.0671756
0.0671497
0.0671422
0.0671085
0.0671047
0.0670628
0.0679153
0.0679149
0.0679145
0.0679146
0.0679123
0.06791
0.0679057
0.0679012
0.0678949
0.0678884
0.06788
0.0678715
0.0678611
0.0678503
0.0678383
0.0678243
0.0678123
0.0677932
0.0677829
0.0677573
0.0677499
0.0677166
0.0677129
0.0676716
0.0686079
0.0686077
0.0686074
0.0686076
0.0686054
0.0686032
0.0685991
0.0685947
0.0685886
0.0685823
0.068574
0.0685657
0.0685553
0.0685449
0.0685329
0.0685193
0.0685072
0.0684886
0.0684782
0.068453
0.0684456
0.0684127
0.0684089
0.0683681
0.0692311
0.0692309
0.0692307
0.0692309
0.0692289
0.0692267
0.0692226
0.0692184
0.0692123
0.0692061
0.0691979
0.0691898
0.0691796
0.0691694
0.0691574
0.0691443
0.0691322
0.069114
0.0691035
0.0690787
0.0690712
0.0690385
0.0690347
0.0689941
0.0699269
0.069927
0.0699269
0.0699272
0.0699252
0.0699231
0.0699192
0.0699151
0.0699092
0.0699032
0.0698951
0.0698873
0.0698771
0.0698673
0.0698555
0.0698429
0.0698309
0.0698134
0.0698028
0.069779
0.0697714
0.0697393
0.0697355
0.0696949
0.070573
0.0705733
0.0705731
0.0705735
0.0705715
0.0705696
0.0705657
0.0705616
0.0705557
0.0705498
0.0705418
0.0705342
0.070524
0.0705146
0.0705027
0.0704905
0.0704788
0.0704612
0.070452
0.0704275
0.0704218
0.0703899
0.0703869
0.0703479
0.0712681
0.0712686
0.0712683
0.0712689
0.0712669
0.0712649
0.0712611
0.071257
0.0712512
0.0712453
0.0712373
0.0712299
0.0712196
0.0712105
0.0711985
0.0711869
0.0711751
0.0711575
0.07115
0.0711249
0.0711206
0.0710894
0.0710876
0.0710515
0.0719365
0.0719372
0.0719369
0.0719374
0.0719355
0.0719333
0.0719295
0.0719253
0.0719194
0.0719133
0.0719053
0.0718976
0.0718873
0.0718781
0.071866
0.0718546
0.0718418
0.0718257
0.0718171
0.0717923
0.071789
0.0717573
0.0717564
0.0717211
0.0726334
0.0726341
0.0726339
0.0726343
0.0726323
0.07263
0.0726261
0.0726216
0.0726156
0.0726092
0.0726009
0.0725928
0.0725824
0.0725726
0.0725602
0.0725486
0.0725351
0.0725201
0.0725094
0.0724858
0.0724817
0.0724496
0.0724492
0.0724136
0.0733213
0.0733222
0.073322
0.0733222
0.0733201
0.0733176
0.0733134
0.0733086
0.0733022
0.0732954
0.0732867
0.073278
0.0732669
0.0732565
0.0732434
0.0732311
0.0732166
0.0732015
0.0731885
0.0731658
0.0731596
0.0731271
0.0731266
0.0730893
0.0740256
0.0740265
0.0740263
0.0740263
0.0740241
0.0740214
0.0740169
0.0740117
0.0740049
0.0739975
0.0739881
0.0739787
0.0739669
0.0739555
0.0739414
0.0739279
0.0739121
0.073896
0.0738805
0.0738579
0.0738488
0.0738155
0.0738139
0.0737738
0.0747312
0.0747322
0.074732
0.0747319
0.0747296
0.0747265
0.0747218
0.0747162
0.0747089
0.0747009
0.0746909
0.0746807
0.0746679
0.0746555
0.07464
0.0746251
0.0746075
0.0745897
0.0745713
0.0745476
0.0745345
0.074499
0.0744953
0.0744506
0.0754476
0.0754487
0.0754486
0.0754483
0.0754459
0.0754427
0.0754377
0.0754319
0.0754242
0.0754158
0.0754052
0.0753944
0.0753807
0.0753674
0.0753507
0.0753344
0.075315
0.0752952
0.075274
0.0752485
0.0752301
0.0751919
0.0751835
0.0751313
0.0761697
0.0761708
0.0761708
0.0761705
0.0761681
0.0761648
0.0761598
0.0761538
0.076146
0.0761374
0.0761265
0.0761154
0.0761011
0.0760873
0.0760698
0.0760527
0.0760321
0.076011
0.0759877
0.0759605
0.0759372
0.0758975
0.0758821
0.0758197
0.0768998
0.076901
0.0769011
0.0769009
0.0768985
0.0768954
0.0768904
0.0768846
0.0768767
0.0768684
0.0768574
0.0768464
0.0768321
0.0768184
0.0768008
0.0767837
0.0767629
0.0767416
0.0767178
0.0766905
0.0766655
0.0766266
0.0766068
0.0765405
0.0776354
0.0776369
0.077637
0.077637
0.0776348
0.077632
0.0776272
0.0776218
0.0776142
0.0776063
0.0775955
0.0775853
0.0775711
0.0775584
0.0775408
0.077525
0.0775043
0.0774844
0.0774612
0.0774355
0.0774127
0.0773741
0.0773598
0.077301
0.0783761
0.078378
0.078378
0.0783785
0.0783764
0.0783741
0.0783696
0.0783648
0.0783575
0.0783506
0.0783399
0.0783314
0.0783169
0.0783066
0.0782883
0.0782757
0.0782543
0.0782377
0.0782148
0.0781917
0.0781713
0.0781354
0.0781224
0.0780698
0.0791201
0.0791223
0.0791221
0.0791235
0.0791211
0.0791199
0.0791152
0.0791118
0.0791043
0.0790994
0.0790881
0.0790824
0.0790669
0.0790603
0.0790407
0.0790324
0.0790098
0.0789979
0.0789746
0.0789557
0.0789357
0.0789044
0.0788923
0.0788455
0.0798657
0.0798681
0.0798683
0.0798696
0.0798682
0.0798668
0.0798635
0.0798598
0.0798544
0.0798489
0.0798404
0.0798339
0.0798217
0.0798145
0.0797984
0.07979
0.0797708
0.0797597
0.0797392
0.0797231
0.079704
0.0796778
0.0796664
0.0796257
0.0806111
0.0806136
0.0806142
0.0806157
0.0806148
0.0806138
0.0806114
0.0806083
0.0806039
0.0805991
0.0805922
0.0805863
0.0805762
0.0805697
0.0805561
0.0805486
0.0805322
0.0805227
0.0805045
0.0804912
0.0804736
0.0804527
0.0804414
0.0804068
0.0813545
0.0813571
0.081358
0.0813597
0.0813594
0.081359
0.0813572
0.0813549
0.0813514
0.0813477
0.081342
0.0813372
0.0813288
0.0813235
0.081312
0.081306
0.0812917
0.0812844
0.0812683
0.081258
0.0812421
0.0812259
0.081215
0.0811862
0.0820941
0.0820969
0.0820981
0.0821
0.0821002
0.0821003
0.0820992
0.0820977
0.0820952
0.0820924
0.0820881
0.0820844
0.0820777
0.0820737
0.0820641
0.0820598
0.0820477
0.0820424
0.0820286
0.082021
0.0820071
0.0819947
0.0819846
0.0819614
0.0828283
0.0828312
0.0828326
0.0828349
0.0828355
0.0828362
0.0828358
0.0828351
0.0828335
0.0828317
0.0828285
0.0828262
0.0828208
0.0828183
0.0828105
0.082808
0.0827978
0.0827948
0.0827829
0.0827783
0.0827663
0.0827577
0.0827483
0.0827309
0.0835556
0.0835586
0.0835603
0.0835628
0.0835639
0.083565
0.0835653
0.0835654
0.0835647
0.0835639
0.0835619
0.0835607
0.0835569
0.0835558
0.0835497
0.0835489
0.0835406
0.0835397
0.0835298
0.0835278
0.0835177
0.0835125
0.0835047
0.0834927
0.0842746
0.0842777
0.0842795
0.0842824
0.0842839
0.0842855
0.0842864
0.0842872
0.0842874
0.0842876
0.0842867
0.0842867
0.0842842
0.0842846
0.0842801
0.084281
0.0842744
0.0842757
0.0842676
0.0842683
0.0842599
0.084258
0.0842517
0.0842449
0.084984
0.0849873
0.0849893
0.0849923
0.0849942
0.0849964
0.0849979
0.0849994
0.0850004
0.0850015
0.0850017
0.0850028
0.0850017
0.0850033
0.0850005
0.0850028
0.0849982
0.0850013
0.0849951
0.0849982
0.0849917
0.084993
0.0849881
0.0849854
0.0856829
0.0856862
0.0856884
0.0856917
0.0856939
0.0856966
0.0856986
0.0857008
0.0857026
0.0857046
0.0857057
0.085708
0.085708
0.085711
0.0857095
0.0857136
0.0857104
0.0857156
0.0857109
0.0857165
0.0857115
0.085716
0.0857124
0.0857139
0.0863703
0.0863737
0.086376
0.0863795
0.0863821
0.0863851
0.0863877
0.0863905
0.086393
0.0863958
0.086398
0.0864011
0.0864024
0.0864065
0.0864065
0.086412
0.0864104
0.0864173
0.0864143
0.0864222
0.0864186
0.0864261
0.0864235
0.0864291
0.0870455
0.0870488
0.0870513
0.087055
0.0870579
0.0870612
0.0870644
0.0870677
0.0870709
0.0870745
0.0870775
0.0870817
0.087084
0.0870893
0.0870905
0.0870974
0.0870972
0.0871058
0.0871043
0.0871142
0.0871121
0.0871223
0.0871208
0.0871303
0.0877077
0.0877111
0.0877137
0.0877175
0.0877207
0.0877244
0.087728
0.0877319
0.0877357
0.08774
0.0877438
0.0877489
0.0877522
0.0877586
0.0877609
0.0877691
0.0877702
0.0877804
0.0877802
0.0877923
0.0877912
0.0878043
0.0878034
0.0878165
0.0883566
0.08836
0.0883627
0.0883666
0.0883701
0.0883741
0.0883781
0.0883824
0.0883869
0.0883918
0.0883964
0.0884022
0.0884065
0.0884138
0.0884173
0.0884266
0.088429
0.0884406
0.0884417
0.0884556
0.0884557
0.0884712
0.0884714
0.0884875
0.0889918
0.0889951
0.0889979
0.0890019
0.0890056
0.0890099
0.0890143
0.0890191
0.089024
0.0890295
0.0890348
0.0890414
0.0890465
0.0890548
0.0890592
0.0890697
0.0890731
0.0890861
0.0890883
0.089104
0.089105
0.0891228
0.0891231
0.0891432
0.089613
0.0896163
0.0896191
0.0896232
0.0896271
0.0896316
0.0896363
0.0896415
0.0896469
0.089653
0.0896589
0.0896662
0.0896721
0.0896811
0.0896866
0.089698
0.0897024
0.0897166
0.0897198
0.0897371
0.0897391
0.089759
0.08976
0.0897828
0.09022
0.0902232
0.0902261
0.0902303
0.0902343
0.0902391
0.0902441
0.0902496
0.0902555
0.090262
0.0902685
0.0902764
0.090283
0.0902928
0.090299
0.0903114
0.0903168
0.0903321
0.0903363
0.0903549
0.0903578
0.0903795
0.0903814
0.0904062
0.0908128
0.090816
0.0908189
0.0908231
0.0908273
0.0908323
0.0908375
0.0908434
0.0908496
0.0908565
0.0908635
0.090872
0.0908792
0.0908897
0.0908967
0.0909098
0.0909161
0.0909324
0.0909374
0.0909573
0.090961
0.0909845
0.0909868
0.0910142
0.0913914
0.0913946
0.0913975
0.0914018
0.091406
0.0914112
0.0914166
0.0914228
0.0914293
0.0914367
0.0914441
0.091453
0.0914608
0.0914719
0.0914795
0.0914934
0.0915004
0.0915176
0.0915234
0.0915444
0.0915488
0.0915738
0.0915765
0.0916062
0.091956
0.091959
0.091962
0.0919663
0.0919706
0.0919759
0.0919816
0.0919879
0.0919948
0.0920024
0.0920102
0.0920196
0.0920279
0.0920395
0.0920477
0.0920623
0.0920699
0.0920879
0.0920944
0.0921164
0.0921214
0.0921478
0.0921508
0.0921824
0.0925066
0.0925096
0.0925125
0.0925168
0.0925213
0.0925266
0.0925324
0.092539
0.0925461
0.0925541
0.0925622
0.0925719
0.0925806
0.0925927
0.0926014
0.0926166
0.0926247
0.0926434
0.0926505
0.0926734
0.0926789
0.0927065
0.0927098
0.092743
0.0930436
0.0930464
0.0930494
0.0930537
0.0930582
0.0930636
0.0930695
0.0930763
0.0930836
0.0930918
0.0931002
0.0931103
0.0931193
0.0931318
0.0931409
0.0931566
0.0931652
0.0931846
0.0931921
0.0932158
0.0932217
0.0932503
0.0932539
0.0932885
0.0935671
0.0935699
0.0935728
0.093577
0.0935816
0.0935871
0.0935931
0.0936
0.0936075
0.0936159
0.0936245
0.0936349
0.0936442
0.0936571
0.0936666
0.0936826
0.0936916
0.0937115
0.0937194
0.0937439
0.0937501
0.0937796
0.0937834
0.0938191
0.0940775
0.0940802
0.0940831
0.0940873
0.0940918
0.0940974
0.0941035
0.0941105
0.0941181
0.0941266
0.0941355
0.0941461
0.0941557
0.0941688
0.0941786
0.094195
0.0942044
0.0942247
0.094233
0.094258
0.0942645
0.0942948
0.0942988
0.0943355
0.0945751
0.0945777
0.0945805
0.0945847
0.0945893
0.0945948
0.094601
0.0946081
0.0946158
0.0946245
0.0946335
0.0946443
0.094654
0.0946675
0.0946775
0.0946942
0.0947038
0.0947246
0.0947331
0.0947586
0.0947653
0.0947963
0.0948004
0.094838
0.0950603
0.0950628
0.0950656
0.0950697
0.0950743
0.0950799
0.0950861
0.0950932
0.095101
0.0951098
0.0951189
0.0951298
0.0951398
0.0951534
0.0951636
0.0951806
0.0951904
0.0952115
0.0952202
0.0952461
0.095253
0.0952845
0.0952887
0.095327
0.0955335
0.0955359
0.0955387
0.0955427
0.0955473
0.0955528
0.0955591
0.0955662
0.095574
0.0955829
0.0955921
0.0956031
0.0956132
0.095627
0.0956374
0.0956545
0.0956645
0.0956858
0.0956948
0.095721
0.0957281
0.0957599
0.0957642
0.0958031
0.0959951
0.0959974
0.0960001
0.0960041
0.0960086
0.0960141
0.0960204
0.0960275
0.0960354
0.0960443
0.0960535
0.0960647
0.0960748
0.0960887
0.0960992
0.0961165
0.0961267
0.0961481
0.0961572
0.0961837
0.0961909
0.096223
0.0962274
0.0962667
0.0964455
0.0964476
0.0964503
0.0964542
0.0964587
0.0964642
0.0964704
0.0964775
0.0964854
0.0964944
0.0965036
0.0965148
0.0965251
0.096539
0.0965496
0.0965669
0.0965772
0.0965988
0.096608
0.0966346
0.096642
0.0966742
0.0966787
0.0967183
0.096885
0.0968871
0.0968897
0.0968936
0.096898
0.0969034
0.0969096
0.0969167
0.0969246
0.0969336
0.0969428
0.096954
0.0969643
0.0969782
0.0969889
0.0970063
0.0970167
0.0970383
0.0970476
0.0970743
0.0970819
0.097114
0.0971185
0.0971585
0.0973143
0.0973162
0.0973188
0.0973225
0.0973269
0.0973323
0.0973385
0.0973455
0.0973534
0.0973623
0.0973716
0.0973828
0.097393
0.097407
0.0974177
0.097435
0.0974455
0.0974671
0.0974764
0.0975032
0.0975101
0.0975437
0.0975476
0.0975876
0.0977336
0.0977354
0.0977379
0.0977416
0.0977459
0.0977512
0.0977573
0.0977644
0.0977721
0.0977811
0.0977903
0.0978014
0.0978116
0.0978256
0.0978363
0.0978536
0.097864
0.0978857
0.097895
0.0979217
0.0979287
0.0979622
0.0979661
0.0980062
0.0981433
0.0981451
0.0981476
0.0981511
0.0981554
0.0981606
0.0981667
0.0981736
0.0981813
0.0981902
0.0981994
0.0982105
0.0982206
0.0982346