/*--------------------------------*- C++ -*----------------------------------*\
  =========                 |
  \\      /  F ield         | OpenFOAM: The Open Source CFD Toolbox
   \\    /   O peration     | Website:  https://openfoam.org
    \\  /    A nd           | Version:  10
     \\/     M anipulation  |
\*---------------------------------------------------------------------------*/
FoamFile
{
    format      ascii;
    class       volScalarField;
    location    "0.03";
    object      T;
}
// * * * * * * * * * * * * * * * * * * * * * * * * * * * * * * * * * * * * * //

dimensions      [0 0 0 1 0 0 0];

internalField   nonuniform List<scalar> 
4176
(
222.832
222.858
222.859
222.862
222.867
222.873
222.881
222.89
222.901
222.914
222.927
222.943
222.958
222.978
222.995
223.02
223.037
223.069
223.082
223.126
223.133
223.187
223.189
223.247
224.664
224.691
224.693
224.695
224.701
224.708
224.716
224.727
224.738
224.752
224.766
224.783
224.8
224.821
224.839
224.865
224.885
224.917
224.935
224.978
224.991
225.046
225.053
225.12
225.155
225.181
225.183
225.186
225.191
225.198
225.207
225.218
225.23
225.243
225.258
225.275
225.293
225.314
225.333
225.359
225.38
225.411
225.432
225.472
225.49
225.544
225.555
225.63
225.839
225.865
225.867
225.87
225.876
225.883
225.892
225.903
225.915
225.929
225.944
225.961
225.979
226
226.019
226.046
226.066
226.099
226.118
226.16
226.176
226.231
226.24
226.313
226.347
226.374
226.376
226.379
226.384
226.392
226.401
226.412
226.424
226.438
226.453
226.47
226.488
226.509
226.528
226.555
226.574
226.609
226.625
226.669
226.682
226.737
226.745
226.813
226.948
226.975
226.977
226.98
226.985
226.993
227.002
227.013
227.025
227.039
227.054
227.071
227.089
227.11
227.129
227.156
227.174
227.209
227.225
227.269
227.281
227.336
227.344
227.411
227.398
227.424
227.426
227.43
227.435
227.443
227.451
227.462
227.474
227.488
227.503
227.52
227.538
227.559
227.578
227.604
227.623
227.657
227.673
227.716
227.729
227.783
227.791
227.858
227.942
227.969
227.971
227.974
227.979
227.987
227.996
228.007
228.018
228.032
228.047
228.064
228.081
228.102
228.121
228.147
228.166
228.199
228.216
228.258
228.271
228.324
228.332
228.398
228.349
228.375
228.377
228.38
228.385
228.393
228.402
228.412
228.424
228.438
228.452
228.469
228.486
228.507
228.526
228.551
228.57
228.603
228.619
228.661
228.673
228.726
228.734
228.799
228.849
228.876
228.878
228.881
228.886
228.893
228.902
228.913
228.924
228.938
228.952
228.969
228.986
229.006
229.025
229.05
229.069
229.101
229.118
229.159
229.171
229.223
229.231
229.295
229.223
229.249
229.251
229.254
229.26
229.267
229.276
229.286
229.298
229.311
229.325
229.342
229.358
229.378
229.397
229.422
229.44
229.472
229.488
229.528
229.541
229.592
229.6
229.662
229.69
229.716
229.718
229.721
229.727
229.734
229.742
229.753
229.764
229.777
229.791
229.808
229.824
229.844
229.862
229.887
229.905
229.936
229.952
229.992
230.004
230.054
230.062
230.124
230.041
230.067
230.069
230.071
230.077
230.084
230.092
230.102
230.114
230.126
230.14
230.156
230.173
230.192
230.21
230.234
230.252
230.282
230.298
230.337
230.35
230.399
230.407
230.467
230.481
230.507
230.509
230.512
230.517
230.524
230.533
230.542
230.554
230.566
230.58
230.596
230.612
230.631
230.649
230.672
230.69
230.72
230.736
230.774
230.786
230.834
230.843
230.902
230.815
230.84
230.842
230.845
230.85
230.857
230.865
230.875
230.886
230.898
230.912
230.927
230.943
230.962
230.979
231.002
231.02
231.049
231.065
231.102
231.115
231.162
231.17
231.228
231.235
231.261
231.263
231.265
231.27
231.277
231.285
231.294
231.306
231.317
231.331
231.346
231.362
231.38
231.397
231.42
231.438
231.466
231.482
231.518
231.531
231.576
231.585
231.642
231.556
231.582
231.584
231.586
231.592
231.598
231.606
231.615
231.626
231.638
231.651
231.666
231.681
231.699
231.716
231.738
231.756
231.783
231.799
231.834
231.847
231.892
231.901
231.956
231.961
231.987
231.989
231.991
231.996
232.002
232.01
232.019
232.03
232.041
232.055
232.069
232.084
232.101
232.118
232.14
232.157
232.184
232.2
232.234
232.247
232.29
232.299
232.353
232.275
232.301
232.303
232.305
232.31
232.316
232.324
232.332
232.343
232.354
232.367
232.381
232.396
232.413
232.43
232.45
232.468
232.494
232.51
232.543
232.556
232.598
232.607
232.66
232.668
232.694
232.695
232.697
232.703
232.708
232.716
232.724
232.735
232.746
232.759
232.772
232.787
232.804
232.82
232.84
232.858
232.882
232.898
232.931
232.943
232.985
232.994
233.045
232.978
233.004
233.006
233.007
233.012
233.018
233.026
233.034
233.045
233.054
233.068
233.08
233.095
233.111
233.128
233.147
233.164
233.188
233.204
233.235
233.248
233.288
233.297
233.347
233.363
233.388
233.39
233.392
233.397
233.402
233.41
233.417
233.428
233.438
233.451
233.463
233.478
233.493
233.509
233.528
233.545
233.568
233.584
233.614
233.627
233.666
233.675
233.724
233.672
233.697
233.699
233.701
233.706
233.711
233.719
233.726
233.737
233.745
233.759
233.77
233.785
233.799
233.815
233.833
233.85
233.872
233.889
233.917
233.93
233.968
233.977
234.024
234.052
234.077
234.078
234.08
234.085
234.09
234.098
234.104
234.115
234.123
234.137
234.147
234.162
234.176
234.192
234.209
234.226
234.247
234.263
234.291
234.304
234.34
234.349
234.395
234.362
234.387
234.389
234.39
234.395
234.399
234.407
234.413
234.424
234.432
234.445
234.455
234.47
234.483
234.499
234.515
234.532
234.552
234.568
234.594
234.607
234.642
234.652
234.696
234.739
234.764
234.765
234.767
234.771
234.775
234.784
234.789
234.8
234.807
234.821
234.829
234.845
234.856
234.873
234.888
234.905
234.924
234.94
234.965
234.978
235.012
235.021
235.064
235.053
235.077
235.079
235.08
235.085
235.088
235.096
235.101
235.112
235.119
235.132
235.14
235.156
235.166
235.183
235.197
235.213
235.232
235.247
235.271
235.284
235.316
235.325
235.367
235.429
235.454
235.455
235.456
235.461
235.464
235.472
235.477
235.488
235.494
235.507
235.515
235.53
235.54
235.556
235.569
235.586
235.603
235.618
235.641
235.654
235.685
235.694
235.734
235.748
235.772
235.773
235.774
235.779
235.782
235.79
235.794
235.805
235.81
235.823
235.83
235.845
235.854
235.871
235.883
235.899
235.915
235.93
235.952
235.965
235.994
236.003
236.041
236.126
236.15
236.152
236.152
236.157
236.16
236.168
236.172
236.182
236.187
236.2
236.206
236.221
236.229
236.245
236.256
236.273
236.288
236.303
236.323
236.336
236.364
236.373
236.409
236.451
236.475
236.476
236.477
236.481
236.484
236.491
236.495
236.505
236.51
236.522
236.528
236.543
236.55
236.566
236.576
236.592
236.606
236.621
236.64
236.652
236.679
236.688
236.722
236.833
236.857
236.858
236.859
236.863
236.866
236.873
236.876
236.886
236.89
236.903
236.908
236.922
236.929
236.944
236.953
236.969
236.982
236.996
237.014
237.026
237.052
237.06
237.093
237.166
237.189
237.19
237.191
237.195
237.197
237.204
237.207
237.217
237.221
237.233
237.237
237.251
237.257
237.272
237.28
237.296
237.307
237.322
237.338
237.35
237.374
237.382
237.413
237.553
237.577
237.578
237.578
237.582
237.584
237.591
237.594
237.603
237.606
237.618
237.622
237.636
237.641
237.655
237.663
237.678
237.688
237.702
237.718
237.729
237.751
237.76
237.789
237.895
237.918
237.919
237.92
237.923
237.925
237.932
237.934
237.943
237.946
237.957
237.96
237.974
237.978
237.992
237.999
238.013
238.023
238.036
238.05
238.062
238.082
238.09
238.117
238.289
238.312
238.313
238.314
238.317
238.319
238.325
238.327
238.336
238.338
238.349
238.352
238.365
238.368
238.382
238.388
238.402
238.41
238.424
238.436
238.447
238.466
238.474
238.499
238.641
238.664
238.665
238.665
238.668
238.67
238.675
238.678
238.686
238.688
238.699
238.7
238.713
238.716
238.73
238.734
238.748
238.755
238.768
238.779
238.789
238.807
238.814
238.838
239.044
239.066
239.067
239.068
239.07
239.072
239.077
239.08
239.087
239.089
239.099
239.1
239.112
239.114
239.128
239.131
239.145
239.15
239.163
239.173
239.183
239.199
239.206
239.227
239.407
239.429
239.43
239.43
239.432
239.435
239.439
239.441
239.448
239.45
239.459
239.46
239.472
239.473
239.486
239.488
239.501
239.506
239.518
239.526
239.537
239.55
239.557
239.577
239.819
239.841
239.841
239.842
239.844
239.846
239.85
239.852
239.858
239.86
239.868
239.869
239.88
239.881
239.893
239.895
239.908
239.911
239.923
239.93
239.939
239.952
239.959
239.976
240.194
240.216
240.216
240.217
240.218
240.22
240.224
240.226
240.231
240.233
240.241
240.241
240.252
240.252
240.263
240.264
240.277
240.279
240.29
240.296
240.305
240.316
240.322
240.338
240.617
240.638
240.639
240.639
240.64
240.642
240.645
240.647
240.652
240.654
240.661
240.661
240.67
240.67
240.681
240.681
240.693
240.694
240.705
240.709
240.718
240.727
240.733
240.747
241.005
241.026
241.026
241.026
241.028
241.03
241.032
241.034
241.038
241.04
241.046
241.046
241.055
241.054
241.064
241.063
241.075
241.075
241.085
241.088
241.096
241.104
241.11
241.121
241.439
241.46
241.46
241.46
241.461
241.463
241.465
241.467
241.471
241.472
241.477
241.477
241.485
241.484
241.493
241.492
241.502
241.502
241.511
241.513
241.521
241.527
241.532
241.542
241.841
241.861
241.862
241.861
241.862
241.864
241.866
241.867
241.871
241.871
241.876
241.876
241.883
241.882
241.89
241.888
241.898
241.896
241.905
241.906
241.913
241.917
241.923
241.93
242.287
242.307
242.307
242.307
242.308
242.309
242.311
242.312
242.315
242.316
242.32
242.319
242.326
242.324
242.332
242.329
242.338
242.335
242.344
242.343
242.35
242.353
242.358
242.364
242.703
242.723
242.723
242.723
242.723
242.724
242.726
242.727
242.729
242.73
242.733
242.732
242.738
242.736
242.743
242.74
242.748
242.744
242.753
242.75
242.757
242.758
242.763
242.766
243.162
243.182
243.182
243.181
243.182
243.183
243.184
243.185
243.187
243.187
243.19
243.189
243.194
243.191
243.198
243.194
243.201
243.197
243.205
243.201
243.208
243.207
243.211
243.214
243.592
243.612
243.612
243.611
243.612
243.612
243.613
243.614
243.615
243.615
243.618
243.616
243.621
243.618
243.623
243.619
243.626
243.621
243.628
243.623
243.629
243.627
243.631
243.631
244.065
244.084
244.084
244.083
244.084
244.084
244.085
244.085
244.087
244.086
244.088
244.087
244.09
244.087
244.092
244.087
244.093
244.087
244.094
244.088
244.093
244.091
244.094
244.093
244.51
244.529
244.529
244.528
244.528
244.528
244.529
244.529
244.53
244.529
244.531
244.529
244.532
244.528
244.533
244.527
244.533
244.526
244.532
244.526
244.53
244.526
244.529
244.526
244.997
245.015
245.015
245.014
245.014
245.015
245.015
245.015
245.015
245.015
245.016
245.014
245.016
245.012
245.015
245.01
245.014
245.008
245.013
245.006
245.009
245.004
245.007
245.002
245.456
245.475
245.474
245.473
245.473
245.473
245.474
245.473
245.473
245.473
245.473
245.471
245.472
245.468
245.471
245.465
245.469
245.461
245.466
245.458
245.461
245.455
245.457
245.451
245.958
245.976
245.976
245.975
245.974
245.974
245.974
245.974
245.974
245.973
245.972
245.97
245.971
245.967
245.969
245.963
245.966
245.958
245.962
245.954
245.956
245.949
245.95
245.943
246.432
246.449
246.449
246.448
246.448
246.448
246.447
246.447
246.446
246.445
246.445
246.442
246.442
246.438
246.439
246.433
246.435
246.427
246.43
246.421
246.423
246.416
246.416
246.408
246.947
246.965
246.965
246.964
246.963
246.963
246.963
246.962
246.961
246.96
246.959
246.957
246.956
246.952
246.952
246.946
246.947
246.94
246.941
246.933
246.933
246.926
246.926
246.917
247.436
247.453
247.452
247.452
247.451
247.451
247.45
247.449
247.448
247.447
247.445
247.443
247.442
247.438
247.437
247.431
247.432
247.424
247.424
247.416
247.416
247.408
247.407
247.397
247.967
247.984
247.983
247.983
247.982
247.982
247.981
247.98
247.979
247.977
247.975
247.973
247.971
247.967
247.966
247.96
247.96
247.952
247.952
247.944
247.942
247.935
247.933
247.923
248.467
248.484
248.484
248.483
248.482
248.482
248.481
248.48
248.478
248.477
248.475
248.472
248.47
248.466
248.464
248.459
248.457
248.45
248.449
248.441
248.438
248.431
248.428
248.418
249.014
249.03
249.03
249.029
249.028
249.028
249.027
249.026
249.024
249.023
249.02
249.018
249.015
249.012
249.009
249.004
249.001
248.995
248.992
248.985
248.982
248.974
248.971
248.961
249.527
249.543
249.542
249.542
249.541
249.541
249.539
249.538
249.536
249.535
249.532
249.53
249.527
249.524
249.52
249.516
249.512
249.506
249.503
249.496
249.492
249.485
249.481
249.47
250.087
250.103
250.103
250.102
250.101
250.101
250.1
250.099
250.097
250.095
250.092
250.09
250.087
250.084
250.08
250.076
250.071
250.066
250.062
250.056
250.05
250.044
250.04
250.029
250.611
250.626
250.626
250.625
250.624
250.624
250.623
250.622
250.62
250.618
250.615
250.613
250.609
250.606
250.602
250.598
250.593
250.589
250.583
250.578
250.572
250.566
250.561
250.551
251.188
251.203
251.203
251.202
251.201
251.201
251.199
251.199
251.196
251.195
251.192
251.19
251.186
251.183
251.179
251.175
251.17
251.166
251.16
251.155
251.148
251.143
251.137
251.127
251.717
251.732
251.731
251.731
251.73
251.73
251.728
251.727
251.725
251.724
251.721
251.719
251.715
251.712
251.707
251.704
251.698
251.694
251.688
251.683
251.677
251.671
251.666
251.656
252.31
252.325
252.325
252.324
252.323
252.323
252.322
252.321
252.319
252.317
252.314
252.313
252.308
252.306
252.301
252.298
252.292
252.288
252.282
252.277
252.271
252.265
252.26
252.25
252.845
252.86
252.86
252.859
252.858
252.858
252.857
252.856
252.854
252.853
252.85
252.848
252.844
252.842
252.836
252.834
252.828
252.824
252.818
252.813
252.806
252.801
252.796
252.786
253.451
253.465
253.465
253.465
253.464
253.464
253.463
253.462
253.46
253.459
253.456
253.454
253.45
253.448
253.443
253.44
253.434
253.431
253.424
253.42
253.414
253.409
253.403
253.394
253.99
254.004
254.004
254.003
254.003
254.003
254.001
254.001
253.999
253.998
253.995
253.993
253.989
253.987
253.982
253.98
253.974
253.971
253.964
253.96
253.953
253.948
253.943
253.934
254.616
254.63
254.63
254.63
254.629
254.629
254.628
254.628
254.626
254.625
254.622
254.621
254.617
254.615
254.61
254.608
254.602
254.599
254.593
254.589
254.582
254.578
254.572
254.563
255.137
255.15
255.15
255.15
255.149
255.149
255.148
255.148
255.146
255.145
255.142
255.141
255.137
255.136
255.131
255.129
255.123
255.12
255.114
255.11
255.104
255.1
255.094
255.086
255.808
255.821
255.821
255.821
255.821
255.821
255.821
255.82
255.819
255.818
255.815
255.814
255.811
255.809
255.805
255.803
255.797
255.794
255.789
255.785
255.779
255.775
255.77
255.761
256.286
256.298
256.299
256.298
256.298
256.298
256.298
256.297
256.296
256.295
256.293
256.291
256.288
256.287
256.282
256.281
256.276
256.273
256.268
256.264
256.258
256.255
256.249
256.242
257.01
257.023
257.023
257.023
257.023
257.024
257.023
257.023
257.022
257.021
257.019
257.018
257.015
257.014
257.01
257.008
257.004
257.001
256.996
256.993
256.987
256.984
256.979
256.972
257.452
257.464
257.464
257.464
257.464
257.464
257.464
257.464
257.463
257.462
257.46
257.459
257.456
257.455
257.452
257.45
257.446
257.443
257.439
257.436
257.43
257.428
257.422
257.416
258.201
258.213
258.214
258.214
258.214
258.215
258.215
258.215
258.214
258.214
258.212
258.211
258.209
258.208
258.204
258.203
258.199
258.197
258.193
258.19
258.185
258.182
258.178
258.172
258.644
258.655
258.656
258.656
258.656
258.657
258.656
258.656
258.656
258.655
258.654
258.653
258.651
258.65
258.647
258.645
258.642
258.639
258.636
258.632
258.629
258.626
258.622
258.616
259.375
259.386
259.386
259.387
259.387
259.388
259.388
259.388
259.388
259.388
259.386
259.386
259.384
259.383
259.381
259.379
259.377
259.374
259.371
259.368
259.365
259.362
259.358
259.353
259.853
259.863
259.864
259.865
259.865
259.866
259.866
259.866
259.865
259.866
259.864
259.864
259.862
259.862
259.859
259.858
259.855
259.853
259.85
259.847
259.844
259.841
259.837
259.832
260.539
260.549
260.55
260.551
260.551
260.552
260.552
260.553
260.552
260.553
260.551
260.552
260.549
260.55
260.547
260.547
260.544
260.543
260.541
260.538
260.536
260.534
260.531
260.526
261.062
261.073
261.073
261.074
261.074
261.075
261.075
261.076
261.075
261.076
261.074
261.075
261.072
261.073
261.07
261.07
261.068
261.065
261.066
261.061
261.062
261.058
261.057
261.055
261.705
261.715
261.715
261.716
261.716
261.717
261.717
261.718
261.717
261.717
261.715
261.716
261.713
261.714
261.711
261.712
261.709
261.707
261.709
261.703
261.706
261.703
261.703
261.703
262.264
262.273
262.274
262.275
262.275
262.275
262.275
262.275
262.274
262.274
262.272
262.272
262.269
262.269
262.265
262.266
262.262
262.261
262.261
262.255
262.259
262.254
262.256
262.255
262.878
262.888
262.888
262.889
262.889
262.889
262.888
262.888
262.886
262.886
262.883
262.882
262.879
262.878
262.874
262.873
262.868
262.867
262.865
262.86
262.863
262.856
262.859
262.857
263.46
263.469
263.469
263.469
263.469
263.469
263.468
263.467
263.464
263.463
263.459
263.457
263.453
263.45
263.445
263.442
263.436
263.434
263.429
263.423
263.424
263.415
263.417
263.411
264.064
264.073
264.073
264.073
264.073
264.072
264.07
264.068
264.065
264.063
264.058
264.055
264.049
264.045
264.038
264.033
264.025
264.02
264.012
264.004
264.001
263.989
263.99
263.977
264.66
264.669
264.669
264.668
264.667
264.666
264.664
264.662
264.658
264.654
264.649
264.643
264.636
264.63
264.621
264.614
264.603
264.595
264.583
264.572
264.563
264.546
264.545
264.521
265.267
265.275
265.275
265.274
265.273
265.272
265.269
265.266
265.262
265.257
265.251
265.244
265.236
265.228
265.217
265.207
265.194
265.183
265.167
265.153
265.137
265.116
265.107
265.071
265.875
265.882
265.882
265.882
265.88
265.879
265.876
265.872
265.867
265.862
265.855
265.848
265.839
265.829
265.817
265.806
265.791
265.778
265.759
265.743
265.722
265.698
265.681
265.634
266.488
266.495
266.496
266.495
266.494
266.492
266.489
266.485
266.48
266.474
266.467
266.46
266.45
266.441
266.428
266.417
266.401
266.387
266.367
266.35
266.328
266.302
266.285
266.236
267.104
267.111
267.112
267.111
267.11
267.108
267.105
267.101
267.097
267.091
267.084
267.077
267.067
267.059
267.045
267.035
267.018
267.006
266.986
266.97
266.949
266.924
266.909
266.865
267.723
267.73
267.73
267.731
267.729
267.728
267.725
267.722
267.717
267.713
267.704
267.7
267.688
267.683
267.667
267.661
267.642
267.634
267.613
267.6
267.58
267.557
267.544
267.505
268.343
268.35
268.35
268.351
268.349
268.348
268.345
268.343
268.338
268.335
268.327
268.324
268.312
268.309
268.293
268.29
268.271
268.265
268.245
268.235
268.215
268.197
268.184
268.151
268.962
268.969
268.969
268.97
268.969
268.968
268.966
268.964
268.961
268.957
268.951
268.948
268.938
268.935
268.922
268.918
268.902
268.897
268.879
268.871
268.853
268.839
268.827
268.799
269.579
269.586
269.586
269.587
269.587
269.587
269.585
269.583
269.581
269.578
269.573
269.57
269.563
269.559
269.549
269.546
269.532
269.528
269.512
269.507
269.49
269.481
269.469
269.446
270.193
270.199
270.2
270.201
270.201
270.201
270.2
270.199
270.197
270.195
270.191
270.189
270.183
270.181
270.172
270.17
270.158
270.157
270.142
270.14
270.124
270.119
270.107
270.09
270.801
270.807
270.808
270.809
270.81
270.81
270.81
270.809
270.808
270.807
270.805
270.803
270.799
270.797
270.79
270.79
270.78
270.78
270.767
270.767
270.753
270.751
270.739
270.728
271.402
271.408
271.409
271.411
271.411
271.413
271.413
271.413
271.413
271.412
271.411
271.41
271.407
271.407
271.401
271.403
271.394
271.396
271.385
271.387
271.375
271.376
271.365
271.359
271.995
272.001
272.002
272.004
272.005
272.007
272.008
272.009
272.009
272.009
272.009
272.009
272.007
272.008
272.004
272.007
272
272.003
271.994
271.999
271.988
271.992
271.982
271.981
272.579
272.585
272.587
272.589
272.59
272.592
272.593
272.595
272.596
272.597
272.597
272.599
272.598
272.601
272.597
272.602
272.595
272.602
272.593
272.6
272.59
272.598
272.589
272.592
273.154
273.159
273.161
273.163
273.165
273.167
273.169
273.171
273.173
273.175
273.176
273.178
273.179
273.182
273.18
273.185
273.181
273.188
273.182
273.191
273.183
273.193
273.185
273.191
273.717
273.723
273.725
273.727
273.729
273.732
273.734
273.737
273.739
273.742
273.743
273.747
273.748
273.753
273.751
273.758
273.755
273.764
273.759
273.77
273.762
273.775
273.768
273.778
274.27
274.275
274.277
274.28
274.282
274.285
274.288
274.291
274.293
274.297
274.299
274.304
274.305
274.311
274.311
274.319
274.317
274.328
274.323
274.336
274.33
274.345
274.339
274.352
274.811
274.816
274.818
274.82
274.823
274.826
274.829
274.833
274.836
274.84
274.843
274.848
274.851
274.857
274.858
274.867
274.866
274.878
274.875
274.89
274.885
274.902
274.896
274.913
275.339
275.344
275.346
275.349
275.352
275.355
275.359
275.363
275.366
275.371
275.375
275.38
275.384
275.391
275.393
275.403
275.403
275.416
275.414
275.43
275.426
275.445
275.44
275.46
275.856
275.86
275.863
275.866
275.869
275.872
275.876
275.88
275.884
275.889
275.894
275.9
275.904
275.912
275.915
275.926
275.927
275.941
275.939
275.957
275.953
275.975
275.971
275.992
276.36
276.364
276.367
276.37
276.373
276.377
276.381
276.385
276.39
276.395
276.4
276.407
276.411
276.42
276.424
276.435
276.437
276.452
276.452
276.471
276.468
276.491
276.487
276.511
276.852
276.856
276.858
276.862
276.865
276.869
276.873
276.878
276.883
276.889
276.894
276.901
276.906
276.916
276.92
276.932
276.935
276.951
276.951
276.971
276.969
276.993
276.989
277.016
277.332
277.336
277.338
277.341
277.345
277.349
277.353
277.358
277.364
277.37
277.375
277.383
277.389
277.399
277.403
277.416
277.419
277.436
277.437
277.458
277.457
277.482
277.479
277.507
277.8
277.804
277.806
277.809
277.813
277.817
277.822
277.827
277.832
277.839
277.845
277.853
277.859
277.869
277.874
277.888
277.892
277.909
277.911
277.932
277.931
277.958
277.955
277.986
278.256
278.26
278.262
278.265
278.269
278.273
278.278
278.283
278.289
278.296
278.302
278.31
278.317
278.327
278.333
278.347
278.351
278.369
278.371
278.394
278.394
278.422
278.419
278.45
278.701
278.705
278.707
278.71
278.714
278.718
278.723
278.728
278.734
278.741
278.748
278.756
278.763
278.774
278.78
278.795
278.799
278.818
278.82
278.843
278.843
278.872
278.87
278.903
279.135
279.138
279.14
279.144
279.147
279.152
279.157
279.162
279.168
279.175
279.182
279.191
279.198
279.209
279.216
279.23
279.235
279.254
279.257
279.281
279.281
279.311
279.309
279.342
279.558
279.561
279.563
279.567
279.57
279.575
279.58
279.586
279.592
279.599
279.606
279.615
279.622
279.634
279.64
279.655
279.66
279.68
279.683
279.707
279.708
279.738
279.736
279.77
279.971
279.974
279.976
279.979
279.983
279.988
279.993
279.998
280.005
280.012
280.019
280.028
280.035
280.047
280.054
280.069
280.075
280.094
280.098
280.122
280.123
280.154
280.152
280.187
280.374
280.377
280.379
280.382
280.386
280.39
280.396
280.401
280.408
280.415
280.422
280.431
280.439
280.451
280.458
280.473
280.479
280.499
280.502
280.527
280.528
280.559
280.558
280.593
280.767
280.77
280.772
280.776
280.779
280.784
280.789
280.795
280.801
280.808
280.816
280.825
280.832
280.845
280.852
280.867
280.873
280.893
280.897
280.922
280.923
280.954
280.953
280.989
281.152
281.155
281.157
281.16
281.164
281.168
281.173
281.179
281.185
281.193
281.2
281.21
281.217
281.229
281.236
281.252
281.258
281.278
281.282
281.307
281.309
281.34
281.339
281.375
281.528
281.531
281.533
281.536
281.54
281.544
281.549
281.555
281.561
281.569
281.576
281.586
281.593
281.605
281.612
281.628
281.634
281.654
281.659
281.684
281.685
281.716
281.716
281.751
281.896
281.899
281.901
281.904
281.907
281.912
281.917
281.923
281.929
281.936
281.944
281.953
281.961
281.973
281.98
281.996
282.002
282.022
282.027
282.052
282.053
282.085
282.084
282.12
282.256
282.259
282.261
282.264
282.267
282.272
282.277
282.282
282.289
282.296
282.303
282.313
282.32
282.333
282.34
282.356
282.362
282.382
282.387
282.412
282.413
282.445
282.444
282.48
282.609
282.612
282.614
282.616
282.62
282.624
282.629
282.635
282.641
282.649
282.656
282.666
282.673
282.685
282.692
282.708
282.714
282.734
282.739
282.764
282.766
282.796
282.796
282.832
282.955
282.958
282.96
282.962
282.966
282.97
282.975
282.981
282.987
282.994
283.001
283.011
283.018
283.031
283.038
283.054
283.06
283.08
283.084
283.109
283.112
283.142
283.142
283.177
283.295
283.297
283.299
283.302
283.305
283.31
283.314
283.32
283.326
283.334
283.34
283.35
283.357
283.37
283.377
283.392
283.399
283.418
283.423
283.448
283.45
283.48
283.48
283.515
283.629
283.631
283.633
283.635
283.639
283.643
283.648
283.653
283.659
283.667
283.673
283.683
283.69
283.702
283.71
283.725
283.731
283.751
283.756
283.78
283.783
283.812
283.812
283.847
283.957
283.958
283.96
283.963
283.966
283.97
283.975
283.981
283.987
283.994
284.001
284.01
284.017
284.029
284.036
284.052
284.058
284.077
284.082
284.106
284.109
284.139
284.139
284.173
284.279
284.281
284.283
284.285
284.289
284.293
284.297
284.303
284.309
284.316
284.322
284.332
284.339
284.351
284.358
284.373
284.379
284.398
284.403
284.427
284.43
284.459
284.459
284.493
284.597
284.598
284.6
284.603
284.606
284.61
284.614
284.62
284.625
284.633
284.639
284.649
284.655
284.667
284.674
284.689
284.696
284.714
284.719
284.743
284.745
284.774
284.775
284.808
284.91
284.911
284.913
284.915
284.918
284.922
284.927
284.932
284.938
284.945
284.951
284.961
284.967
284.979
284.986
285.001
285.007
285.026
285.031
285.053
285.056
285.085
285.085
285.118
285.218
285.22
285.221
285.224
285.227
285.231
285.235
285.24
285.246
285.253
285.259
285.268
285.275
285.287
285.293
285.308
285.314
285.332
285.337
285.36
285.363
285.391
285.391
285.424
285.523
285.524
285.526
285.528
285.531
285.535
285.539
285.544
285.55
285.556
285.563
285.572
285.578
285.59
285.596
285.611
285.617
285.635
285.639
285.663
285.665
285.693
285.693
285.725
285.823
285.825
285.826
285.828
285.831
285.835
285.839
285.844
285.85
285.856
285.863
285.871
285.878
285.889
285.896
285.91
285.916
285.934
285.938
285.961
285.963
285.991
285.991
286.023
286.121
286.122
286.123
286.125
286.128
286.132
286.136
286.141
286.146
286.153
286.159
286.168
286.174
286.185
286.192
286.206
286.212
286.229
286.233
286.256
286.258
286.285
286.286
286.317
286.415
286.416
286.417
286.419
286.422
286.425
286.429
286.434
286.439
286.446
286.452
286.461
286.467
286.478
286.484
286.498
286.503
286.521
286.525
286.547
286.549
286.576
286.577
286.607
286.706
286.707
286.708
286.71
286.713
286.716
286.72
286.725
286.73
286.736
286.742
286.751
286.756
286.768
286.773
286.788
286.792
286.81
286.814
286.836
286.838
286.864
286.865
286.895
286.994
286.995
286.996
286.998
287.001
287.004
287.008
287.012
287.017
287.024
287.029
287.038
287.043
287.055
287.06
287.074
287.079
287.097
287.1
287.122
287.123
287.15
287.15
287.179
287.279
287.28
287.281
287.283
287.286
287.289
287.293
287.298
287.302
287.309
287.314
287.322
287.328
287.339
287.344
287.358
287.363
287.38
287.383
287.405
287.407
287.432
287.433
287.461
287.563
287.563
287.565
287.566
287.569
287.572
287.576
287.58
287.585
287.591
287.596
287.605
287.61
287.621
287.626
287.64
287.644
287.661
287.664
287.685
287.687
287.712
287.713
287.741
287.844
287.844
287.846
287.847
287.85
287.853
287.856
287.861
287.865
287.872
287.876
287.885
287.89
287.901
287.905
287.919
287.923
287.94
287.943
287.964
287.966
287.99
287.991
288.018
288.123
288.124
288.125
288.127
288.129
288.132
288.135
288.14
288.144
288.15
288.155
288.163
288.168
288.179
288.183
288.197
288.201
288.217
288.22
288.24
288.242
288.266
288.267
288.294
288.401
288.401
288.402
288.404
288.406
288.409
288.413
288.417
288.421
288.427
288.432
288.439
288.444
288.455
288.459
288.472
288.476
288.492
288.496
288.515
288.517
288.54
288.541
288.567
288.677
288.677
288.678
288.68
288.682
288.685
288.688
288.692
288.697
288.702
288.707
288.714
288.719
288.729
288.734
288.746
288.751
288.766
288.769
288.788
288.79
288.813
288.814
288.839
288.951
288.952
288.953
288.955
288.957
288.959
288.963
288.966
288.971
288.976
288.981
288.988
288.993
289.002
289.007
289.019
289.023
289.039
289.042
289.06
289.062
289.084
289.085
289.11
289.225
289.226
289.227
289.228
289.23
289.233
289.236
289.24
289.244
289.249
289.254
289.26
289.266
289.274
289.28
289.291
289.295
289.31
289.313
289.331
289.333
289.355
289.356
289.38
289.498
289.499
289.5
289.501
289.503
289.506
289.509
289.512
289.516
289.521
289.526
289.532
289.538
289.546
289.551
289.562
289.567
289.581
289.584
289.601
289.603
289.624
289.625
289.649
289.771
289.771
289.772
289.774
289.776
289.778
289.781
289.784
289.788
289.793
289.798
289.804
289.81
289.817
289.823
289.833
289.837
289.851
289.854
289.871
289.873
289.893
289.895
289.917
290.043
290.044
290.045
290.046
290.048
290.05
290.053
290.056
290.06
290.065
290.07
290.075
290.081
290.088
290.094
290.103
290.108
290.121
290.124
290.141
290.143
290.162
290.164
290.186
290.316
290.317
290.317
290.319
290.321
290.323
290.326
290.329
290.333
290.337
290.342
290.347
290.353
290.359
290.365
290.374
290.379
290.391
290.395
290.41
290.413
290.432
290.433
290.455
290.59
290.59
290.591
290.592
290.594
290.596
290.599
290.602
290.606
290.61
290.614
290.62
290.625
290.631
290.637
290.646
290.651
290.662
290.666
290.681
290.684
290.702
290.704
290.725
290.865
290.865
290.866
290.867
290.869
290.871
290.874
290.877
290.88
290.884
290.889
290.894
290.899
290.905
290.911
290.919
290.924
290.935
290.939
290.953
290.956
290.974
290.975
290.996
291.142
291.143
291.143
291.144
291.146
291.148
291.151
291.153
291.157
291.161
291.165
291.17
291.175
291.181
291.187
291.194
291.2
291.21
291.214
291.228
291.23
291.248
291.249
291.269
291.422
291.423
291.423
291.424
291.426
291.428
291.43
291.433
291.436
291.44
291.444
291.449
291.454
291.459
291.465
291.472
291.478
291.487
291.492
291.505
291.508
291.524
291.526
291.545
291.706
291.706
291.707
291.708
291.71
291.711
291.714
291.716
291.72
291.723
291.727
291.732
291.737
291.742
291.748
291.754
291.76
291.769
291.774
291.786
291.789
291.805
291.807
291.825
291.995
291.995
291.996
291.997
291.998
292
292.002
292.005
292.008
292.011
292.015
292.019
292.024
292.029
292.035
292.041
292.047
292.055
292.06
292.072
292.075
292.09
292.092
292.11
292.289
292.289
292.29
292.291
292.292
292.294
292.296
292.299
292.302
292.305
292.309
292.313
292.317
292.322
292.328
292.334
292.339
292.348
292.352
292.364
292.367