/*--------------------------------*- C++ -*----------------------------------*\
  =========                 |
  \\      /  F ield         | OpenFOAM: The Open Source CFD Toolbox
   \\    /   O peration     | Website:  https://openfoam.org
    \\  /    A nd           | Version:  10
     \\/     M anipulation  |
\*---------------------------------------------------------------------------*/
FoamFile
{
    format      ascii;
    class       volVectorField;
    location    "0.03";
    object      U;
}
// * * * * * * * * * * * * * * * * * * * * * * * * * * * * * * * * * * * * * //

dimensions      [0 1 -1 0 0 0 0];

internalField   nonuniform List<vector> 
4176
(
(273.851 0.0378129 -7.50494e-11)
(273.857 -0.0179881 -1.47361e-11)
(273.844 0.0975537 5.80543e-12)
(273.827 -0.00351792 1.79088e-11)
(273.802 0.14802 -8.74679e-12)
(273.774 0.0113228 8.8543e-12)
(273.738 0.197931 -9.21395e-12)
(273.698 0.0227324 -5.39777e-12)
(273.649 0.246873 2.77949e-12)
(273.597 0.0307478 -5.16263e-12)
(273.536 0.291612 2.47821e-13)
(273.472 0.0393926 -7.51715e-12)
(273.399 0.321174 4.3237e-13)
(273.32 0.0648603 9.8109e-13)
(273.239 0.316638 -9.15677e-13)
(273.14 0.118571 1.3663e-13)
(273.056 0.270245 1.74952e-12)
(272.928 0.204744 5.44178e-13)
(272.855 0.180313 1.98677e-12)
(272.684 0.31934 5.1822e-12)
(272.633 0.0462342 2.18037e-13)
(272.418 0.480723 -1.66228e-12)
(272.395 -0.132795 1.43278e-12)
(272.154 0.686455 3.93361e-12)
(268.168 0.0465291 -7.67649e-11)
(268.173 0.00154584 -1.44331e-11)
(268.159 0.129593 7.77278e-12)
(268.141 0.0405156 1.78524e-11)
(268.114 0.205005 -7.76229e-12)
(268.083 0.0801577 9.25288e-12)
(268.044 0.280238 -1.05325e-11)
(268.001 0.116578 -5.71595e-12)
(267.947 0.354979 3.17354e-12)
(267.892 0.149794 -5.62584e-12)
(267.825 0.426378 -5.38882e-13)
(267.756 0.183541 -7.68604e-12)
(267.677 0.484361 -9.63753e-13)
(267.592 0.233357 8.87147e-13)
(267.504 0.50982 -6.82637e-13)
(267.398 0.310743 -1.84869e-14)
(267.304 0.496952 1.17655e-12)
(267.173 0.416042 4.65421e-13)
(267.083 0.441609 1.41148e-12)
(266.911 0.553453 4.8486e-12)
(266.838 0.328802 5.61962e-13)
(266.615 0.733837 -3.10315e-12)
(266.576 0.144718 1.60377e-12)
(266.293 0.943374 3.77033e-12)
(266.814 0.055239 -8.23739e-11)
(266.819 0.0213546 -1.31011e-11)
(266.805 0.162246 5.69682e-12)
(266.786 0.0855292 1.79329e-11)
(266.758 0.263399 -7.32812e-12)
(266.727 0.150756 9.05642e-12)
(266.686 0.364761 -8.50545e-12)
(266.642 0.212981 -5.42801e-12)
(266.588 0.466075 4.22673e-12)
(266.531 0.272209 -5.94436e-12)
(266.463 0.564802 -1.35092e-12)
(266.393 0.331788 -8.35197e-12)
(266.312 0.651737 -3.11403e-13)
(266.225 0.407578 1.28592e-12)
(266.134 0.706305 -6.35364e-13)
(266.029 0.512398 1.38747e-12)
(265.93 0.724185 -1.03768e-13)
(265.801 0.644637 -8.25067e-13)
(265.698 0.705422 1.65115e-12)
(265.537 0.804738 4.79043e-12)
(265.445 0.638567 4.35376e-13)
(265.226 1.00716 -1.71023e-12)
(265.172 0.505663 1.81537e-12)
(264.858 1.25309 4.31794e-12)
(265.224 0.0640584 -7.46176e-11)
(265.229 0.0415929 -1.27061e-11)
(265.214 0.195481 6.08367e-12)
(265.195 0.13143 1.86303e-11)
(265.167 0.322816 -7.02253e-12)
(265.136 0.222679 7.66216e-12)
(265.094 0.450718 -8.72252e-12)
(265.05 0.311096 -6.90331e-12)
(264.994 0.578962 -4.54161e-13)
(264.937 0.396659 -4.75551e-12)
(264.868 0.705246 -1.17075e-12)
(264.797 0.482317 -9.33075e-12)
(264.715 0.821484 2.37185e-13)
(264.628 0.583735 5.03535e-13)
(264.536 0.905448 -3.96764e-12)
(264.428 0.71557 6.10317e-13)
(264.333 0.953651 1.08085e-12)
(264.198 0.875342 -1.07835e-12)
(264.103 0.970712 2.61174e-12)
(263.932 1.05763 4.62842e-12)
(263.851 0.951463 -6.17546e-13)
(263.626 1.28334 -2.21294e-12)
(263.577 0.876287 7.06459e-13)
(263.271 1.57222 -2.27092e-13)
(263.822 0.0729292 -7.24994e-11)
(263.827 0.062114 -1.05308e-11)
(263.812 0.228975 1.05305e-11)
(263.792 0.177908 1.84853e-11)
(263.764 0.38272 -3.68213e-12)
(263.732 0.295425 1.0179e-11)
(263.69 0.537376 -1.03494e-11)
(263.646 0.410218 -6.41811e-12)
(263.59 0.692729 2.35926e-12)
(263.533 0.5222 -6.26652e-12)
(263.462 0.846677 -1.45154e-12)
(263.392 0.633966 -8.02285e-12)
(263.309 0.992496 -1.96275e-12)
(263.222 0.759559 -1.76279e-14)
(263.131 1.10769 -2.83434e-12)
(263.021 0.91571 -7.15897e-13)
(262.929 1.18759 6.28611e-13)
(262.788 1.09991 -5.60724e-13)
(262.704 1.2378 -7.86517e-14)
(262.524 1.30671 8.11848e-12)
(262.454 1.25256 3.55333e-12)
(262.226 1.55608 -6.0865e-13)
(262.184 1.21244 2.71887e-12)
(261.893 1.86866 5.08028e-12)
(262.55 0.0817968 -8.19607e-11)
(262.554 0.0827675 -9.18812e-12)
(262.539 0.262532 1.3005e-11)
(262.52 0.224623 1.72159e-11)
(262.492 0.442761 -1.01724e-11)
(262.46 0.368482 8.51937e-12)
(262.418 0.624227 -8.78386e-12)
(262.373 0.509675 -8.26284e-12)
(262.317 0.806703 2.18863e-12)
(262.26 0.648037 -4.56984e-12)
(262.19 0.98826 -1.60989e-12)
(262.12 0.785852 -1.11703e-11)
(262.036 1.16332 -3.59988e-12)
(261.95 0.935036 1.48256e-12)
(261.858 1.31046 -4.09199e-12)
(261.75 1.11418 1.07819e-12)
(261.657 1.42246 5.68601e-12)
(261.518 1.32206 1.17777e-12)
(261.433 1.50179 4.60182e-12)
(261.255 1.55478 9.48254e-12)
(261.186 1.54923 1.69877e-12)
(260.96 1.82432 -6.25759e-12)
(260.919 1.537 9.12591e-13)
(260.631 2.15653 5.30675e-12)
(261.395 0.0906172 -7.84351e-11)
(261.399 0.10343 -7.73755e-12)
(261.384 0.29603 2.22671e-12)
(261.365 0.271311 1.69347e-11)
(261.337 0.502709 1.2309e-13)
(261.305 0.44146 8.81821e-12)
(261.263 0.710925 -1.55561e-11)
(261.219 0.608976 -6.63105e-12)
(261.162 0.920424 5.27362e-12)
(261.106 0.773616 -7.33005e-12)
(261.035 1.12939 -3.3755e-12)
(260.966 0.937412 -5.94413e-12)
(260.882 1.33301 4.13102e-12)
(260.798 1.11047 2.63055e-12)
(260.705 1.51111 -1.79849e-12)
(260.599 1.31311 3.23612e-12)
(260.505 1.65433 1.41681e-12)
(260.37 1.54395 -1.97814e-12)
(260.282 1.76595 1.81336e-12)
(260.108 1.79875 8.29462e-12)
(260.037 1.84541 1.29626e-12)
(259.814 2.09173 -6.43137e-12)
(259.772 1.86524 2.1092e-12)
(259.485 2.44727 7.84905e-12)
(260.344 0.0993584 -8.60712e-11)
(260.348 0.124048 -3.62804e-12)
(260.333 0.329315 1.73671e-11)
(260.314 0.317839 1.77023e-11)
(260.285 0.562304 -6.68671e-12)
(260.254 0.514139 1.0098e-11)
(260.212 0.797123 -6.14213e-12)
(260.168 0.707811 -7.74753e-12)
(260.112 1.03348 -5.09492e-12)
(260.056 0.89854 -8.63122e-12)
(259.986 1.26965 1.75862e-12)
(259.917 1.08814 -8.96506e-12)
(259.834 1.50136 -9.14664e-12)
(259.751 1.28486 -1.59365e-12)
(259.658 1.71028 1.89173e-12)
(259.554 1.51065 -8.84671e-13)
(259.459 1.88437 3.3929e-12)
(259.326 1.76423 7.35709e-12)
(259.238 2.02781 3.49643e-12)
(259.067 2.04063 5.75708e-13)
(258.995 2.1392 1.49398e-12)
(258.775 2.35689 1.9301e-12)
(258.733 2.19092 7.4158e-13)
(258.45 2.73515 -3.71851e-12)
(259.383 0.107997 -8.75087e-11)
(259.387 0.144568 -6.80249e-12)
(259.372 0.362291 3.76456e-12)
(259.354 0.364086 1.2814e-11)
(259.325 0.621379 -5.6924e-12)
(259.295 0.586327 6.69228e-12)
(259.252 0.882583 -1.46929e-11)
(259.21 0.805922 -9.23894e-12)
(259.153 1.14557 -2.22618e-12)
(259.098 1.02249 -1.05022e-11)
(259.028 1.40869 -4.80362e-12)
(258.961 1.23766 -9.96644e-12)
(258.877 1.66811 -5.11392e-12)
(258.796 1.45797 -6.78908e-13)
(258.703 1.90761 -1.1807e-12)
(258.601 1.70628 1.08231e-12)
(258.506 2.11228 1.5569e-12)
(258.376 1.98223 1.2686e-12)
(258.287 2.28698 1.60991e-12)
(258.119 2.28032 4.39623e-12)
(258.047 2.42975 8.20976e-13)
(257.831 2.61916 -3.85291e-12)
(257.788 2.51312 1.64288e-12)
(257.509 3.01937 4.44707e-12)
(258.504 0.116517 -6.43072e-11)
(258.508 0.164948 5.83234e-12)
(258.493 0.394885 1.63209e-11)
(258.475 0.409956 2.17721e-11)
(258.446 0.679809 6.15107e-12)
(258.416 0.657877 1.39338e-11)
(258.374 0.967127 -5.23457e-12)
(258.332 0.903108 -1.72554e-12)
(258.276 1.25646 7.06503e-12)
(258.222 1.1452 -3.22259e-12)
(258.152 1.54623 4.12055e-12)
(258.086 1.38564 -2.28926e-12)
(258.003 1.83296 3.93467e-12)
(257.924 1.62964 6.00743e-12)
(257.83 2.10273 5.9151e-12)
(257.731 1.89968 7.05346e-12)
(257.636 2.33768 8.31666e-12)
(257.508 2.19765 7.31338e-12)
(257.42 2.54311 8.06464e-12)
(257.255 2.51744 1.06967e-11)
(257.182 2.71669 7.23257e-12)
(256.971 2.87812 2.43903e-12)
(256.926 2.83142 6.64497e-12)
(256.652 3.29962 8.99801e-12)
(257.697 0.124903 -6.91496e-11)
(257.701 0.185155 2.96739e-12)
(257.686 0.427044 1.1606e-11)
(257.668 0.455375 1.8684e-11)
(257.64 0.737495 3.23557e-12)
(257.61 0.728676 1.03905e-11)
(257.568 1.05062 -7.99971e-12)
(257.527 0.999221 -2.61751e-12)
(257.471 1.36598 5.42478e-12)
(257.419 1.26649 -4.45944e-12)
(257.349 1.68205 3.87425e-12)
(257.284 1.53186 -1.17928e-12)
(257.202 1.99564 5.02593e-12)
(257.124 1.79964 7.19639e-12)
(257.03 2.29533 8.54017e-12)
(256.934 2.09064 1.05798e-11)
(256.838 2.5602 1.21263e-11)
(256.714 2.41026 1.07972e-11)
(256.625 2.79587 1.28473e-11)
(256.464 2.7516 1.65286e-11)
(256.391 2.99981 1.67144e-12)
(256.184 3.13347 -1.51136e-11)
(256.138 3.14561 -8.70359e-12)
(255.869 3.57565 -6.76156e-12)
(256.954 0.133145 -6.31034e-11)
(256.958 0.20516 4.8926e-12)
(256.943 0.45872 1.09256e-11)
(256.925 0.500282 1.64892e-11)
(256.897 0.794358 1.24723e-12)
(256.868 0.798632 7.90787e-12)
(256.827 1.13295 -1.21464e-11)
(256.787 1.09414 -7.1694e-12)
(256.731 1.47398 -3.7621e-13)
(256.679 1.38623 -9.25004e-12)
(256.61 1.81599 -1.73138e-12)
(256.547 1.67615 -5.65269e-12)
(256.465 2.15596 -6.81337e-13)
(256.389 1.96768 2.7098e-12)
(256.295 2.48502 1.58807e-12)
(256.202 2.27904 3.83681e-12)
(256.106 2.77959 4.15592e-12)
(255.985 2.61993 3.80565e-12)
(255.895 3.04497 3.60958e-12)
(255.739 2.98248 6.89535e-12)
(255.664 3.27894 4.40031e-12)
(255.462 3.385 -4.32895e-14)
(255.416 3.45551 4.75572e-12)
(255.152 3.84728 6.49677e-12)
(256.267 0.141231 -5.60669e-11)
(256.271 0.224936 5.61701e-12)
(256.257 0.48987 8.59849e-12)
(256.239 0.544615 1.4283e-11)
(256.211 0.850322 -2.58896e-12)
(256.183 0.867656 2.66157e-12)
(256.142 1.21401 -1.96647e-11)
(256.103 1.18776 -1.46399e-11)
(256.047 1.58036 -1.00133e-11)
(255.997 1.50429 -1.84366e-11)
(255.928 1.94792 -1.54047e-11)
(255.867 1.81838 -1.83116e-11)
(255.785 2.31388 -1.72084e-11)
(255.711 2.13336 1.80211e-13)
(255.618 2.67128 1.36187e-11)
(255.527 2.46479 1.32293e-11)
(255.431 2.99564 1.33272e-11)
(255.314 2.82648 1.04134e-11)
(255.224 3.29022 9.30758e-12)
(255.071 3.20986 1.24132e-11)
(254.996 3.5539 8.71139e-12)
(254.799 3.63249 2.66768e-12)
(254.751 3.76091 7.4113e-12)
(254.493 4.11427 7.9652e-12)
(255.631 0.149151 -4.09826e-11)
(255.635 0.244458 1.54146e-11)
(255.621 0.520454 8.75003e-12)
(255.604 0.588318 6.83202e-12)
(255.576 0.905315 -3.53016e-12)
(255.549 0.935662 6.6277e-12)
(255.507 1.2937 -8.43649e-12)
(255.469 1.27997 2.60394e-12)
(255.414 1.68498 -7.261e-13)
(255.366 1.62054 -1.85714e-11)
(255.297 2.07772 -9.20502e-12)
(255.237 1.95842 -7.18504e-12)
(255.156 2.46923 3.7239e-12)
(255.084 2.29658 1.00388e-11)
(254.991 2.85385 -2.38796e-12)
(254.904 2.6477 -7.43196e-12)
(254.807 3.20817 -3.85976e-12)
(254.694 3.02974 7.17612e-13)
(254.603 3.53147 6.13708e-12)
(254.455 3.43357 1.5497e-11)
(254.379 3.82447 2.72997e-12)
(254.187 3.87574 -1.21954e-11)
(254.138 4.0616 -1.31017e-12)
(253.887 4.37644 6.33269e-12)
(255.039 0.156896 -4.129e-11)
(255.043 0.263701 1.63887e-12)
(255.029 0.550434 1.50815e-11)
(255.012 0.631342 3.09926e-11)
(254.985 0.959268 1.0918e-11)
(254.958 1.00257 7.97476e-12)
(254.917 1.37192 -1.8772e-11)
(254.88 1.37066 -1.80313e-11)
(254.826 1.7877 -2.8109e-12)
(254.778 1.73484 4.7572e-13)
(254.711 2.20521 9.26066e-13)
(254.652 2.09611 -1.00534e-11)
(254.572 2.62186 -1.35568e-11)
(254.502 2.45718 -3.98252e-13)
(254.41 3.03267 9.79989e-12)
(254.325 2.82769 7.72277e-12)
(254.228 3.41692 1.4857e-12)
(254.119 3.22953 -5.01138e-12)
(254.027 3.76854 -1.40216e-11)
(253.885 3.6534 3.30529e-13)
(253.807 4.09039 9.40543e-12)
(253.621 4.1145 3.76222e-13)
(253.571 4.35733 -1.29444e-12)
(253.325 4.63353 -6.70006e-12)
(254.486 0.164456 -2.35033e-11)
(254.491 0.282648 2.09351e-11)
(254.476 0.579778 1.26576e-11)
(254.46 0.673642 6.04294e-12)
(254.433 1.01212 -2.88643e-12)
(254.407 1.06832 7.8623e-12)
(254.367 1.44858 -3.63482e-12)
(254.331 1.45973 6.5407e-12)
(254.277 1.88841 -1.55541e-12)
(254.231 1.84706 -1.8981e-11)
(254.163 2.33023 -6.68085e-12)
(254.107 2.23125 -3.49474e-12)
(254.027 2.77155 8.51449e-12)
(253.959 2.61484 -1.63045e-12)
(253.868 3.20788 -1.77996e-11)
(253.786 3.00496 -4.72732e-12)
(253.689 3.62152 1.74545e-12)
(253.584 3.42562 8.17688e-12)
(253.492 4.00122 1.26629e-11)
(253.354 3.86913 3.70818e-12)
(253.275 4.3514 -9.72731e-12)
(253.095 4.34853 -6.32362e-12)
(253.044 4.64787 5.42948e-12)
(252.804 4.88534 1.21188e-11)
(253.967 0.171825 -2.57075e-11)
(253.972 0.301282 6.4793e-12)
(253.958 0.608454 3.87861e-12)
(253.942 0.715184 4.68886e-12)
(253.915 1.06382 2.9016e-12)
(253.89 1.13284 1.97417e-11)
(253.85 1.5236 -1.23353e-12)
(253.815 1.5471 -1.58263e-12)
(253.762 1.987 -3.8921e-12)
(253.717 1.95709 -1.39677e-11)
(253.65 2.45264 -1.26758e-11)
(253.596 2.3637 -1.87401e-11)
(253.517 2.91813 -1.23171e-12)
(253.451 2.76933 1.37055e-11)
(253.36 3.37937 7.36257e-12)
(253.281 3.17953 7.3625e-12)
(253.184 3.82179 3.94068e-12)
(253.084 3.61782 -2.6751e-13)
(252.99 4.22917 -8.22436e-12)
(252.858 4.08041 -8.44085e-12)
(252.779 4.60733 -1.53005e-11)
(252.604 4.57761 -4.5374e-12)
(252.551 4.93295 1.45298e-11)
(252.319 5.13163 1.02453e-11)
(253.478 0.178993 -1.38263e-11)
(253.482 0.319588 1.79697e-11)
(253.469 0.636433 2.38323e-11)
(253.453 0.755933 2.78551e-11)
(253.427 1.11431 1.59961e-11)
(253.402 1.19609 1.7954e-11)
(253.363 1.59691 3.15423e-12)
(253.329 1.63272 9.74262e-12)
(253.276 2.08338 1.60505e-11)
(253.233 2.06486 -8.78182e-12)
(253.167 2.57235 -2.12343e-11)
(253.114 2.49336 -2.07077e-11)
(253.036 3.06149 -1.75446e-11)
(252.972 2.92051 -1.13682e-11)
(252.883 3.54693 -1.31596e-11)
(252.807 3.35107 -5.09632e-12)
(252.71 4.01753 -3.92814e-12)
(252.614 3.80599 -2.00549e-12)
(252.52 4.45213 -2.37758e-12)
(252.393 4.28705 6.26396e-12)
(252.312 4.85795 6.51298e-12)
(252.144 4.80156 3.00256e-12)
(252.09 5.21236 8.73064e-12)
(251.864 5.3722 1.20089e-11)
(253.014 0.185951 -1.2258e-11)
(253.018 0.33755 1.26323e-11)
(253.005 0.663679 1.33077e-11)
(252.99 0.795854 1.67822e-11)
(252.964 1.16353 -8.20882e-13)
(252.94 1.25803 -9.53879e-13)
(252.901 1.66842 -2.03843e-11)
(252.868 1.71651 -1.27923e-11)
(252.816 2.17745 -1.45995e-11)
(252.775 2.17029 -2.05619e-11)
(252.709 2.68926 -1.5154e-11)
(252.658 2.62017 -1.88001e-11)
(252.581 3.20155 -1.95842e-11)
(252.52 3.06831 -1.51108e-11)
(252.431 3.71061 -2.19249e-11)
(252.358 3.51901 -1.64549e-11)
(252.261 4.20818 2.73463e-12)
(252.169 3.99002 1.91359e-11)
(252.075 4.67 1.65475e-11)
(251.954 4.48898 1.996e-11)
(251.872 5.10303 1.70442e-11)
(251.71 5.0202 9.00264e-12)
(251.654 5.48584 1.28443e-11)
(251.436 5.60681 1.38552e-11)
(252.571 0.192687 -1.50172e-11)
(252.576 0.355153 1.79171e-11)
(252.562 0.690156 3.02589e-11)
(252.548 0.83491 1.91072e-11)
(252.522 1.21141 1.33911e-11)
(252.499 1.31858 2.12034e-11)
(252.46 1.73804 -8.8914e-12)
(252.429 1.79839 -1.44179e-11)
(252.377 2.26909 -6.45429e-12)
(252.338 2.27328 -2.72849e-12)
(252.273 2.80324 -8.73853e-12)
(252.225 2.74401 -4.58985e-12)
(252.147 3.33819 5.47755e-12)
(252.089 3.21266 -5.05657e-12)
(252.001 3.87039 6.04544e-13)
(251.931 3.68307 1.37356e-11)
(251.835 4.3933 7.46795e-13)
(251.748 4.16977 -1.31114e-11)
(251.653 4.88269 -8.10293e-12)
(251.537 4.68606 5.87992e-12)
(251.454 5.34241 -9.21683e-12)
(251.299 5.23336 -5.28982e-12)
(251.242 5.75319 6.49551e-12)
(251.031 5.83526 -5.19744e-12)
(252.146 0.199188 9.30696e-13)
(252.15 0.372382 2.32813e-11)
(252.137 0.715822 3.07506e-11)
(252.123 0.873067 3.45862e-11)
(252.098 1.25789 2.39936e-11)
(252.076 1.3777 4.2644e-12)
(252.038 1.80566 -3.25189e-11)
(252.008 1.87829 -1.82864e-11)
(251.957 2.35817 -1.6792e-11)
(251.919 2.37373 -1.76285e-11)
(251.855 2.91412 -9.10059e-12)
(251.809 2.86473 -6.74956e-12)
(251.732 3.47123 1.08576e-12)
(251.676 3.35335 7.78194e-12)
(251.589 4.02606 9.96303e-12)
(251.522 3.84319 1.58645e-11)
(251.426 4.57288 1.982e-11)
(251.344 4.34507 -5.85399e-13)
(251.248 5.09006 -2.23753e-11)
(251.138 4.87818 -1.11592e-11)
(251.054 5.57586 -9.22966e-12)
(250.906 5.44081 -1.17674e-11)
(250.847 6.01415 -7.07949e-12)
(250.644 6.05731 -9.85781e-13)
(251.735 0.205439 -8.53474e-12)
(251.74 0.389225 4.41895e-12)
(251.727 0.740633 1.83148e-11)
(251.713 0.910294 3.48047e-11)
(251.688 1.30288 1.22857e-11)
(251.668 1.43534 4.24408e-12)
(251.63 1.87116 -2.00654e-11)
(251.602 1.95614 2.06002e-12)
(251.55 2.44453 1.47186e-11)
(251.515 2.47151 -5.46925e-14)
(251.451 3.02172 -2.09787e-12)
(251.407 2.98215 -1.33467e-11)
(251.331 3.60047 -2.07669e-11)
(251.279 3.49013 -3.08683e-12)
(251.192 4.17738 7.50833e-12)
(251.129 3.99895 4.97454e-12)
(251.034 4.7472 -1.89867e-12)
(250.956 4.51626 -1.17729e-11)
(250.859 5.29167 -7.45003e-13)
(250.755 5.06504 1.75601e-11)
(250.67 5.80317 7.64921e-12)
(250.529 5.64231 -7.24961e-12)
(250.469 6.2685 -1.42624e-11)
(250.273 6.27275 1.16712e-12)
(251.335 0.211423 -1.20733e-11)
(251.34 0.405671 5.03739e-12)
(251.327 0.764539 1.82312e-11)
(251.314 0.946564 3.72495e-11)
(251.289 1.34628 1.82979e-11)
(251.27 1.49146 7.29113e-12)
(251.232 1.93441 -1.98485e-11)
(251.206 2.0319 -2.07152e-11)
(251.155 2.52802 -1.13285e-11)
(251.122 2.56655 2.17616e-12)
(251.058 3.12587 2.6661e-12)
(251.018 3.09614 -8.75335e-12)
(250.942 3.72572 -1.54474e-11)
(250.893 3.62274 1.44293e-12)
(250.807 4.32413 1.26428e-11)
(250.747 4.14988 7.3506e-12)
(250.653 4.9162 8.25802e-13)
(250.579 4.68351 -7.34797e-12)
(250.482 5.48725 4.08269e-12)
(250.384 5.24623 2.2281e-11)
(250.298 6.02408 1.27868e-11)
(250.164 5.83764 -2.53036e-12)
(250.102 6.51601 -7.00912e-12)
(249.915 6.48139 -1.30328e-11)
(250.943 0.217116 -1.77576e-11)
(250.948 0.421717 2.16632e-11)
(250.936 0.787486 3.22937e-11)
(250.924 0.981865 1.74998e-11)
(250.899 1.388 -1.04999e-11)
(250.881 1.54605 1.46701e-13)
(250.843 1.99523 -6.36431e-12)
(250.819 2.10556 -1.32602e-11)
(250.768 2.60842 -9.47872e-12)
(250.738 2.65885 -2.71878e-12)
(250.674 3.22637 -1.0748e-11)
(250.637 3.20662 -1.52538e-12)
(250.561 3.84683 1.38669e-11)
(250.516 3.75102 -9.41756e-13)
(250.43 4.46621 -2.16954e-11)
(250.374 4.29573 -4.6711e-12)
(250.281 5.07958 8.95633e-12)
(250.211 4.84619 -5.1308e-12)
(250.114 5.67648 1.20995e-12)
(250.023 5.42145 1.51112e-11)
(249.936 6.23823 -1.57268e-13)
(249.809 6.02661 4.84499e-12)
(249.746 6.75649 1.87524e-11)
(249.567 6.68304 3.978e-12)
(250.556 0.222495 -1.54572e-12)
(250.562 0.437362 3.11236e-11)
(250.549 0.809401 4.0412e-11)
(250.538 1.01621 2.1713e-11)
(250.513 1.42789 -7.52156e-12)
(250.497 1.59915 -1.84642e-13)
(250.459 2.05341 -8.80217e-12)
(250.437 2.17714 7.00574e-12)
(250.386 2.68546 9.38447e-12)
(250.359 2.74841 -1.24859e-11)
(250.294 3.32292 -2.4893e-11)
(250.262 3.31356 -1.6397e-11)
(250.185 3.96357 -4.96891e-12)
(250.145 3.87481 3.95399e-12)
(250.058 4.60359 8.46736e-12)
(250.007 4.43623 2.00047e-11)
(249.914 5.23768 3.69418e-12)
(249.849 5.00315 -1.51901e-11)
(249.753 5.85839 -1.27669e-11)
(249.668 5.59068 1.94622e-13)
(249.58 6.44526 8.05057e-12)
(249.461 6.20892 1.00306e-11)
(249.396 6.98957 2.15314e-11)
(249.226 6.87736 3.82079e-12)
(250.172 0.227539 -1.42512e-12)
(250.178 0.45262 1.85792e-11)
(250.165 0.83018 7.65247e-12)
(250.155 1.04965 2.67214e-11)
(250.13 1.46579 6.5581e-12)
(250.115 1.65078 -2.77073e-12)
(250.078 2.10888 -3.6671e-14)
(250.058 2.24656 -3.16065e-12)
(250.007 2.759 -2.2023e-11)
(249.983 2.83515 -4.7511e-12)
(249.918 3.41526 -5.55661e-12)
(249.889 3.41695 -1.64361e-11)
(249.812 4.07555 6.62079e-12)
(249.777 3.99413 -1.1675e-12)
(249.689 4.73599 -1.72017e-11)
(249.644 4.57121 4.66751e-12)
(249.55 5.39052 -1.67634e-12)
(249.491 5.15396 -1.04223e-11)
(249.395 6.03278 1.1708e-12)
(249.316 5.75335 -2.50745e-12)
(249.228 6.64477 -1.1592e-11)
(249.117 6.38416 -1.18205e-13)
(249.05 7.21452 -8.92772e-12)
(248.889 7.06378 -1.45679e-11)
(249.788 0.232246 -4.10686e-11)
(249.793 0.467512 7.98303e-12)
(249.781 0.849727 6.87301e-12)
(249.771 1.08214 1.34785e-11)
(249.747 1.50169 7.10746e-12)
(249.733 1.70062 7.57014e-12)
(249.696 2.16174 -5.49897e-12)
(249.678 2.31343 5.16714e-12)
(249.628 2.82922 8.88755e-13)
(249.606 2.91868 5.90425e-13)
(249.542 3.50342 1.16327e-11)
(249.516 3.5166 -1.36246e-11)
(249.439 4.1824 -7.70258e-12)
(249.408 4.10927 -4.34226e-12)
(249.32 4.86248 -5.6074e-12)
(249.281 4.70084 1.92467e-12)
(249.186 5.53767 7.17814e-12)
(249.133 5.29824 7.83093e-12)
(249.037 6.20018 6.87086e-12)
(248.965 5.90917 1.31968e-11)
(248.876 6.83639 -1.17371e-11)
(248.773 6.55203 -1.3302e-11)
(248.705 7.43052 -8.92782e-12)
(248.554 7.24161 -6.57217e-12)
(249.401 0.236636 -2.11847e-11)
(249.406 0.481951 3.04562e-11)
(249.394 0.868141 3.71416e-11)
(249.385 1.11339 1.85712e-11)
(249.362 1.53581 -1.02856e-11)
(249.349 1.74846 -5.9724e-12)
(249.312 2.21198 -1.39164e-11)
(249.296 2.37762 2.3008e-12)
(249.246 2.89602 2.67123e-13)
(249.227 2.99883 6.18458e-12)
(249.164 3.58735 -6.56678e-12)
(249.141 3.61222 -2.48481e-11)
(249.065 4.28417 -1.34939e-11)
(249.038 4.21971 -7.34806e-12)
(248.95 4.98299 -2.78195e-12)
(248.916 4.82531 9.8364e-12)
(248.821 5.67812 2.23125e-11)
(248.774 5.43563 2.66947e-11)
(248.678 6.36114 8.3945e-13)
(248.612 6.05888 -1.40291e-11)
(248.523 7.01977 -5.60819e-12)
(248.428 6.71232 -2.28766e-12)
(248.358 7.6379 8.85989e-12)
(248.216 7.41109 1.83103e-11)
(249.008 0.240699 -1.77459e-11)
(249.014 0.495847 1.75554e-11)
(249.002 0.885533 -4.50829e-12)
(248.994 1.14329 1.45023e-11)
(248.971 1.56807 2.66391e-11)
(248.959 1.79422 1.11888e-11)
(248.924 2.2595 -1.9848e-11)
(248.909 2.439 2.2787e-12)
(248.86 2.95926 -1.82157e-11)
(248.843 3.07546 -3.08056e-11)
(248.781 3.66688 -6.89798e-12)
(248.761 3.7036 9.08039e-12)
(248.686 4.38071 -1.08293e-12)
(248.662 4.32522 -1.33061e-11)
(248.576 5.09742 1.49056e-13)
(248.546 4.94415 2.10062e-11)
(248.452 5.81152 1.02282e-11)
(248.411 5.56669 -7.02822e-12)
(248.315 6.51484 7.04076e-12)
(248.256 6.20203 -2.37085e-13)
(248.165 7.19514 -1.48433e-11)
(248.079 6.8647 -5.08314e-12)
(248.008 7.83665 1.50014e-11)
(247.876 7.57216 4.21548e-12)
(248.609 0.24448 -5.49838e-11)
(248.615 0.509116 5.56016e-12)
(248.603 0.901869 1.32595e-12)
(248.595 1.17177 7.86882e-12)
(248.573 1.5984 2.0571e-12)
(248.562 1.83782 -4.23822e-13)
(248.528 2.30421 -1.36921e-11)
(248.515 2.49746 -3.69525e-12)
(248.467 3.01882 -1.19954e-11)
(248.452 3.14841 -1.36301e-11)
(248.391 3.74188 -4.26652e-12)
(248.374 3.79056 5.08197e-13)
(248.3 4.47187 5.38903e-12)
(248.28 4.4256 3.67452e-12)
(248.195 5.20562 3.21001e-12)
(248.17 5.05719 9.49142e-12)
(248.076 5.93784 1.36067e-11)
(248.041 5.69144 1.01326e-11)
(247.945 6.66049 1.025e-11)
(247.893 6.33768 1.70712e-11)
(247.803 7.36224 2.01353e-11)
(247.724 7.0091 -1.65336e-11)
(247.652 8.02634 -1.66068e-11)
(247.53 7.72451 -1.0366e-11)
(248.2 0.248046 -1.6455e-11)
(248.206 0.521741 3.3026e-11)
(248.194 0.917111 2.21753e-11)
(248.187 1.19876 2.52769e-11)
(248.166 1.62671 1.81364e-11)
(248.156 1.87915 1.14986e-11)
(248.122 2.346 -3.85983e-12)
(248.111 2.55288 2.13569e-12)
(248.065 3.07455 -8.56012e-12)
(248.052 3.21753 -1.39156e-11)
(247.992 3.81216 -7.79005e-12)
(247.978 3.87291 -8.53632e-12)
(247.906 4.55744 -7.41641e-12)
(247.889 4.52061 -8.71799e-12)
(247.805 5.30736 -1.63178e-11)
(247.784 5.16413 -1.4299e-11)
(247.692 6.05686 -1.2558e-11)
(247.663 5.8094 1.58914e-11)
(247.567 6.79818 1.04073e-11)
(247.522 6.46541 1.14474e-11)
(247.431 7.52011 1.39982e-11)
(247.362 7.14541 4.0604e-12)
(247.289 8.20644 2.76895e-12)
(247.177 7.86769 4.51521e-12)
(247.779 0.251414 -3.04293e-11)
(247.785 0.533623 2.01973e-11)
(247.774 0.931195 9.10201e-13)
(247.767 1.22419 2.35356e-11)
(247.747 1.65296 1.20539e-11)
(247.738 1.91813 -1.25137e-12)
(247.706 2.38476 2.94913e-12)
(247.695 2.60513 -1.21059e-12)
(247.651 3.12633 -1.83251e-11)
(247.64 3.28267 -1.62447e-12)
(247.582 3.87756 -4.75898e-12)
(247.57 3.95048 -1.17272e-11)
(247.5 4.6372 1.2336e-11)
(247.487 4.61003 1.97627e-14)
(247.404 5.40239 -1.33125e-11)
(247.388 5.26472 9.66598e-12)
(247.297 6.16826 3.88982e-12)
(247.273 5.92025 -8.41827e-12)
(247.178 6.92732 1.05154e-11)
(247.141 6.58534 5.48216e-12)
(247.05 7.66868 -5.86001e-12)
(246.989 7.27296 1.03063e-11)
(246.915 8.37645 2.91197e-12)
(246.814 8.00128 -7.43788e-12)
(247.344 0.254742 -6.55134e-11)
(247.35 0.54452 1.87436e-11)
(247.34 0.944061 1.99061e-11)
(247.333 1.2481 4.24532e-12)
(247.314 1.67703 1.52178e-11)
(247.306 1.95468 2.12034e-11)
(247.275 2.42039 -1.68429e-11)
(247.266 2.6541 1.65145e-12)
(247.223 3.174 5.30188e-12)
(247.214 3.34368 -2.07319e-11)
(247.158 3.9379 -1.78595e-12)
(247.149 4.02306 1.32223e-11)
(247.08 4.71096 -4.43605e-12)
(247.071 4.69363 2.6894e-12)
(246.99 5.49047 1.36184e-11)
(246.979 5.35865 -5.92224e-12)
(246.889 6.27176 7.28896e-12)
(246.871 6.02366 1.60126e-11)
(246.777 7.04762 -6.47123e-12)
(246.747 6.69714 8.63259e-12)
(246.656 7.80741 2.15179e-11)
(246.604 7.39139 -4.94028e-12)
(246.529 8.53596 6.39554e-12)
(246.439 8.12488 1.74025e-11)
(246.893 0.258174 -5.02252e-11)
(246.899 0.554 3.49573e-11)
(246.89 0.955938 3.59529e-11)
(246.883 1.27061 1.97901e-11)
(246.865 1.69876 -4.53825e-12)
(246.858 1.9888 1.35394e-12)
(246.828 2.45277 3.27479e-13)
(246.821 2.69967 1.42928e-11)
(246.779 3.21746 1.93778e-11)
(246.773 3.40041 -4.80744e-12)
(246.718 3.99303 -2.27926e-11)
(246.713 4.09048 -8.55993e-12)
(246.645 4.77853 9.18267e-12)
(246.64 4.7712 1.50398e-11)
(246.561 5.57138 2.37768e-11)
(246.554 5.4457 3.29605e-12)
(246.466 6.36709 -1.71436e-11)
(246.454 6.11933 -6.1111e-12)
(246.361 7.15876 6.48231e-13)
(246.338 6.8003 1.51374e-11)
(246.248 7.93613 3.21956e-11)
(246.205 7.5007 1.30295e-12)
(246.129 8.68446 -2.14704e-11)
(246.05 8.23812 -7.77701e-12)
(246.425 0.261477 -8.56426e-11)
(246.43 0.562319 7.11886e-13)
(246.423 0.967368 -9.99001e-12)
(246.415 1.29108 -3.7795e-12)
(246.399 1.71807 -4.92772e-12)
(246.392 2.02072 -8.73423e-12)
(246.364 2.48167 -2.36585e-11)
(246.358 2.74182 -1.90085e-11)
(246.318 3.25654 -2.52308e-11)
(246.314 3.45272 -2.82196e-11)
(246.261 4.04282 -2.30903e-11)
(246.259 4.15259 -1.82152e-11)
(246.193 4.83976 -1.53816e-11)
(246.192 4.84256 -1.79954e-11)
(246.114 5.64492 -2.20109e-11)
(246.112 5.52564 -1.61868e-11)
(246.026 6.45403 -1.37714e-11)
(246.02 6.20702 -1.6034e-11)
(245.928 7.26045 -2.04189e-11)
(245.913 6.89465 -1.33866e-11)
(245.823 8.05428 -1.3718e-11)
(245.789 7.60036 -1.78228e-11)
(245.712 8.82166 -1.81016e-11)
(245.644 8.34075 -1.42906e-11)
(245.937 0.26457 -4.8408e-11)
(245.942 0.569552 1.89121e-11)
(245.935 0.978216 -4.68756e-12)
(245.928 1.30918 2.57437e-11)
(245.914 1.73551 1.57583e-11)
(245.906 2.04984 1.24669e-12)
(245.881 2.50684 1.15725e-11)
(245.875 2.78095 4.33781e-12)
(245.838 3.29101 -1.08814e-11)
(245.835 3.50062 8.49177e-12)
(245.785 4.08711 5.05453e-12)
(245.785 4.20924 -4.80668e-12)
(245.722 4.89449 2.3436e-11)
(245.724 4.90755 7.70891e-12)
(245.649 5.71095 -4.40605e-12)
(245.652 5.59831 -9.72799e-12)
(245.567 6.53239 -1.75393e-11)
(245.567 6.28654 3.2192e-12)
(245.476 7.3525 -9.50332e-12)
(245.468 6.9799 -1.32865e-11)
(245.379 8.16174 1.15994e-11)
(245.355 7.6899 -4.92397e-12)
(245.278 8.94699 -1.82643e-11)
(245.221 8.43271 8.55449e-12)
(245.427 0.267392 -4.32023e-11)
(245.433 0.575888 2.20483e-11)
(245.426 0.988058 -2.81122e-12)
(245.419 1.32474 2.90158e-11)
(245.407 1.75123 1.91374e-11)
(245.398 2.07577 4.29647e-12)
(245.377 2.52886 1.55244e-11)
(245.371 2.81648 7.41805e-12)
(245.337 3.32048 -7.11819e-12)
(245.335 3.54455 -2.21826e-11)
(245.287 4.12562 -2.73065e-11)
(245.29 4.2604 2.20993e-12)
(245.229 4.94258 -5.43733e-12)
(245.235 4.96599 -1.95041e-11)
(245.162 5.7693 2.66795e-12)
(245.169 5.66352 -3.28358e-12)
(245.086 6.60199 -1.06562e-11)
(245.092 6.3577 9.78086e-12)
(245.003 7.43469 -1.83312e-12)
(245.003 7.05593 -6.56e-12)
(244.914 8.25834 1.89349e-11)
(244.899 7.76907 1.66948e-12)
(244.822 9.0599 -7.46215e-12)
(244.777 8.51355 1.87167e-11)
(244.894 0.269923 -5.15741e-11)
(244.9 0.581339 4.30398e-11)
(244.894 0.996796 1.10528e-11)
(244.887 1.33794 1.00086e-12)
(244.876 1.76513 1.85949e-11)
(244.868 2.09841 3.23155e-11)
(244.849 2.5479 1.58496e-12)
(244.843 2.84796 -1.71305e-11)
(244.813 3.34545 -3.11052e-12)
(244.811 3.58402 8.69414e-12)
(244.767 4.15794 -1.83893e-12)
(244.772 4.30654 -1.4938e-11)
(244.713 4.98373 5.27873e-12)
(244.723 5.01782 1.74536e-11)
(244.652 5.81987 -4.63123e-12)
(244.664 5.72112 -1.68875e-11)
(244.583 6.66271 3.94993e-12)
(244.595 6.42036 1.65204e-11)
(244.508 7.50686 -1.40605e-12)
(244.515 7.12257 -1.2956e-11)
(244.427 8.34369 4.13431e-12)
(244.421 7.8383 1.19099e-11)
(244.344 9.16026 -3.79922e-12)
(244.31 8.58248 -1.80885e-11)
(244.337 0.272142 -6.42707e-11)
(244.342 0.585906 1.03637e-11)
(244.336 1.00433 -7.16456e-12)
(244.33 1.34898 -6.74975e-12)
(244.321 1.77715 -1.44852e-11)
(244.313 2.1177 -2.05977e-11)
(244.297 2.56391 -1.97679e-12)
(244.291 2.87522 2.8562e-11)
(244.264 3.36609 2.31846e-11)
(244.263 3.6186 1.22688e-11)
(244.222 4.18434 1.29771e-11)
(244.228 4.34735 9.45416e-12)
(244.173 5.01753 9.04746e-12)
(244.186 5.06336 -5.11458e-14)
(244.118 5.86239 -8.55499e-12)
(244.135 5.77098 -1.00948e-11)
(244.056 6.71443 -1.11558e-11)
(244.074 6.47439 -1.7687e-11)
(243.988 7.56887 -2.74305e-11)
(244.002 7.17965 -2.3028e-11)
(243.916 8.41768 7.74562e-12)
(243.919 7.89685 2.93263e-11)
(243.842 9.24861 2.6542e-11)
(243.819 8.64078 2.25173e-11)
(243.752 0.274034 -7.67967e-11)
(243.758 0.589576 1.3395e-11)
(243.753 1.01055 1.04937e-11)
(243.747 1.35801 -1.02435e-11)
(243.739 1.78723 -4.79717e-12)
(243.732 2.13363 4.90562e-12)
(243.717 2.5768 1.75323e-12)
(243.712 2.89816 1.07662e-11)
(243.688 3.38239 -2.05044e-11)
(243.688 3.64805 -1.60477e-11)
(243.652 4.20501 2.06386e-12)
(243.658 4.38237 -2.211e-11)
(243.608 5.04401 -9.70123e-12)
(243.623 5.10271 -3.93042e-12)
(243.558 5.89645 2.62282e-12)
(243.579 5.81314 1.42351e-11)
(243.502 6.75703 -7.55092e-12)
(243.526 6.51964 -6.32324e-13)
(243.443 7.62066 6.95361e-12)
(243.464 7.22714 -1.62046e-11)
(243.379 8.48026 -7.66463e-12)
(243.391 7.94496 -1.1529e-12)
(243.314 9.32437 7.34043e-12)
(243.303 8.68762 1.56577e-11)
(243.14 0.275591 -2.81609e-11)
(243.145 0.592351 2.38001e-11)