/*--------------------------------*- C++ -*----------------------------------*\
  =========                 |
  \\      /  F ield         | OpenFOAM: The Open Source CFD Toolbox
   \\    /   O peration     | Website:  https://openfoam.org
    \\  /    A nd           | Version:  10
     \\/     M anipulation  |
\*---------------------------------------------------------------------------*/
FoamFile
{
    format      ascii;
    class       volScalarField;
    location    "0.22";
    object      Ma;
}
// * * * * * * * * * * * * * * * * * * * * * * * * * * * * * * * * * * * * * //

dimensions      [0 0 0 0 0 0 0];

internalField   nonuniform List<scalar> 
4176
(
1.84513
1.84505
1.84485
1.84462
1.8442
1.84382
1.84317
1.84267
1.84178
1.84115
1.84005
1.83929
1.83798
1.83707
1.83561
1.83447
1.83302
1.83147
1.83015
1.82804
1.82709
1.82416
1.82398
1.82017
1.84501
1.84494
1.84473
1.84449
1.84406
1.84367
1.84302
1.84249
1.8416
1.84094
1.83982
1.83903
1.8377
1.83676
1.83527
1.8341
1.83261
1.83103
1.82968
1.82752
1.82657
1.82352
1.82329
1.81911
1.84466
1.84458
1.84439
1.84415
1.84374
1.84335
1.84272
1.84219
1.84134
1.84068
1.8396
1.83882
1.83752
1.83661
1.83514
1.834
1.83252
1.831
1.82968
1.82757
1.82667
1.82368
1.82345
1.81914
1.84401
1.84393
1.84374
1.8435
1.84309
1.8427
1.84207
1.84154
1.84069
1.84004
1.83895
1.83818
1.83687
1.83597
1.83448
1.83336
1.83187
1.83031
1.82906
1.82689
1.82602
1.82307
1.82288
1.81876
1.84306
1.84299
1.8428
1.84256
1.84216
1.84177
1.84115
1.84063
1.83979
1.83914
1.83807
1.83731
1.83601
1.83513
1.83365
1.83255
1.83104
1.82952
1.82829
1.8261
1.82525
1.82234
1.82214
1.81816
1.84181
1.84174
1.84155
1.84131
1.84092
1.84053
1.83992
1.8394
1.83857
1.83793
1.83687
1.83611
1.83483
1.83395
1.83248
1.83141
1.82987
1.82842
1.82711
1.825
1.82412
1.82124
1.821
1.81702
1.84027
1.84019
1.84001
1.83977
1.83938
1.839
1.8384
1.83788
1.83707
1.83642
1.83538
1.83463
1.83336
1.83249
1.83104
1.82999
1.82845
1.82706
1.8257
1.82367
1.82276
1.81992
1.81966
1.8157
1.83842
1.83834
1.83816
1.83793
1.83754
1.83716
1.83657
1.83606
1.83526
1.83462
1.83359
1.83285
1.8316
1.83074
1.8293
1.82827
1.82673
1.8254
1.82401
1.82205
1.82111
1.81832
1.81804
1.81414
1.83627
1.8362
1.83602
1.83579
1.83541
1.83503
1.83445
1.83395
1.83315
1.83253
1.83152
1.83078
1.82955
1.82871
1.82728
1.82628
1.82474
1.82346
1.82205
1.82016
1.81919
1.81646
1.81616
1.81232
1.83383
1.83376
1.83358
1.83335
1.83298
1.83261
1.83203
1.83154
1.83076
1.83014
1.82914
1.82842
1.82721
1.82638
1.82497
1.82399
1.82247
1.82122
1.8198
1.81798
1.81699
1.81433
1.81401
1.81024
1.83109
1.83102
1.83084
1.83062
1.83025
1.82989
1.82932
1.82883
1.82807
1.82746
1.82648
1.82577
1.82458
1.82377
1.82238
1.82142
1.81991
1.81871
1.81728
1.81553
1.81451
1.81193
1.81159
1.80789
1.82805
1.82798
1.82781
1.82759
1.82723
1.82687
1.82632
1.82584
1.82508
1.82449
1.82352
1.82283
1.82166
1.82087
1.8195
1.81857
1.81708
1.81591
1.81448
1.81279
1.81177
1.80925
1.80891
1.80528
1.82473
1.82466
1.82449
1.82427
1.82391
1.82357
1.82302
1.82255
1.82181
1.82123
1.82028
1.81961
1.81845
1.81768
1.81634
1.81543
1.81396
1.81283
1.81141
1.80978
1.80875
1.80631
1.80596
1.80241
1.8211
1.82104
1.82087
1.82066
1.82031
1.81997
1.81943
1.81898
1.81825
1.81768
1.81675
1.81609
1.81496
1.81421
1.81289
1.81201
1.81056
1.80948
1.80806
1.8065
1.80546
1.80309
1.80274
1.79927
1.81719
1.81712
1.81696
1.81675
1.81641
1.81608
1.81556
1.81511
1.8144
1.81385
1.81294
1.8123
1.81118
1.81046
1.80916
1.80831
1.80689
1.80584
1.80443
1.80294
1.80189
1.79961
1.79926
1.79587
1.81299
1.81292
1.81276
1.81256
1.81223
1.8119
1.81139
1.81096
1.81026
1.80973
1.80884
1.80822
1.80713
1.80642
1.80515
1.80433
1.80294
1.80193
1.80054
1.79911
1.79806
1.79585
1.7955
1.7922
1.80849
1.80843
1.80827
1.80808
1.80775
1.80744
1.80694
1.80652
1.80584
1.80532
1.80445
1.80385
1.80279
1.80211
1.80087
1.80008
1.79871
1.79774
1.79637
1.79501
1.79396
1.79184
1.79148
1.78827
1.80371
1.80365
1.80349
1.8033
1.80299
1.80268
1.8022
1.80179
1.80113
1.80063
1.79979
1.79921
1.79817
1.79752
1.79631
1.79555
1.79421
1.79328
1.79194
1.79063
1.7896
1.78755
1.78719
1.78408
1.79864
1.79858
1.79843
1.79824
1.79794
1.79765
1.79717
1.79678
1.79614
1.79566
1.79484
1.79428
1.79328
1.79265
1.79147
1.79074
1.78944
1.78855
1.78723
1.78599
1.78496
1.783
1.78264
1.77962
1.79328
1.79322
1.79308
1.7929
1.7926
1.79232
1.79186
1.79149
1.79087
1.79041
1.78961
1.78908
1.7881
1.7875
1.78636
1.78566
1.7844
1.78355
1.78226
1.78109
1.78006
1.77819
1.77783
1.7749
1.78764
1.78758
1.78744
1.78727
1.78699
1.78672
1.78627
1.78592
1.78532
1.78488
1.78411
1.7836
1.78266
1.78209
1.78098
1.78032
1.77909
1.77828
1.77703
1.77591
1.7749
1.77311
1.77275
1.76992
1.78172
1.78166
1.78153
1.78137
1.78109
1.78083
1.78041
1.78007
1.77949
1.77907
1.77832
1.77785
1.77693
1.7764
1.77532
1.7747
1.77351
1.77274
1.77153
1.77047
1.76948
1.76778
1.76742
1.76469
1.77552
1.77546
1.77533
1.77518
1.77491
1.77467
1.77426
1.77394
1.77338
1.77299
1.77227
1.77182
1.77094
1.77043
1.7694
1.76881
1.76766
1.76694
1.76577
1.76477
1.7638
1.76218
1.76183
1.7592
1.76904
1.76898
1.76886
1.76871
1.76846
1.76823
1.76784
1.76754
1.767
1.76663
1.76594
1.76552
1.76467
1.7642
1.7632
1.76266
1.76155
1.76087
1.75974
1.7588
1.75785
1.75632
1.75598
1.75345
1.76228
1.76223
1.76211
1.76197
1.76173
1.76152
1.76114
1.76086
1.76035
1.76001
1.75934
1.75895
1.75814
1.7577
1.75674
1.75624
1.75517
1.75454
1.75345
1.75257
1.75165
1.75021
1.74988
1.74746
1.75526
1.75521
1.75509
1.75496
1.75473
1.75453
1.75418
1.75391
1.75343
1.75311
1.75248
1.75212
1.75134
1.75094
1.75002
1.74955
1.74853
1.74795
1.7469
1.74608
1.74519
1.74383
1.74353
1.7412
1.74796
1.74791
1.74781
1.74768
1.74747
1.74728
1.74694
1.7467
1.74624
1.74595
1.74535
1.74502
1.74427
1.74391
1.74303
1.74261
1.74162
1.74109
1.74009
1.73933
1.73848
1.73721
1.73691
1.73469
1.7404
1.74036
1.74026
1.74014
1.73994
1.73976
1.73945
1.73922
1.73879
1.73852
1.73795
1.73766
1.73695
1.73662
1.73578
1.7354
1.73446
1.73398
1.73303
1.73232
1.73151
1.73032
1.73004
1.72793
1.73259
1.73254
1.73245
1.73234
1.73214
1.73199
1.73169
1.73149
1.73107
1.73084
1.7303
1.73004
1.72936
1.72907
1.72828
1.72794
1.72705
1.72661
1.7257
1.72506
1.72428
1.72319
1.72292
1.72093
1.72451
1.72446
1.72438
1.72428
1.7241
1.72395
1.72367
1.72349
1.7231
1.72289
1.72239
1.72216
1.72152
1.72127
1.72051
1.72022
1.71937
1.71899
1.71813
1.71754
1.71681
1.7158
1.71555
1.71367
1.71618
1.71614
1.71605
1.71596
1.71579
1.71567
1.7154
1.71524
1.71488
1.7147
1.71422
1.71402
1.71342
1.71321
1.7125
1.71225
1.71145
1.71112
1.7103
1.70978
1.70909
1.70816
1.70793
1.70616
1.7076
1.70756
1.70748
1.7074
1.70724
1.70713
1.70688
1.70675
1.70641
1.70625
1.7058
1.70564
1.70507
1.7049
1.70423
1.70403
1.70327
1.70299
1.70223
1.70176
1.70112
1.70027
1.70006
1.6984
1.69877
1.69873
1.69866
1.69859
1.69845
1.69835
1.69812
1.698
1.69769
1.69756
1.69714
1.697
1.69648
1.69634
1.69571
1.69555
1.69484
1.69461
1.6939
1.69349
1.6929
1.69213
1.69194
1.69039
1.68971
1.68967
1.6896
1.68954
1.68941
1.68932
1.68911
1.68901
1.68872
1.68862
1.68823
1.68813
1.68763
1.68754
1.68695
1.68683
1.68617
1.68599
1.68532
1.68498
1.68443
1.68374
1.68357
1.68214
1.6804
1.68036
1.68031
1.68025
1.68013
1.68006
1.67987
1.67979
1.67952
1.67944
1.67908
1.67901
1.67855
1.67849
1.67794
1.67787
1.67725
1.67712
1.6765
1.67622
1.67572
1.67511
1.67496
1.67365
1.67086
1.67083
1.67077
1.67072
1.67061
1.67056
1.67038
1.67032
1.67008
1.67002
1.6697
1.66966
1.66923
1.66921
1.6687
1.66867
1.66809
1.66802
1.66744
1.66722
1.66677
1.66623
1.66612
1.66491
1.66109
1.66106
1.66101
1.66097
1.66087
1.66083
1.66067
1.66063
1.66041
1.66038
1.66008
1.66007
1.65968
1.65969
1.65921
1.65924
1.65869
1.65867
1.65814
1.65798
1.65757
1.65711
1.65703
1.65594
1.6511
1.65107
1.65103
1.65099
1.6509
1.65087
1.65073
1.65071
1.65051
1.6505
1.65023
1.65025
1.64989
1.64994
1.6495
1.64957
1.64907
1.64909
1.6486
1.6485
1.64814
1.64774
1.64771
1.64673
1.64089
1.64085
1.64082
1.64079
1.64071
1.64069
1.64057
1.64056
1.64038
1.6404
1.64015
1.6402
1.63988
1.63996
1.63956
1.63967
1.63921
1.63929
1.63884
1.63879
1.63847
1.63815
1.63814
1.63728
1.63045
1.63042
1.63039
1.63036
1.6303
1.63029
1.63018
1.63019
1.63003
1.63007
1.62985
1.62993
1.62964
1.62976
1.62939
1.62954
1.62912
1.62925
1.62884
1.62886
1.62858
1.62833
1.62836
1.62759
1.6198
1.61977
1.61974
1.61973
1.61967
1.61967
1.61958
1.61961
1.61947
1.61953
1.61933
1.61944
1.61918
1.61933
1.619
1.61919
1.61881
1.61899
1.61862
1.6187
1.61846
1.61828
1.61835
1.61767
1.60894
1.60891
1.60889
1.60887
1.60883
1.60884
1.60876
1.60881
1.60869
1.60877
1.6086
1.60874
1.6085
1.60869
1.60839
1.60863
1.60828
1.60851
1.60818
1.60832
1.60812
1.60801
1.60811
1.60752
1.59786
1.59784
1.59782
1.59781
1.59778
1.5978
1.59774
1.5978
1.5977
1.5978
1.59766
1.59782
1.59762
1.59784
1.59757
1.59785
1.59753
1.59781
1.59752
1.59772
1.59755
1.59752
1.59766
1.59716
1.58659
1.58656
1.58655
1.58655
1.58652
1.58656
1.58651
1.58658
1.58651
1.58663
1.58651
1.5867
1.58652
1.58677
1.58653
1.58685
1.58657
1.58691
1.58664
1.58691
1.58677
1.58682
1.58697
1.58658
1.57511
1.57508
1.57507
1.57508
1.57506
1.57511
1.57508
1.57517
1.57511
1.57525
1.57516
1.57537
1.57522
1.57551
1.5753
1.57566
1.5754
1.57579
1.57555
1.57588
1.57577
1.57589
1.57607
1.57578
1.56343
1.56341
1.5634
1.56341
1.56341
1.56346
1.56344
1.56355
1.56351
1.56368
1.5636
1.56384
1.56372
1.56404
1.56386
1.56426
1.56404
1.56447
1.56426
1.56465
1.56456
1.56477
1.56496
1.56477
1.55156
1.55154
1.55154
1.55155
1.55156
1.55162
1.55162
1.55174
1.55172
1.5519
1.55185
1.55212
1.55202
1.55237
1.55222
1.55266
1.55247
1.55295
1.55277
1.55322
1.55315
1.55344
1.55364
1.55355
1.5395
1.53948
1.53948
1.5395
1.53952
1.53959
1.5396
1.53974
1.53974
1.53994
1.53991
1.5402
1.54013
1.54051
1.54039
1.54087
1.54071
1.54124
1.54108
1.5416
1.54155
1.54192
1.54211
1.54214
1.52725
1.52724
1.52724
1.52727
1.52729
1.52738
1.5274
1.52755
1.52757
1.52779
1.52779
1.5281
1.52806
1.52847
1.52837
1.52889
1.52875
1.52933
1.5292
1.52978
1.52974
1.53021
1.53039
1.53052
1.51483
1.51481
1.51482
1.51486
1.51489
1.51498
1.51502
1.51518
1.51522
1.51546
1.51548
1.51582
1.5158
1.51624
1.51617
1.51673
1.51661
1.51724
1.51713
1.51778
1.51774
1.5183
1.51848
1.51871
1.50224
1.50222
1.50223
1.50227
1.50231
1.50241
1.50247
1.50264
1.5027
1.50296
1.503
1.50336
1.50336
1.50383
1.50379
1.50438
1.50429
1.50497
1.50487
1.5056
1.50555
1.50621
1.50638
1.5067
1.48947
1.48946
1.48948
1.48952
1.48957
1.48968
1.48974
1.48993
1.49
1.49028
1.49034
1.49072
1.49075
1.49125
1.49123
1.49186
1.49178
1.49253
1.49243
1.49324
1.49318
1.49392
1.4941
1.49451
1.47655
1.47654
1.47656
1.47661
1.47666
1.47678
1.47686
1.47706
1.47715
1.47744
1.47752
1.47793
1.47797
1.4785
1.4785
1.47918
1.4791
1.47991
1.47981
1.48069
1.48064
1.48146
1.48164
1.48214
1.46348
1.46346
1.46349
1.46354
1.4636
1.46373
1.46382
1.46403
1.46413
1.46445
1.46454
1.46497
1.46502
1.4656
1.4656
1.46633
1.46626
1.46713
1.46701
1.46798
1.46792
1.46881
1.46901
1.46959
1.45026
1.45025
1.45027
1.45033
1.4504
1.45053
1.45063
1.45086
1.45097
1.4513
1.4514
1.45186
1.45192
1.45254
1.45253
1.45332
1.45324
1.45418
1.45407
1.45509
1.45505
1.45599
1.4562
1.45686
1.4369
1.43689
1.43692
1.43698
1.43706
1.43719
1.4373
1.43754
1.43766
1.43801
1.43812
1.43861
1.43867
1.43933
1.43932
1.44016
1.44008
1.44107
1.44097
1.44203
1.44201
1.44301
1.44323
1.44396
1.42341
1.4234
1.42343
1.4235
1.42358
1.42372
1.42384
1.42408
1.42421
1.42458
1.42469
1.42522
1.42527
1.42598
1.42596
1.42685
1.42677
1.42779
1.42772
1.42881
1.42882
1.42986
1.43009
1.43089
1.4098
1.40979
1.40982
1.40989
1.40998
1.41012
1.41025
1.41051
1.41063
1.41103
1.41113
1.41169
1.41174
1.41248
1.41247
1.41338
1.41333
1.41438
1.41432
1.41545
1.41547
1.41656
1.4168
1.41766
1.39607
1.39605
1.3961
1.39616
1.39626
1.3964
1.39654
1.3968
1.39693
1.39735
1.39745
1.39803
1.39809
1.39884
1.39885
1.39977
1.39975
1.40081
1.40078
1.40193
1.40198
1.4031
1.40335
1.40428
1.38223
1.38222
1.38226
1.38232
1.38243
1.38257
1.38272
1.38298
1.38313
1.38354
1.38366
1.38424
1.38432
1.38507
1.38511
1.38604
1.38603
1.38711
1.3871
1.38828
1.38834
1.38951
1.38976
1.39075
1.36829
1.36827
1.36832
1.36838
1.36849
1.36863
1.36879
1.36904
1.36921
1.36962
1.36975
1.37034
1.37043
1.37119
1.37124
1.37218
1.37219
1.37329
1.3733
1.37449
1.37457
1.37577
1.37603
1.37707
1.35425
1.35423
1.35427
1.35434
1.35444
1.35459
1.35476
1.355
1.3552
1.35558
1.35575
1.35632
1.35643
1.3572
1.35726
1.35821
1.35824
1.35934
1.35937
1.36058
1.36067
1.3619
1.36217
1.36326
1.34011
1.34009
1.34013
1.3402
1.34031
1.34046
1.34062
1.34086
1.34107
1.34145
1.34164
1.34219
1.34233
1.34309
1.34317
1.34412
1.34417
1.34528
1.34532
1.34655
1.34666
1.34791
1.34819
1.34932
1.32587
1.32586
1.3259
1.32597
1.32607
1.32622
1.32639
1.32663
1.32685
1.32721
1.32743
1.32797
1.32813
1.32888
1.32898
1.32994
1.32999
1.33112
1.33117
1.33242
1.33253
1.33381
1.33409
1.33526
1.31155
1.31153
1.31158
1.31164
1.31175
1.3119
1.31207
1.31231
1.31254
1.31289
1.31312
1.31365
1.31384
1.31458
1.31469
1.31565
1.31572
1.31685
1.31692
1.31817
1.3183
1.3196
1.31988
1.32109
1.29714
1.29712
1.29716
1.29723
1.29734
1.29749
1.29766
1.2979
1.29813
1.29848
1.29872
1.29925
1.29945
1.30019
1.30031
1.30127
1.30135
1.30249
1.30257
1.30384
1.30397
1.30529
1.30557
1.30682
1.28263
1.28261
1.28266
1.28272
1.28283
1.28298
1.28316
1.2834
1.28364
1.28398
1.28424
1.28476
1.28497
1.28571
1.28585
1.28681
1.2869
1.28805
1.28813
1.28941
1.28955
1.29089
1.29118
1.29245
1.26804
1.26802
1.26806
1.26813
1.26824
1.26839
1.26858
1.26882
1.26906
1.26941
1.26968
1.27019
1.27042
1.27116
1.27131
1.27228
1.27238
1.27353
1.27362
1.27491
1.27506
1.27641
1.2767
1.27799
1.25336
1.25333
1.25338
1.25345
1.25357
1.25372
1.25391
1.25415
1.25441
1.25475
1.25504
1.25555
1.2558
1.25653
1.2567
1.25767
1.25777
1.25894
1.25904
1.26034
1.26049
1.26185
1.26214
1.26346
1.23859
1.23857
1.23862
1.23869
1.23881
1.23897
1.23917
1.23941
1.23968
1.24003
1.24034
1.24084
1.24111
1.24183
1.24203
1.24299
1.24311
1.24428
1.24439
1.24569
1.24585
1.24722
1.24751
1.24885
1.22375
1.22373
1.22378
1.22386
1.22399
1.22415
1.22436
1.22461
1.22489
1.22524
1.22557
1.22606
1.22637
1.22707
1.2273
1.22825
1.22839
1.22956
1.22967
1.23098
1.23115
1.23252
1.23281
1.23416
1.20887
1.20885
1.2089
1.20898
1.20911
1.20928
1.20949
1.20976
1.21004
1.2104
1.21075
1.21123
1.21157
1.21226
1.21252
1.21345
1.21361
1.21478
1.2149
1.21621
1.21638
1.21775
1.21804
1.2194
1.19396
1.19394
1.19399
1.19407
1.19421
1.19438
1.1946
1.19487
1.19516
1.19552
1.19588
1.19636
1.19672
1.19739
1.19768
1.19859
1.19878
1.19993
1.20006
1.20137
1.20154
1.20292
1.2032
1.20456
1.17906
1.17904
1.17909
1.17917
1.1793
1.17948
1.17969
1.17996
1.18025
1.18062
1.18097
1.18145
1.18182
1.18247
1.18279
1.18367
1.1839
1.18501
1.18516
1.18646
1.18663
1.188
1.18828
1.18965
1.16421
1.16419
1.16423
1.16431
1.16443
1.1646
1.1648
1.16506
1.16534
1.16569
1.16604
1.1665
1.16688
1.1675
1.16785
1.16869
1.16895
1.17002
1.1702
1.17147
1.17165
1.17301
1.17328
1.17464
1.14942
1.14939
1.14943
1.1495
1.14961
1.14976
1.14994
1.15018
1.15044
1.15077
1.1511
1.15154
1.1519
1.1525
1.15284
1.15364
1.15392
1.15495
1.15515
1.1564
1.15657
1.15793
1.15819
1.15955
1.13469
1.13466
1.13469
1.13474
1.13483
1.13496
1.13512
1.13533
1.13556
1.13586
1.13616
1.13656
1.13689
1.13745
1.13778
1.13853
1.13881
1.1398
1.14001
1.14123
1.14139
1.14275
1.143
1.14435
1.11999
1.11996
1.11997
1.12001
1.12008
1.12019
1.12032
1.1205
1.1207
1.12095
1.12121
1.12157
1.12187
1.12238
1.12267
1.12337
1.12363
1.12457
1.12477
1.12595
1.12611
1.12746
1.12769
1.12906
1.10525
1.10521
1.10522
1.10524
1.1053
1.10538
1.10549
1.10564
1.1058
1.10602
1.10625
1.10656
1.10682
1.10728
1.10752
1.10818
1.10839
1.10928
1.10943
1.11059
1.1107
1.11205
1.11225
1.11364
1.09036
1.09031
1.09032
1.09032
1.09038
1.09044
1.09055
1.09067
1.09083
1.09101
1.09122
1.09149
1.09172
1.09214
1.09232
1.09298
1.09307
1.09399
1.09402
1.09518
1.0952
1.09653
1.09669
1.09805
1.07518
1.07513
1.07514
1.07514
1.07521
1.07527
1.07538
1.07549
1.07565
1.07583
1.07603
1.07629
1.07652
1.0769
1.07707
1.07772
1.07773
1.07868
1.0786
1.07976
1.07969
1.08098
1.08107
1.08233
1.05957
1.05952
1.05953
1.05956
1.05962
1.05971
1.05983
1.05998
1.06015
1.06036
1.06058
1.06086
1.06111
1.06149
1.0617
1.06231
1.06236
1.06327
1.06318
1.06433
1.0642
1.06549
1.0655
1.0667
1.0434
1.04336
1.04338
1.04343
1.04352
1.04364
1.04379
1.04399
1.04421
1.04447
1.04474
1.04508
1.04538
1.0458
1.0461
1.04669
1.04685
1.04772
1.04769
1.04886
1.0487
1.05004
1.04999
1.0512
1.0266
1.02656
1.0266
1.02666
1.02678
1.02694
1.02715
1.0274
1.02768
1.02801
1.02837
1.02878
1.02918
1.02968
1.03009
1.03075
1.03103
1.03195
1.03201
1.03326
1.03311
1.03454
1.03446
1.03577
1.00912
1.00907
1.00913
1.00921
1.00937
1.00957
1.00983
1.01013
1.0105
1.01089
1.01135
1.01184
1.01237
1.01298
1.01352
1.0143
1.01472
1.0158
1.01595
1.01737
1.01729
1.01889
1.01881
1.02029
0.990971
0.990925
0.990999
0.991097
0.991281
0.991513
0.991818
0.99217
0.992602
0.993064
0.993617
0.994198
0.994844
0.995565
0.996256
0.997155
0.99777
0.999001
0.999348
1.00097
1.00104
1.00289
1.00287
1.00463
0.97223
0.97219
0.972261
0.972383
0.972576
0.972842
0.973167
0.973569
0.974032
0.974567
0.975163
0.975839
0.976555
0.977382
0.978198
0.979195
0.980044
0.98133
0.982008
0.983731
0.984106
0.986241
0.98639
0.988582
0.952998
0.952961
0.953031
0.953162
0.953362
0.953642
0.953982
0.954405
0.954892
0.955458
0.95609
0.956809
0.957578
0.958464
0.959359
0.960431
0.961424
0.962743
0.963739
0.965443
0.966241
0.968524
0.968976
0.971733
0.933396
0.933361
0.933427
0.933559
0.933759
0.93404
0.934383
0.93481
0.935303
0.935874
0.936518
0.937247
0.938035
0.938936
0.939864
0.940958
0.942009
0.943349
0.944473
0.946152
0.94725
0.94949
0.95027
0.953473
0.913553
0.913515
0.913578
0.913704
0.913898
0.914171
0.914508
0.914923
0.915409
0.915966
0.916602
0.917314
0.918095
0.918976
0.919898
0.920968
0.922016
0.92333
0.924454
0.926103
0.927213
0.929406
0.930234
0.933432
0.893589
0.893547
0.893604
0.893721
0.893906
0.894164
0.894487
0.894881
0.89535
0.89588
0.896495
0.897172
0.897928
0.898766
0.899659
0.900676
0.901692
0.902941
0.904009
0.905603
0.9066
0.908746
0.909444
0.91238
0.87361
0.873563
0.873614
0.873719
0.873891
0.874131
0.874436
0.874804
0.875249
0.875743
0.87633
0.876961
0.877683
0.878465
0.879316
0.880265
0.881233
0.882394
0.883408
0.884899
0.885819
0.88784
0.888478
0.891196
0.853707
0.853653
0.853698
0.85379
0.853949
0.854167
0.854452
0.854788
0.855208
0.855661
0.856217
0.856794
0.857479
0.858195
0.859002
0.859875
0.860788
0.861856
0.862808
0.864191
0.865041
0.866913
0.867511
0.870021
0.833953
0.833891
0.833935
0.834007
0.834159
0.834347
0.834618
0.834915
0.835315
0.835714
0.836248
0.836757
0.837416
0.83805
0.838822
0.839605
0.840468
0.841434
0.842331
0.843601
0.844389
0.846104
0.846668
0.848971
0.814408
0.814341
0.814384
0.814434
0.814581
0.814736
0.814997
0.815247
0.815636
0.815971
0.816493
0.81692
0.817567
0.818102
0.818857
0.81953
0.820361
0.821222
0.822055
0.823214
0.823949
0.825503
0.826039
0.828133
0.795124
0.795054
0.795089
0.795129
0.795257
0.795395
0.795629
0.795852
0.796208
0.796503
0.796988
0.79736
0.79797
0.798429
0.799149
0.799724
0.800518
0.801268
0.802057
0.803096
0.803783
0.805174
0.805686
0.807575
0.77614
0.776069
0.776092
0.776128
0.77623
0.776362
0.776557
0.776769
0.777073
0.777353
0.777775
0.778122
0.778662
0.779083
0.779733
0.780248
0.780979
0.781634
0.782387
0.783284
0.783936
0.785169
0.78566
0.787346
0.757488
0.757415
0.757428
0.757459
0.75754
0.757659
0.757824
0.758017
0.75828
0.758536
0.758904
0.759223
0.759697
0.760083
0.760659
0.761123
0.761786
0.762356
0.763067
0.763819
0.76445
0.765527
0.765998
0.767487
0.739192
0.739119
0.739123
0.739146
0.73921
0.739314
0.739454
0.739624
0.739853
0.740079
0.740403
0.740686
0.741106
0.741446
0.741962
0.742367
0.742969
0.743459
0.74412
0.744742
0.74536
0.746278
0.746729
0.748026
0.721273
0.721199
0.721196
0.721212
0.72126
0.721349
0.721465
0.721612
0.72181
0.722005
0.72229
0.722534
0.722906
0.723199
0.72366
0.724006
0.72455
0.724961
0.72557
0.726083
0.726682
0.727439
0.727874
0.728986
0.703747
0.703672
0.703663
0.70367
0.703706
0.703777
0.703875
0.703997
0.704167
0.704331
0.70458
0.704785
0.705114
0.705359
0.70577
0.706057
0.706546
0.706884
0.707439
0.707853
0.708426
0.70903
0.709453
0.710384
0.686625
0.686551
0.686534
0.686536
0.686555
0.686617
0.686689
0.686794
0.686934
0.68707
0.687284
0.687452
0.68774
0.687939
0.688302
0.688534
0.688971
0.689239
0.689742
0.690067
0.690601
0.691061
0.69148
0.692237
0.669916
0.669841
0.669822
0.669811
0.669828
0.669865
0.669929
0.670003
0.670125
0.670228
0.670413
0.670544
0.670793
0.670948
0.671267
0.671444
0.671833
0.672035
0.672488
0.672729
0.67322
0.673554
0.673961
0.674559
0.653627
0.653554
0.653526
0.653516
0.653511
0.653547
0.653581
0.653647
0.653736
0.653818
0.653969
0.654067
0.654279
0.654393
0.654669
0.654795
0.655137
0.655276
0.65568
0.655843
0.65629
0.656512
0.65691
0.657353
0.637762
0.637688
0.63766
0.637636
0.637633
0.637641
0.637675
0.637707
0.637785
0.637834
0.637962
0.638024
0.638203
0.638276
0.638513
0.63859
0.638889
0.638968
0.639327
0.639414
0.639817
0.639943
0.640328
0.640621
0.622323
0.62225
0.622217
0.62219
0.622173
0.622176
0.622186
0.622209
0.622259
0.622289
0.622386
0.62242
0.622566
0.622602
0.622801
0.622832
0.623089
0.623112
0.623428
0.623447
0.623809
0.623846
0.62421
0.624364
0.60731
0.607237
0.607205
0.607166
0.607149
0.60713
0.607138
0.607132
0.607173
0.607172
0.607249
0.607252
0.607369
0.607368
0.607532
0.60752
0.607739
0.607708
0.607985
0.607937
0.608263
0.608218
0.608554
0.608581
0.592723
0.592653
0.592613
0.592576
0.592542
0.592524
0.592508
0.592496
0.59251
0.592495
0.592544
0.592522
0.592609
0.592575
0.592706
0.592652
0.592835
0.592754
0.592993
0.592884
0.593172
0.593049
0.593358
0.59327
0.57856
0.578489
0.578454
0.578399
0.578376
0.578327
0.578321
0.578275
0.578287
0.578241
0.578274
0.578223
0.578285
0.578219
0.578319
0.578228
0.578375
0.578247
0.57845
0.578282
0.578536
0.578338
0.578618
0.578429
0.564816
0.56475
0.564704
0.564661
0.56461
0.564577
0.564535
0.564497
0.564476
0.564423
0.564429
0.564358
0.564393
0.564299
0.56437
0.564242
0.564358
0.564186
0.564355
0.564132
0.564354
0.564085
0.564341
0.564056
0.55149
0.551421
0.551386
0.551317
0.55129
0.551214
0.551197
0.551115
0.551104
0.551018
0.551014
0.550916
0.550931
0.550808
0.550852
0.550691
0.550777
0.550565
0.550703
0.550429
0.550623
0.550288
0.550523
0.550149
0.538573
0.53851
0.538462
0.538411
0.53835
0.538301
0.538239
0.538177
0.538128
0.538043
0.538011
0.537899
0.537889
0.537742
0.537762
0.53757
0.537629
0.537379
0.537489
0.537168
0.537336
0.53694
0.537158
0.5367
0.526063
0.525997
0.52596
0.525885
0.525848
0.525758
0.525723
0.525619
0.525583
0.525465
0.525429
0.525291
0.525266
0.525094
0.525091
0.524871
0.524906
0.52462
0.524706
0.524341
0.524487
0.524034
0.524238
0.523703
0.513949
0.51389
0.513842
0.513781
0.513718
0.513647
0.513578
0.513489
0.51342
0.513305
0.513244
0.513096
0.513049
0.512857
0.512834
0.512588
0.512599
0.512282
0.512344
0.51194
0.512065
0.511561
0.511752
0.511147
0.502229
0.502168
0.502126
0.502052
0.501999
0.501908
0.501848
0.501734
0.501669
0.501531
0.501465
0.501295
0.501235
0.501023
0.50098
0.50071
0.500701
0.500355
0.500397
0.499956
0.500062
0.499511
0.499689
0.499023
0.49089
0.490833
0.490788
0.490716
0.490657
0.490563
0.490493
0.490376
0.490297
0.490152
0.49007
0.489888
0.489812
0.489583
0.489523
0.489231
0.489203
0.488831
0.488852
0.488378
0.488467
0.487874
0.488042
0.487315
0.479928
0.479873
0.479826
0.479756
0.479688
0.479598
0.479514
0.479397
0.479304
0.479152
0.479057
0.478863
0.478773
0.478528
0.478451
0.47814
0.478095
0.477697
0.477702
0.477197
0.477271
0.476637
0.476794
0.47602
0.469333
0.46928
0.469236
0.469158
0.469098
0.46899
0.468916
0.468778
0.46869
0.468519
0.46842
0.468211
0.468109
0.467849
0.467758
0.467429
0.467367
0.466949
0.466934
0.466403
0.466462
0.465793
0.465941
0.465118
0.459097
0.459047
0.458999
0.458929
0.458853
0.458758
0.458661
0.458536
0.458424
0.458258
0.458141
0.457926
0.45781
0.457537
0.457432
0.457087
0.45701
0.456571
0.456542
0.455987
0.45603
0.455329
0.455467
0.454602
0.449212
0.449163
0.449118
0.44904
0.448974
0.448862
0.448777
0.448629
0.448527
0.44834
0.448224
0.447993
0.447869
0.447583
0.447466
0.447106
0.447014
0.446559
0.446514
0.445936
0.445966
0.445237
0.445365
0.44446
0.439668
0.439623
0.439574
0.439503
0.439425
0.439322
0.43922
0.439081
0.43896
0.438778
0.438646
0.438411
0.438275
0.437978
0.437849
0.437476
0.437371
0.4369
0.43684
0.436244
0.436259
0.435505
0.435623
0.434683
0.430459
0.430414
0.43037
0.430291
0.43022
0.430105
0.43001
0.429856
0.42974
0.429544
0.42941
0.429164
0.429021
0.428714
0.428574
0.428189
0.428072
0.427586
0.427513
0.426899
0.426901
0.426124
0.426234
0.425257
0.421573
0.421532
0.421483
0.421412
0.421331
0.421223
0.421116
0.420966
0.42084
0.420642
0.420499
0.420247
0.420096
0.41978
0.419631
0.419235
0.419107
0.418608
0.418523
0.417895
0.417883
0.417087
0.417184
0.416181
0.413005
0.412963
0.41292
0.41284
0.412768
0.412648
0.412548
0.412388
0.412261
0.412056
0.411909
0.41165
0.411493
0.411168
0.411012
0.410605
0.410468
0.409958
0.409863
0.409219
0.409197
0.408385
0.408472
0.407444
0.404743
0.404705
0.404657
0.404585
0.404502
0.404391
0.40428
0.404123
0.403989
0.403782
0.40363
0.403365
0.403202
0.402869
0.402707
0.40229
0.402147
0.401624
0.401522
0.400866
0.400836
0.400008
0.400089
0.399042
0.39678
0.396743
0.396698
0.396622
0.396544
0.396425
0.396318
0.396154
0.396021
0.395807
0.395652
0.395381
0.395214
0.394874
0.394707
0.394282
0.394133
0.393599
0.393494
0.392823
0.39279
0.391947
0.392023
0.390964
0.389107
0.389072
0.389027
0.388952
0.388873
0.388754
0.388644
0.38848
0.388342
0.388126
0.387967
0.387692
0.38752
0.387174
0.387003
0.38657
0.386416
0.385874
0.385763
0.385082
0.385045
0.38419
0.384263
0.383192
0.381717
0.381683
0.381638
0.381564
0.381483
0.381365
0.381252
0.381087
0.380947
0.380728
0.380566
0.380287
0.380111
0.379761
0.379585
0.379146
0.378987
0.378438
0.378323
0.377633
0.377591
0.376727
0.376795
0.375716
0.3746
0.374568
0.374524
0.374448
0.374369
0.374248
0.374137
0.373967
0.373827
0.373604
0.373441
0.373158
0.372979
0.372624
0.372444
0.372
0.371837
0.371283
0.371161
0.370466
0.370419
0.369548
0.369611
0.368523
0.367748
0.367718
0.367674
0.367599
0.367519
0.367398
0.367285
0.367116
0.366972
0.366749
0.366582
0.366297
0.366115
0.365757
0.365573
0.365125
0.364957
0.364398
0.364272
0.363572
0.363518
0.362642
0.362698
0.361605
0.361155
0.361126
0.361081
0.361009
0.360926
0.360808
0.360691
0.360522
0.360377
0.360151
0.359983
0.359695
0.359511
0.359149
0.358962
0.358511
0.358339
0.357777
0.357645
0.356941
0.356881
0.356002
0.356052
0.354952
0.354811
0.354783
0.354741
0.354665
0.354588
0.354462
0.354352
0.354176
0.354034
0.353804
0.353636
0.353345
0.353159
0.352795
0.352604
0.352151
0.351975
0.351409
0.351273
0.350566
0.3505
0.349618
0.349663
0.348558
0.34871
0.348684
0.34864
0.348569
0.348485
0.348367
0.348248
0.348079
0.34793
0.347703
0.347531
0.347239
0.347051
0.346684
0.346492
0.346036
0.345857
0.34529
0.345149
0.34444
0.344371
0.343481
0.343524
0.342415
0.342844
0.342818
0.342778
0.342701
0.342626
0.342498
0.34239
0.342209
0.342069
0.341834
0.341666
0.341369
0.341182
0.340812
0.340619
0.34016
0.339978
0.339408
0.339264
0.338553
0.33848
0.337589
0.337626
0.336516
0.337207
0.337183
0.337139
0.337069
0.336986
0.336868
0.336749
0.336578
0.336429
0.336198
0.336027
0.33573
0.335541
0.335169
0.334976
0.334514
0.334332
0.333759
0.333614
0.332899
0.332824
0.331932
0.331966
0.330853
0.331791
0.331766
0.331728
0.331651
0.331577
0.331448
0.331341
0.331158
0.331018
0.33078
0.330613
0.330311
0.330125
0.329749
0.329558
0.329092
0.328911
0.328334
0.32819
0.327472
0.327394
0.326502
0.326533
0.325422
0.32659
0.326567
0.326525
0.326455
0.326373
0.326254
0.326137
0.325963
0.325817
0.325581
0.325413
0.32511
0.324925
0.324545
0.324357
0.323886
0.323709
0.323127
0.322986
0.322263
0.32219
0.32129
0.321322
0.320212
0.321597
0.321574
0.321536
0.32146
0.321387
0.321257
0.321151
0.320967
0.32083
0.320587
0.320424
0.320116
0.319936
0.319551
0.319367
0.31889
0.318718
0.31813
0.317993
0.317266
0.317198
0.316294
0.316327
0.31522
0.316806
0.316785
0.316744
0.316673
0.316595
0.316472
0.31636
0.316181
0.31604
0.315799
0.315637
0.315326
0.315149
0.314759
0.314581
0.314098
0.313933
0.313337
0.31321
0.312472
0.312414
0.311505
0.311538
0.310436
0.312212
0.31219
0.312152
0.312078
0.312004
0.311877
0.31177
0.311586
0.311451
0.311204
0.311047
0.310732
0.310561
0.310165
0.309993
0.309503
0.309346
0.308742
0.308623
0.307879
0.307827
0.306917
0.306951
0.305854
0.307807
0.307786
0.307749
0.307675
0.307602
0.307474
0.307369
0.307183
0.307051
0.306802
0.306648
0.306329
0.306163
0.305762
0.305596
0.305099
0.30495
0.304339
0.304229
0.303479
0.303431
0.302521
0.302554
0.301464
0.303588
0.303567
0.30353
0.303457
0.303383
0.303257
0.303151
0.302966
0.302834
0.302585
0.302433
0.302112
0.301949
0.301545
0.301384
0.300883
0.300741
0.300123
0.30002
0.299265
0.299223
0.298311
0.298345
0.297258
0.299548
0.299527
0.299492
0.299416
0.299347
0.299215
0.299117
0.298925
0.2988
0.298545
0.2984
0.298073
0.297917
0.297508
0.297353
0.296846
0.296712
0.296087
0.295994
0.295232
0.295193
0.294284
0.294315
0.293234
0.295682
0.295662
0.295625
0.295553
0.29548
0.295354
0.29525
0.295063
0.294937
0.294682
0.29454
0.294208
0.29406
0.293643
0.293499
0.292982
0.29286
0.292226
0.292141
0.291376
0.291341
0.290432
0.290463
0.289387
0.291985
0.291964
0.291931
0.291853
0.29179
0.291652
0.291562
0.291362
0.291249
0.290983
0.290852
0.290511
0.290375
0.289946
0.289816
0.289287
0.289178
0.288536
0.288457
0.287692
0.287657
0.286753
0.286781
0.285714
0.288453
0.288433
0.288398
0.288324
0.288256
0.288124
0.288029
0.287834
0.28772
0.287452
0.287328
0.286979
0.286854
0.286415
0.286297
0.285759
0.285659
0.285012
0.284939
0.284173
0.28414
0.283239
0.283266
0.282206
0.285081
0.28506
0.285028
0.284948
0.28489
0.284747
0.284666
0.284457
0.284358
0.284077
0.283967
0.283606
0.283493
0.283045
0.282937
0.282393
0.282299
0.281651
0.281579
0.280817
0.280782
0.279887
0.279911
0.278859
0.281864