/*--------------------------------*- C++ -*----------------------------------*\
  =========                 |
  \\      /  F ield         | OpenFOAM: The Open Source CFD Toolbox
   \\    /   O peration     | Website:  https://openfoam.org
    \\  /    A nd           | Version:  10
     \\/     M anipulation  |
\*---------------------------------------------------------------------------*/
FoamFile
{
    format      ascii;
    class       volScalarField;
    location    "0.22";
    object      p;
}
// * * * * * * * * * * * * * * * * * * * * * * * * * * * * * * * * * * * * * //

dimensions      [1 -1 -2 0 0 0 0];

internalField   nonuniform List<scalar> 
4176
(
1600.64
1600.83
1601.34
1601.97
1603.04
1604.05
1605.69
1607.08
1609.27
1611.05
1613.76
1615.98
1619.1
1621.86
1625.24
1628.74
1632.02
1636.67
1639.62
1645.62
1647.96
1655.58
1656.77
1665.5
1601.13
1601.32
1601.78
1602.39
1603.35
1604.35
1605.82
1607.19
1609.17
1610.91
1613.38
1615.51
1618.41
1621.01
1624.21
1627.44
1630.59
1634.87
1637.69
1643.24
1645.35
1652.8
1654.04
1663.82
1602.38
1602.57
1603.04
1603.67
1604.64
1605.66
1607.16
1608.56
1610.58
1612.34
1614.87
1617.03
1620.02
1622.64
1625.94
1629.22
1632.48
1636.85
1639.66
1645.38
1647.46
1654.8
1655.95
1665.41
1604.33
1604.52
1604.98
1605.59
1606.55
1607.54
1609.02
1610.37
1612.37
1614.08
1616.59
1618.68
1621.65
1624.18
1627.48
1630.65
1633.91
1638.3
1640.83
1646.71
1648.65
1655.89
1656.95
1665.81
1607.04
1607.23
1607.69
1608.3
1609.25
1610.25
1611.71
1613.08
1615.05
1616.78
1619.26
1621.36
1624.31
1626.84
1630.14
1633.26
1636.64
1640.85
1643.55
1649.34
1651.36
1658.55
1659.7
1668.54
1610.49
1610.68
1611.13
1611.74
1612.68
1613.67
1615.11
1616.47
1618.41
1620.13
1622.57
1624.66
1627.56
1630.07
1633.34
1636.4
1639.82
1643.83
1646.76
1652.29
1654.37
1661.49
1662.71
1671.64
1614.7
1614.89
1615.34
1615.94
1616.87
1617.86
1619.28
1620.63
1622.55
1624.26
1626.67
1628.74
1631.63
1634.11
1637.37
1640.37
1643.81
1647.69
1650.71
1656.09
1658.26
1665.27
1666.53
1675.35
1619.67
1619.85
1620.3
1620.89
1621.81
1622.79
1624.19
1625.53
1627.43
1629.12
1631.51
1633.55
1636.41
1638.85
1642.09
1645.03
1648.47
1652.23
1655.34
1660.54
1662.79
1669.69
1670.98
1679.7
1625.39
1625.57
1626.01
1626.6
1627.51
1628.48
1629.86
1631.19
1633.06
1634.73
1637.1
1639.12
1641.94
1644.35
1647.57
1650.45
1653.89
1657.53
1660.7
1665.73
1668.06
1674.82
1676.15
1684.75
1631.87
1632.05
1632.49
1633.07
1633.97
1634.93
1636.3
1637.61
1639.46
1641.11
1643.44
1645.43
1648.23
1650.59
1653.78
1656.61
1660.04
1663.57
1666.79
1671.65
1674.04
1680.65
1682.02
1690.49
1639.12
1639.3
1639.73
1640.31
1641.19
1642.14
1643.49
1644.79
1646.61
1648.24
1650.54
1652.5
1655.27
1657.59
1660.75
1663.51
1666.93
1670.35
1673.61
1678.31
1680.78
1687.19
1688.61
1696.94
1647.14
1647.33
1647.75
1648.32
1649.19
1650.13
1651.46
1652.74
1654.54
1656.14
1658.41
1660.34
1663.07
1665.34
1668.47
1671.17
1674.56
1677.89
1681.18
1685.71
1688.22
1694.47
1695.91
1704.09
1655.95
1656.13
1656.55
1657.12
1657.97
1658.9
1660.21
1661.46
1663.24
1664.81
1667.05
1668.94
1671.64
1673.86
1676.95
1679.59
1682.96
1686.18
1689.49
1693.86
1696.41
1702.48
1703.94
1711.96
1665.55
1665.74
1666.14
1666.7
1667.55
1668.45
1669.74
1670.97
1672.72
1674.27
1676.47
1678.33
1680.98
1683.16
1686.21
1688.77
1692.11
1695.24
1698.55
1702.75
1705.35
1711.24
1712.7
1720.56
1675.96
1676.14
1676.54
1677.09
1677.92
1678.81
1680.07
1681.28
1683
1684.51
1686.68
1688.49
1691.11
1693.23
1696.24
1698.74
1702.03
1705.06
1708.37
1712.41
1715.05
1720.75
1722.21
1729.9
1687.17
1687.35
1687.75
1688.29
1689.1
1689.97
1691.21
1692.39
1694.08
1695.56
1697.69
1699.46
1702.02
1704.09
1707.05
1709.48
1712.73
1715.66
1718.96
1722.84
1725.5
1731
1732.5
1739.99
1699.21
1699.39
1699.78
1700.31
1701.1
1701.95
1703.17
1704.32
1705.97
1707.41
1709.5
1711.22
1713.74
1715.75
1718.66
1721.01
1724.22
1727.05
1730.33
1734.04
1736.73
1742.03
1743.54
1750.84
1712.09
1712.26
1712.64
1713.16
1713.94
1714.77
1715.96
1717.08
1718.69
1720.09
1722.13
1723.8
1726.27
1728.22
1731.08
1733.35
1736.51
1739.23
1742.48
1746.02
1748.73
1753.83
1755.37
1762.45
1725.81
1725.99
1726.36
1726.86
1727.62
1728.43
1729.59
1730.68
1732.25
1733.61
1735.6
1737.21
1739.62
1741.51
1744.3
1746.5
1749.6
1752.22
1755.43
1758.81
1761.53
1766.42
1767.98
1774.85
1740.4
1740.57
1740.93
1741.42
1742.16
1742.94
1744.07
1745.13
1746.66
1747.97
1749.91
1751.47
1753.82
1755.63
1758.36
1760.47
1763.51
1766.02
1769.18
1772.4
1775.13
1779.81
1781.39
1788.03
1755.86
1756.03
1756.38
1756.86
1757.57
1758.33
1759.42
1760.44
1761.93
1763.19
1765.08
1766.57
1768.86
1770.6
1773.26
1775.28
1778.25
1780.65
1783.76
1786.81
1789.55
1794
1795.61
1802.02
1772.22
1772.38
1772.72
1773.18
1773.87
1774.6
1775.66
1776.64
1778.07
1779.29
1781.12
1782.55
1784.77
1786.43
1789.02
1790.94
1793.84
1796.12
1799.17
1802.07
1804.79
1809.02
1810.65
1816.82
1789.47
1789.64
1789.96
1790.4
1791.07
1791.77
1792.79
1793.72
1795.11
1796.27
1798.04
1799.4
1801.56
1803.13
1805.65
1807.47
1810.3
1812.46
1815.43
1818.17
1820.88
1824.88
1826.51
1832.44
1807.65
1807.81
1808.12
1808.55
1809.18
1809.85
1810.83
1811.72
1813.06
1814.16
1815.86
1817.16
1819.24
1820.73
1823.17
1824.89
1827.63
1829.67
1832.57
1835.14
1837.82
1841.59
1843.22
1848.9
1826.76
1826.91
1827.21
1827.62
1828.23
1828.86
1829.8
1830.64
1831.92
1832.96
1834.6
1835.82
1837.83
1839.23
1841.59
1843.2
1845.86
1847.77
1850.59
1853
1855.64
1859.17
1860.79
1866.21
1846.81
1846.96
1847.24
1847.63
1848.21
1848.81
1849.71
1850.5
1851.73
1852.7
1854.27
1855.41
1857.34
1858.65
1860.92
1862.43
1864.99
1866.77
1869.51
1871.76
1874.35
1877.65
1879.25
1884.4
1867.81
1867.96
1868.23
1868.6
1869.16
1869.72
1870.57
1871.32
1872.48
1873.39
1874.89
1875.95
1877.8
1879.01
1881.19
1882.58
1885.06
1886.7
1889.35
1891.43
1893.97
1897.02
1898.62
1903.5
1889.8
1889.94
1890.2
1890.55
1891.07
1891.6
1892.41
1893.1
1894.21
1895.05
1896.47
1897.45
1899.21
1900.32
1902.41
1903.69
1906.07
1907.58
1910.13
1912.04
1914.51
1917.31
1918.91
1923.49
1912.77
1912.91
1913.16
1913.49
1913.98
1914.47
1915.23
1915.87
1916.92
1917.69
1919.04
1919.93
1921.6
1922.61
1924.6
1925.76
1928.03
1929.4
1931.86
1933.6
1935.99
1938.54
1940.11
1944.43
1936.75
1936.89
1937.12
1937.43
1937.89
1938.35
1939.06
1939.64
1940.63
1941.33
1942.6
1943.41
1944.99
1945.89
1947.79
1948.81
1950.99
1952.21
1954.56
1956.13
1958.44
1960.74
1962.29
1966.3
1961.75
1961.89
1962.1
1962.39
1962.82
1963.24
1963.9
1964.44
1965.35
1965.99
1967.18
1967.9
1969.39
1970.19
1971.98
1972.88
1974.94
1976.01
1978.26
1979.65
1981.87
1983.92
1985.47
1989.14
1987.79
1987.92
1988.12
1988.39
1988.79
1989.17
1989.78
1990.26
1991.12
1991.68
1992.8
1993.42
1994.83
1995.51
1997.2
1997.97
1999.92
2000.84
2002.97
2004.18
2006.3
2008.12
2009.63
2012.98
2014.89
2015.01
2015.2
2015.44
2015.81
2016.15
2016.72
2017.14
2017.93
2018.42
2019.46
2019.99
2021.31
2021.88
2023.48
2024.11
2025.95
2026.71
2028.73
2029.75
2031.76
2033.34
2034.83
2037.84
2043.06
2043.18
2043.35
2043.57
2043.9
2044.21
2044.72
2045.09
2045.82
2046.23
2047.19
2047.63
2048.86
2049.32
2050.81
2051.31
2053.05
2053.64
2055.55
2056.38
2058.28
2059.62
2061.07
2063.74
2072.31
2072.43
2072.59
2072.79
2073.09
2073.35
2073.82
2074.13
2074.79
2075.13
2076.02
2076.36
2077.5
2077.84
2079.24
2079.6
2081.23
2081.66
2083.45
2084.09
2085.87
2086.97
2088.37
2090.69
2102.68
2102.79
2102.93
2103.11
2103.38
2103.61
2104.03
2104.28
2104.88
2105.14
2105.95
2106.2
2107.24
2107.47
2108.76
2108.99
2110.51
2110.78
2112.46
2112.9
2114.57
2115.43
2116.75
2118.72
2134.17
2134.28
2134.41
2134.57
2134.8
2135
2135.36
2135.57
2136.1
2136.29
2137.01
2137.17
2138.11
2138.23
2139.41
2139.5
2140.91
2141.01
2142.58
2142.83
2144.39
2145.01
2146.24
2147.86
2166.81
2166.92
2167.03
2167.17
2167.37
2167.53
2167.85
2168
2168.46
2168.58
2169.22
2169.28
2170.14
2170.13
2171.21
2171.15
2172.45
2172.39
2173.84
2173.89
2175.35
2175.73
2176.88
2178.13
2200.62
2200.72
2200.82
2200.94
2201.11
2201.23
2201.5
2201.6
2202
2202.04
2202.61
2202.57
2203.33
2203.21
2204.18
2203.98
2205.16
2204.92
2206.27
2206.11
2207.46
2207.6
2208.67
2209.56
2235.62
2235.72
2235.8
2235.9
2236.05
2236.13
2236.35
2236.39
2236.73
2236.69
2237.18
2237.05
2237.72
2237.48
2238.35
2237.99
2239.07
2238.65
2239.87
2239.5
2240.74
2240.64
2241.61
2242.18
2271.83
2271.93
2272
2272.08
2272.19
2272.23
2272.41
2272.39
2272.66
2272.56
2272.96
2272.74
2273.31
2272.95
2273.72
2273.22
2274.18
2273.58
2274.69
2274.1
2275.23
2274.86
2275.74
2276.01
2309.29
2309.38
2309.44
2309.5
2309.57
2309.58
2309.7
2309.63
2309.84
2309.66
2309.98
2309.66
2310.14
2309.66
2310.33
2309.68
2310.54
2309.74
2310.75
2309.93
2310.95
2310.31
2311.09
2311.04
2348
2348.09
2348.13
2348.17
2348.22
2348.18
2348.26
2348.13
2348.27
2348.01
2348.25
2347.84
2348.22
2347.62
2348.19
2347.38
2348.14
2347.16
2348.07
2347
2347.94
2347.01
2347.71
2347.29
2388
2388.09
2388.11
2388.13
2388.14
2388.07
2388.09
2387.91
2387.98
2387.64
2387.8
2387.29
2387.58
2386.85
2387.31
2386.36
2387.01
2385.84
2386.65
2385.35
2386.2
2384.98
2385.61
2384.82
2429.3
2429.39
2429.4
2429.4
2429.37
2429.26
2429.23
2428.99
2428.99
2428.58
2428.65
2428.03
2428.23
2427.38
2427.73
2426.62
2427.17
2425.8
2426.52
2424.98
2425.76
2424.23
2424.81
2423.66
2471.94
2472.02
2472.02
2471.99
2471.93
2471.78
2471.69
2471.39
2471.32
2470.83
2470.82
2470.1
2470.19
2469.22
2469.47
2468.2
2468.64
2467.08
2467.7
2465.91
2466.62
2464.78
2465.33
2463.78
2515.92
2516
2515.98
2515.93
2515.83
2515.64
2515.5
2515.14
2515
2514.42
2514.33
2513.51
2513.5
2512.39
2512.54
2511.11
2511.44
2509.68
2510.21
2508.16
2508.81
2506.64
2507.2
2505.21
2561.26
2561.34
2561.3
2561.23
2561.1
2560.87
2560.68
2560.25
2560.04
2559.38
2559.19
2558.27
2558.16
2556.93
2556.97
2555.37
2555.6
2553.63
2554.07
2551.76
2552.35
2549.83
2550.41
2548
2607.99
2608.07
2608.01
2607.92
2607.75
2607.48
2607.23
2606.74
2606.45
2605.72
2605.44
2604.41
2604.21
2602.83
2602.77
2601
2601.14
2598.95
2599.32
2596.71
2597.27
2594.36
2595
2592.15
2656.11
2656.19
2656.12
2656
2655.8
2655.48
2655.18
2654.63
2654.27
2653.45
2653.09
2651.94
2651.65
2650.13
2649.97
2648.02
2648.07
2645.65
2645.96
2643.05
2643.61
2640.29
2640.95
2637.69
2705.64
2705.71
2705.63
2705.49
2705.25
2704.9
2704.53
2703.92
2703.49
2702.59
2702.14
2700.89
2700.5
2698.84
2698.58
2696.45
2696.43
2693.75
2694.02
2690.78
2691.38
2687.63
2688.29
2684.64
2756.59
2756.66
2756.56
2756.4
2756.12
2755.73
2755.31
2754.64
2754.14
2753.15
2752.62
2751.25
2750.78
2748.96
2748.63
2746.29
2746.22
2743.27
2743.53
2739.91
2740.57
2736.44
2737.07
2733.02
2808.96
2809.03
2808.91
2808.73
2808.42
2807.99
2807.52
2806.78
2806.21
2805.13
2804.53
2803.05
2802.5
2800.52
2800.12
2797.56
2797.46
2794.22
2794.51
2790.51
2791.15
2786.71
2787.28
2782.86
2862.76
2862.83
2862.7
2862.5
2862.15
2861.68
2861.15
2860.36
2859.73
2858.56
2857.89
2856.28
2855.67
2853.51
2853.09
2850.27
2850.19
2846.59
2846.94
2842.62
2843.19
2838.45
2838.97
2834.17
2917.99
2918.05
2917.91
2917.69
2917.3
2916.8
2916.23
2915.38
2914.68
2913.42
2912.71
2910.95
2910.32
2907.94
2907.54
2904.42
2904.41
2900.48
2900.78
2896.22
2896.7
2891.68
2892.13
2886.98
2974.65
2974.71
2974.55
2974.32
2973.9
2973.37
2972.74
2971.83
2971.09
2969.72
2968.99
2967.05
2966.45
2963.82
2963.47
2960.07
2960.01
2955.89
2956.09
2951.32
2951.7
2946.41
2946.8
2941.29
3032.72
3032.8
3032.62
3032.38
3031.92
3031.36
3030.69
3029.72
3028.96
3027.46
3026.75
3024.59
3024.04
3021.18
3020.81
3017.25
3017.09
3012.81
3012.9
3007.92
3008.21
3002.65
3002.98
2997.12
3092.23
3092.31
3092.09
3091.87
3091.36
3090.8
3090.07
3089.04
3088.28
3086.64
3085.93
3083.65
3083.03
3080.07
3079.6
3075.92
3075.66
3071.22
3071.2
3066.03
3066.23
3060.41
3060.69
3054.48
3153.15
3153.24
3153
3152.79
3152.22
3151.67
3150.88
3149.82
3149.01
3147.31
3146.54
3144.18
3143.49
3140.43
3139.87
3136.08
3135.72
3131.14
3131.02
3125.66
3125.77
3119.7
3119.92
3113.39
3215.49
3215.58
3215.34
3215.1
3214.53
3213.95
3213.1
3212.08
3211.15
3209.43
3208.59
3206.17
3205.4
3202.27
3201.62
3197.72
3197.26
3192.55
3192.33
3186.8
3186.82
3180.53
3180.69
3173.84
3279.24
3279.34
3279.1
3278.84
3278.26
3277.66
3276.76
3275.76
3274.69
3273.04
3272.07
3269.62
3268.78
3265.58
3264.84
3260.85
3260.3
3255.47
3255.16
3249.46
3249.4
3242.88
3242.98
3235.83
3344.41
3344.51
3344.27
3344
3343.41
3342.79
3341.87
3340.85
3339.7
3338.1
3336.97
3334.56
3333.61
3330.35
3329.53
3325.46
3324.82
3319.88
3319.48
3313.62
3313.48
3306.76
3306.8
3299.37
3411
3411.1
3410.86
3410.59
3409.99
3409.35
3408.4
3407.38
3406.15
3404.58
3403.33
3400.96
3399.85
3396.6
3395.7
3391.55
3390.82
3385.77
3385.29
3379.29
3379.07
3372.15
3372.14
3364.43
3479.01
3479.12
3478.88
3478.6
3477.99
3477.35
3476.37
3475.34
3474.06
3472.49
3471.14
3468.8
3467.58
3464.31
3463.31
3459.09
3458.29
3453.13
3452.57
3446.43
3446.14
3439.04
3438.97
3431.01
3548.47
3548.58
3548.33
3548.06
3547.43
3546.78
3545.78
3544.73
3543.41
3541.85
3540.41
3538.07
3536.75
3533.46
3532.37
3528.07
3527.2
3521.94
3521.31
3515.04
3514.67
3507.41
3507.29
3499.09
3619.38
3619.49
3619.25
3618.97
3618.32
3617.67
3616.64
3615.57
3614.2
3612.64
3611.11
3608.77
3607.35
3604.04
3602.86
3598.49
3597.55
3592.19
3591.48
3585.1
3584.66
3577.23
3577.06
3568.64
3691.76
3691.88
3691.62
3691.34
3690.68
3690.01
3688.95
3687.86
3686.44
3684.87
3683.24
3680.9
3679.38
3676.03
3674.78
3670.32
3669.32
3663.85
3663.07
3656.57
3656.06
3648.49
3648.26
3639.64
3765.62
3765.75
3765.48
3765.19
3764.5
3763.81
3762.71
3761.6
3760.11
3758.52
3756.79
3754.44
3752.81
3749.42
3748.09
3743.53
3742.48
3736.9
3736.06
3729.45
3728.86
3721.15
3720.88
3712.07
3840.96
3841.1
3840.8
3840.51
3839.78
3839.06
3837.91
3836.76
3835.2
3833.57
3831.73
3829.38
3827.61
3824.2
3822.77
3818.13
3817.02
3811.33
3810.41
3803.7
3803.04
3795.22
3794.89
3785.92
3917.74
3917.88
3917.57
3917.25
3916.49
3915.72
3914.52
3913.31
3911.69
3910
3908.04
3905.69
3903.75
3900.36
3898.76
3894.1
3892.91
3887.11
3886.13
3879.32
3878.59
3870.67
3870.28
3861.17
3995.89
3996.03
3995.7
3995.35
3994.56
3993.74
3992.48
3991.21
3989.51
3987.76
3985.7
3983.34
3981.22
3977.86
3976.05
3971.45
3970.12
3964.24
3963.2
3956.3
3955.51
3947.49
3947.06
3937.83
4075.27
4075.41
4075.08
4074.7
4073.88
4073.02
4071.71
4070.38
4068.62
4066.81
4064.66
4062.27
4059.99
4056.68
4054.66
4050.13
4048.61
4042.72
4041.63
4034.66
4033.8
4025.71
4025.24
4015.9
4155.72
4155.86
4155.53
4155.13
4154.31
4153.41
4152.09
4150.72
4148.92
4147.08
4144.86
4142.46
4140.05
4136.8
4134.57
4130.14
4128.39
4122.63
4121.4
4114.38
4113.47
4105.34
4104.84
4095.42
4237.02
4237.17
4236.86
4236.46
4235.66
4234.78
4233.47
4232.11
4230.32
4228.47
4226.25
4223.86
4221.37
4218.19
4215.8
4211.5
4209.54
4203.9
4202.54
4195.52
4194.57
4186.42
4185.9
4176.42
4319
4319.16
4318.88
4318.52
4317.77
4316.94
4315.7
4314.41
4312.68
4310.9
4308.73
4306.41
4303.93
4300.85
4298.37
4294.22
4292.09
4286.6
4285.09
4278.11
4277.15
4268.96
4268.45
4258.93
4401.55
4401.73
4401.5
4401.21
4400.54
4399.81
4398.68
4397.51
4395.91
4394.27
4392.22
4390.05
4387.66
4384.73
4382.27
4378.3
4376.08
4370.77
4369.11
4362.27
4361.27
4353.04
4352.54
4342.99
4484.73
4484.93
4484.77
4484.56
4484
4483.4
4482.42
4481.41
4479.99
4478.54
4476.68
4474.72
4472.5
4469.78
4467.45
4463.71
4461.52
4456.45
4454.73
4448.01
4446.98
4438.7
4438.23
4428.61
4568.81
4569.05
4568.93
4568.82
4568.35
4567.89
4567.06
4566.23
4565
4563.77
4562.12
4560.41
4558.41
4555.95
4553.85
4550.36
4548.34
4543.53
4541.91
4535.36
4534.41
4526.07
4525.63
4515.86
4654.29
4654.58
4654.48
4654.46
4654.05
4653.72
4652.97
4652.31
4651.2
4650.18
4648.7
4647.23
4645.43
4643.23
4641.42
4638.1
4636.49
4631.76
4630.57
4624.08
4623.5
4615.17
4614.86
4604.95
4741.92
4742.28
4742.12
4742.22
4741.71
4741.55
4740.68
4740.24
4739.04
4738.25
4736.75
4735.48
4733.77
4731.73
4730.3
4726.79
4726.02
4720.83
4720.58
4713.84
4713.91
4705.73
4705.75
4696.21
4832.61
4832.94
4832.83
4832.79
4832.36
4831.99
4831.21
4830.54
4829.41
4828.43
4826.96
4825.62
4823.86
4821.99
4820.39
4817.07
4816.42
4811.3
4811.31
4804.68
4805.14
4797.1
4797.57
4788.67
4927.22
4927.52
4927.37
4927.23
4926.68
4926.14
4925.19
4924.29
4922.95
4921.7
4920.01
4918.42
4916.42
4914.41
4912.38
4909.36
4908.08
4903.29
4903.12
4896.45
4897.16
4888.95
4889.79
4880.97
5026.48
5026.76
5026.53
5026.26
5025.52
5024.75
5023.51
5022.28
5020.57
5018.92
5016.79
5014.75
5012.28
5009.84
5007.23
5003.98
5002
4997.18
4996.55
4989.57
4990.33
4981.63
4982.74
4973.54
5130.86
5131.16
5130.8
5130.41
5129.43
5128.42
5126.83
5125.24
5123.04
5120.93
5118.18
5115.58
5112.4
5109.3
5105.89
5102
5099.22
5093.74
5092.48
5084.69
5085.26
5075.7
5076.93
5066.9
5240.5
5240.84
5240.31
5239.87
5238.63
5237.42
5235.43
5233.57
5230.77
5228.34
5224.77
5221.74
5217.59
5213.82
5209.46
5204.62
5200.98
5194.09
5192.16
5183.01
5182.94
5172.06
5173.11
5161.73
5355.21
5355.5
5355
5354.34
5353.05
5351.53
5349.4
5347.08
5344.09
5340.99
5337.16
5333.29
5328.67
5324.02
5318.74
5313.21
5307.9
5300.35
5296.79
5286.3
5284.89
5272.15
5272.5
5258.96
5474.44
5474.7
5474.2
5473.45
5472.08
5470.42
5468.13
5465.59
5462.37
5458.95
5454.79
5450.48
5445.39
5440.16
5434.2
5427.95
5421.37
5413.63
5407.41
5396.82
5392.93
5378.32
5377.17
5360.35
5597.46
5597.72
5597.22
5596.43
5595.03
5593.31
5590.96
5588.32
5584.98
5581.42
5577.09
5572.57
5567.23
5561.71
5555.38
5548.73
5541.54
5533.38
5525.79
5515.3
5508.44
5493.69
5490
5469.3
5723.45
5723.7
5723.23
5722.45
5721.06
5719.35
5717.01
5714.37
5711.04
5707.46
5703.12
5698.58
5693.22
5687.65
5681.26
5674.54
5667.22
5658.99
5651.06
5640.66
5632.78
5618.6
5612.99
5590.47
5851.51
5851.8
5851.35
5850.62
5849.28
5847.63
5845.34
5842.8
5839.54
5836.08
5831.82
5827.42
5822.16
5816.75
5810.49
5803.97
5796.79
5788.79
5781.18
5770.85
5763.78
5749.47
5744.97
5724.33
5980.83
5981.15
5980.74
5980.08
5978.8
5977.26
5975.07
5972.66
5969.54
5966.25
5962.17
5957.99
5952.93
5947.8
5941.79
5935.6
5928.71
5921.13
5913.91
5904.05
5897.57
5883.83
5879.75
5860.54
6110.64
6110.99
6110.63
6110.04
6108.85
6107.43
6105.37
6103.13
6100.17
6097.12
6093.23
6089.34
6084.54
6079.75
6074.05
6068.26
6061.75
6054.68
6047.86
6038.64
6032.59
6019.74
6015.92
5998.03
6240.26
6240.67
6240.33
6239.84
6238.72
6237.46
6235.52
6233.5
6230.7
6227.92
6224.24
6220.7
6216.14
6211.77
6206.37
6201.06
6194.94
6188.43
6182.03
6173.43
6167.9
6155.95
6152.36
6135.79
6369.12
6369.58
6369.23
6368.9
6367.81
6366.76
6364.89
6363.16
6360.45
6358.06
6354.49
6351.43
6347
6343.2
6338
6333.28
6327.5
6321.6
6315.65
6307.68
6302.56
6291.61
6288.23
6273
6496.72
6497.2
6496.86
6496.67
6495.62
6494.79
6492.97
6491.56
6488.92
6486.95
6483.45
6480.94
6476.57
6473.45
6468.32
6464.38
6458.75
6453.53
6448.02
6440.77
6436
6426.06
6422.88
6408.99
6622.59
6623.09
6622.84
6622.66
6621.8
6620.98
6619.47
6618.08
6615.83
6613.95
6610.88
6608.53
6604.62
6601.77
6597.1
6593.58
6588.37
6583.81
6578.56
6572.11
6567.69
6558.77
6555.78
6543.21
6746.39
6746.9
6746.73
6746.57
6745.87
6745.13
6743.84
6742.55
6740.61
6738.85
6736.2
6733.98
6730.59
6727.91
6723.8
6720.57
6715.88
6711.84
6706.92
6701.41
6697.2
6689.28
6686.48
6675.2
6867.81
6868.32
6868.21
6868.1
6867.53
6866.88
6865.77
6864.63
6862.94
6861.36
6859.04
6857.04
6854.06
6851.64
6848
6845.1
6840.89
6837.35
6832.8
6828.17
6824.17
6817.2
6814.59
6804.58
6986.57
6987.09
6987.03
6986.97
6986.5
6985.96
6985.01
6984.03
6982.56
6981.18
6979.15
6977.39
6974.77
6972.64
6969.42
6966.9
6963.13
6960.08
6955.95
6952.03
6948.19
6942.28
6939.84
6931.07
7102.46
7102.97
7102.96
7102.95
7102.59
7102.14
7101.35
7100.52
7099.25
7098.08
7096.31
7094.8
7092.51
7090.68
7087.84
7085.69
7082.34
7079.76
7076.05
7072.78
7069.15
7064.26
7061.95
7054.38
7215.29
7215.8
7215.82
7215.88
7215.58
7215.26
7214.58
7213.93
7212.83
7211.87
7210.34
7209.08
7207.08
7205.56
7203.08
7201.27
7198.33
7196.18
7192.89
7190.2
7186.87
7182.89
7180.74
7174.3
7324.91
7325.41
7325.49
7325.56
7325.4
7325.1
7324.63
7324.05
7323.18
7322.38
7321.09
7320.07
7318.36
7317.12
7314.97
7313.51
7310.94
7309.21
7306.31
7304.14
7301.17
7298.04
7296.01
7290.64
7431.22
7431.73
7431.79
7432
7431.76
7431.74
7431.2
7430.91
7430.1
7429.54
7428.44
7427.66
7426.21
7425.24
7423.41
7422.27
7420.06
7418.72
7416.21
7414.52
7411.91
7409.52
7407.64
7403.24
7534.11
7534.6
7534.77
7534.84
7534.95
7534.68
7534.59
7534.14
7533.69
7533.18
7532.34
7531.74
7530.55
7529.83
7528.3
7527.47
7525.59
7524.63
7522.47
7521.25
7519.01
7517.22
7515.48
7512.05
7633.56
7634.06
7634.14
7634.51
7634.27
7634.57
7634.08
7634.18
7633.56
7633.41
7632.65
7632.3
7631.32
7630.85
7629.59
7629.05
7627.48
7626.86
7625.04
7624.25
7622.34
7621.12
7619.53
7617.01
7729.49
7729.95
7730.2
7730.29
7730.58
7730.38
7730.58
7730.26
7730.18
7729.91
7729.48
7729.23
7728.5
7728.25
7727.24
7726.97
7725.69
7725.4
7723.88
7723.48
7721.87
7721.15
7719.81
7718.09
7821.94
7822.42
7822.51
7822.98
7822.81
7823.3
7822.92
7823.31
7822.87
7823.06
7822.6
7822.63
7822.05
7822.02
7821.24
7821.23
7820.21
7820.22
7818.99
7818.96
7817.63
7817.37
7816.25
7815.28
7910.85
7911.27
7911.58
7911.69
7912.11
7912.01
7912.4
7912.24
7912.44
7912.38
7912.3
7912.36
7912.02
7912.16
7911.61
7911.82
7911.06
7911.34
7910.38
7910.7
7909.64
7909.82
7908.94
7908.59
7996.3
7996.76
7996.86
7997.4
7997.29
7997.92
7997.66
7998.27
7998
7998.47
7998.26
7998.61
7998.37
7998.72
7998.36
7998.79
7998.25
7998.79
7998.07
7998.71
7997.9
7998.49
7997.82
7998.04
8078.28
8078.67
8079.01
8079.15
8079.65
8079.65
8080.18
8080.17
8080.58
8080.73
8080.9
8081.24
8081.22
8081.7
8081.53
8082.15
8081.82
8082.6
8082.1
8083.03
8082.43
8083.41
8082.9
8083.66
8156.88
8157.31
8157.44
8158
8157.97
8158.67
8158.56
8159.28
8159.22
8159.86
8159.9
8160.49
8160.55
8161.2
8161.18
8161.98
8161.82
8162.82
8162.51
8163.71
8163.3
8164.62
8164.26
8165.5
8232.14
8232.49
8232.84
8233.03
8233.56
8233.67
8234.26
8234.43
8234.94
8235.31
8235.67
8236.25
8236.48
8237.24
8237.37
8238.33
8238.34
8239.52
8239.39
8240.83
8240.58
8242.21
8241.97
8243.64
8304.14
8304.54
8304.68
8305.24
8305.3
8306.02
8306.06
8306.83
8306.97
8307.71
8307.98
8308.75
8309.04
8309.94
8310.19
8311.29
8311.44
8312.8
8312.82
8314.47
8314.36
8316.27
8316.12
8318.19
8372.96
8373.28
8373.62
8373.85
8374.38
8374.61
8375.21
8375.56
8376.12
8376.69
8377.17
8377.95
8378.37
8379.36
8379.73
8380.95
8381.23
8382.74
8382.89
8384.73
8384.74
8386.9
8386.84
8389.24
8438.68
8439.04
8439.21
8439.74
8439.9
8440.58
8440.79
8441.55
8441.89
8442.69
8443.13
8444.04
8444.53
8445.61
8446.07
8447.4
8447.8
8449.44
8449.71
8451.72
8451.84
8454.21
8454.22
8456.93
8501.41
8501.7
8502.02
8502.31
8502.79
8503.15
8503.72
8504.24
8504.81
8505.54
8506.11
8507.05
8507.62
8508.78
8509.34
8510.76
8511.26
8513.02
8513.39
8515.54
8515.75
8518.31
8518.37
8521.38
8561.23
8561.54
8561.75
8562.21
8562.49
8563.1
8563.47
8564.19
8564.69
8565.53
8566.12
8567.13
8567.76
8568.99
8569.62
8571.13
8571.71
8573.57
8574.03
8576.31
8576.61
8579.35
8579.5
8582.62
8618.25
8618.52
8618.79
8619.14
8619.57
8620.04
8620.57
8621.21
8621.81
8622.65
8623.3
8624.35
8625.04
8626.33
8627.03
8628.61
8629.27
8631.21
8631.76
8634.14
8634.51
8637.4
8637.59
8640.93
8672.55
8672.82
8673.06
8673.47
8673.82
8674.39
8674.86
8675.58
8676.17
8677.06
8677.74
8678.83
8679.57
8680.91
8681.67
8683.31
8684.04
8686.05
8686.67
8689.15
8689.59
8692.6
8692.83
8696.36
8724.26
8724.5
8724.76
8725.13
8725.53
8726.06
8726.58
8727.3
8727.92
8728.83
8729.54
8730.67
8731.46
8732.84
8733.65
8735.35
8736.13
8738.21
8738.89
8741.45
8741.95
8745.07
8745.32
8749.02
8773.46
8773.69
8773.93
8774.32
8774.71
8775.26
8775.78
8776.51
8777.15
8778.08
8778.82
8779.98
8780.8
8782.22
8783.08
8784.82
8785.65
8787.78
8788.52
8791.14
8791.7
8794.9
8795.19
8799.05
8820.26
8820.48
8820.71
8821.09
8821.48
8822.04
8822.57
8823.31
8823.96
8824.92
8825.68
8826.86
8827.71
8829.16
8830.05
8831.83
8832.7
8834.88
8835.67
8838.34
8838.94
8842.22
8842.54
8846.52
8864.75
8864.96
8865.19
8865.56
8865.96
8866.51
8867.05
8867.8
8868.46
8869.43
8870.21
8871.41
8872.28
8873.76
8874.67
8876.48
8877.39
8879.6
8880.43
8883.14
8883.79
8887.12
8887.48
8891.55
8907.04
8907.23
8907.46
8907.83
8908.22
8908.78
8909.32
8910.08
8910.75
8911.73
8912.51
8913.74
8914.61
8916.12
8917.05
8918.89
8919.81
8922.06
8922.91
8925.66
8926.33
8929.7
8930.08
8934.22
8947.22
8947.4
8947.62
8947.99
8948.38
8948.93
8949.47
8950.24
8950.91
8951.9
8952.69
8953.93
8954.82
8956.34
8957.28
8959.14
8960.07
8962.35
8963.2
8965.99
8966.66
8970.08
8970.46
8974.63
8985.38
8985.55
8985.77
8986.13
8986.52
8987.07
8987.61
8988.38
8989.05
8990.05
8990.84
8992.09
8992.98
8994.52
8995.46
8997.34
8998.28
9000.58
9001.43
9004.25
9004.91
9008.35
9008.72
9012.91
9021.62
9021.78
9022
9022.35
9022.73
9023.29
9023.82
9024.59
9025.26
9026.26
9027.06
9028.31
9029.2
9030.75
9031.69
9033.59
9034.52
9036.84
9037.69
9040.52
9041.18
9044.64
9045
9049.19
9056.03
9056.18
9056.39
9056.74
9057.11
9057.67
9058.2
9058.96
9059.64
9060.63
9061.43
9062.69
9063.58
9065.13
9066.07
9067.97
9068.91
9071.23
9072.08
9074.91
9075.57
9079.04
9079.4
9083.59
9088.69
9088.83
9089.03
9089.38
9089.75
9090.3
9090.82
9091.59
9092.25
9093.25
9094.05
9095.3
9096.19
9097.74
9098.69
9100.58
9101.52
9103.84
9104.69
9107.52
9108.18
9111.64
9112.01
9116.19
9119.68
9119.81
9120.01
9120.35
9120.71
9121.26
9121.78
9122.54
9123.2
9124.2
9124.99
9126.24
9127.13
9128.68
9129.62
9131.51
9132.45
9134.76
9135.61
9138.44
9139.1
9142.55
9142.92
9147.09
9149.08
9149.21
9149.4
9149.74
9150.1
9150.64
9151.15
9151.91
9152.57
9153.56
9154.34
9155.59
9156.47
9158.01
9158.95
9160.84
9161.77
9164.07
9164.93
9167.74
9168.4
9171.84
9172.2
9176.36
9176.98
9177.1
9177.29
9177.61
9177.97
9178.5
9179.01
9179.76
9180.41
9181.4
9182.18
9183.42
9184.3
9185.83
9186.76
9188.64
9189.57
9191.86
9192.71
9195.51
9196.17
9199.59
9199.95
9204.09
9203.44
9203.55
9203.73
9204.05
9204.4
9204.93
9205.43
9206.18
9206.82
9207.81
9208.57
9209.81
9210.67
9212.21
9213.12
9215
9215.92
9218.2
9219.04
9221.82
9222.45
9225.91
9226.24
9230.35
9228.52
9228.63
9228.81
9229.13
9229.46
9229.99
9230.48
9231.23
9231.86
9232.84
9233.59
9234.83
9235.68
9237.21
9238.11
9239.98
9240.88
9243.15
9243.98
9246.76
9247.43
9250.75
9251.12
9255.21
9252.31
9252.41
9252.59
9252.9
9253.23
9253.75
9254.23
9254.98
9255.59
9256.58
9257.31
9258.55
9259.37
9260.9
9261.78
9263.65
9264.53
9266.8
9267.6
9270.36
9271.01
9274.33
9274.68
9278.74
9274.86
9274.96
9275.13
9275.43
9275.76
9276.28
9276.75
9277.49
9278.09
9279.07
9279.78
9281.02
9281.83
9283.36
9284.21
9286.07
9286.93
9289.19
9289.97
9292.72
9293.33
9296.65
9296.98
9301
9296.23
9296.32
9296.49
9296.79
9297.11
9297.62
9298.08
9298.82
9299.41
9300.38
9301.08
9302.32
9303.1
9304.63
9305.45
9307.32
9308.14
9310.4
9311.14
9313.89
9314.45
9317.79
9318.08
9322.07
9316.48
9316.57
9316.73
9317.03
9317.34
9317.85
9318.3
9319.03
9319.6
9320.58
9321.25
9322.5
9323.24
9324.78
9325.57
9327.45
9328.22
9330.5
9331.19
9333.93
9334.45
9337.78
9338.05
9341.99
9335.66
9335.75
9335.9
9336.2
9336.5
9337.01
9337.45
9338.18
9338.73
9339.71
9340.36
9341.61
9342.32
9343.87
9344.61
9346.51
9347.22
9349.51
9350.13
9352.94
9353.38
9356.69
9356.94
9360.82
9353.83
9353.92
9354.07
9354.36
9354.65
9355.16
9355.58
9356.32
9356.85
9357.83
9358.45
9359.7
9360.39
9361.94
9362.64
9364.55
9365.22
9367.53
9368.12
9370.86
9371.29
9374.59
9374.81
9378.64
9371.04
9371.12
9371.27
9371.56
9371.84
9372.35
9372.75
9373.49
9374
9374.98
9375.58
9376.83
9377.49
9379.05
9379.71
9381.62
9382.26
9384.56
9385.09
9387.86
9388.25
9391.52
9391.72
9395.51
9387.32
9387.4
9387.55
9387.83
9388.11
9388.61
9389.01
9389.74
9390.24
9391.22
9391.8
9393.05
9393.68
9395.23
9395.87
9397.77
9398.35
9400.7
9401.17
9403.94
9404.29
9407.54
9407.73
9411.47
9402.74
9402.81
9402.95
9403.24
9403.51
9404.01
9404.39
9405.12
9405.6
9406.58
9407.13
9408.39
9408.98
9410.55
9411.15
9413.06
9413.62
9415.92
9416.37
9419.14
9419.46
9422.68
9422.86
9426.55
9417.32
9417.39
9417.52
9417.81
9418.07
9418.57
9418.94
9419.67
9420.13
9421.12
9421.63
9422.91
9423.45
9425.05
9425.59
9427.52
9428
9430.35
9430.74
9433.5
9433.8
9436.98
9437.15
9440.8
9431.1
9431.18
9431.3
9431.59
9431.84
9432.34
9432.69
9433.44
9433.86
9434.86
9435.34
9436.64
9437.12
9438.76
9439.23
9441.19
9441.62
9443.97
9444.33
9447.07
9447.35
9450.5
9450.66
9454.25
9444.13
9444.2
9444.32
9444.61
9444.85
9445.36
9445.68
9446.44
9446.83
9447.86
9448.28
9449.62
9450.05
9451.69
9452.12
9454.1
9454.49
9456.83
9457.17
9459.89
9460.15
9463.26
9463.42
9466.96
9456.43
9456.51
9456.62
9456.92
9457.13
9457.66
9457.95
9458.74
9459.09
9460.13
9460.52
9461.86
9462.26
9463.91
9464.3
9466.28
9466.65
9468.98
9469.3
9471.98
9472.23
9475.31
9475.46
9478.95
9468.05
9468.12
9468.23
9468.53
9468.73
9469.26
9469.54
9470.33
9470.65
9471.71
9472.07
9473.41
9473.79
9475.43
9475.81
9477.77
9478.12
9480.43
9480.74
9483.4
9483.64
9486.67
9486.82
9490.27
9479.01
9479.08
9479.19
9479.48
9479.68
9480.21
9480.47
9481.26
9481.57
9482.62
9482.96
9484.3
9484.66
9486.3
9486.66
9488.61
9488.94
9491.23
9491.52
9494.15
9494.38
9497.39
9497.52
9500.93
9489.33
9489.41
9489.51
9489.81
9489.99
9490.52
9490.78
9491.56
9491.86
9492.9
9493.24
9494.56
9494.91
9496.54
9496.88
9498.81
9499.14
9501.4
9501.68
9504.29
9504.51
9507.48
9507.61
9510.97
9499.06
9499.13
9499.23
9499.53
9499.71
9500.23
9500.48
9501.25
9501.55
9502.58
9502.91
9504.22
9504.56
9506.17
9506.5
9508.42
9508.73
9510.97
9511.25
9513.82
9514.04
9516.97
9517.1
9520.42
9508.2
9508.28
9508.38
9508.67
9508.85
9509.37
9509.61
9510.38
9510.66
9511.69
9512
9513.31
9513.64
9515.23
9515.55
9517.45
9517.75
9519.97
9520.24
9522.78
9522.99
9525.89
9526.01
9529.29
9516.8
9516.87
9516.98
9517.25
9517.44
9517.94
9518.19
9518.94
9519.22
9520.24
9520.55
9521.84
9522.16
9523.74
9524.05
9525.93
9526.22
9528.42
9528.68
9531.19
9531.4
9534.26
9534.38
9537.62
9524.87
9524.93
9525.05
9525.3
9525.51
9525.98
9526.26
9526.97
9527.27
9528.26
9528.57
9529.84
9530.15
9531.72
9532.02
9533.88
9534.17
9536.34
9536.59
9539.08
9539.27
9542.11
9542.23
9545.43
9532.43
9532.49
9532.61
9532.84
9533.08
9533.5
9533.82
9534.47
9534.82
9535.74
9536.1
9537.33
9537.64
9539.19
9539.48
9541.32
9541.6
9543.75
9543.99
9546.46
9546.65
9549.45
9549.56
9552.73
9539.5
9539.56
9539.69
9539.9