/*--------------------------------*- C++ -*----------------------------------*\
  =========                 |
  \\      /  F ield         | OpenFOAM: The Open Source CFD Toolbox
   \\    /   O peration     | Website:  https://openfoam.org
    \\  /    A nd           | Version:  10
     \\/     M anipulation  |
\*---------------------------------------------------------------------------*/
FoamFile
{
    format      ascii;
    class       surfaceScalarField;
    location    "0.22";
    object      phi;
}
// * * * * * * * * * * * * * * * * * * * * * * * * * * * * * * * * * * * * * //

dimensions      [1 0 -1 0 0 0 0];

internalField   nonuniform List<scalar> 
8154
(
-5.85002e-09
-2.22566e-08
-5.70672e-08
-9.23605e-08
-1.72023e-07
-2.2656e-07
-3.70233e-07
-4.54096e-07
-6.74283e-07
-8.13812e-07
-1.1045e-06
-1.3374e-06
-1.66754e-06
-2.02636e-06
-2.3599e-06
-2.86525e-06
-3.25671e-06
-3.98717e-06
-4.56564e-06
-5.5065e-06
-6.81809e-06
-7.26903e-06
-6.84032e-06
-0.000277443
-0.000832383
2.39954e-08
-0.00138749
9.60952e-08
-0.00194292
2.13057e-07
-0.00249871
3.77639e-07
-0.00305508
5.76716e-07
-0.00361208
8.23078e-07
-0.0041698
1.08828e-06
-0.00472853
1.39796e-06
-0.00528799
1.71144e-06
-0.00584887
2.05632e-06
-0.00641067
2.40257e-06
-0.00697387
2.74792e-06
-0.0075388
3.12063e-06
-0.00810428
3.43714e-06
-0.00867319
3.85129e-06
-0.0092404
4.12787e-06
-0.00981506
4.57389e-06
-0.0103834
4.92449e-06
-0.0109647
5.13926e-06
-0.011534
5.28091e-06
-0.0121237
5.11673e-06
-0.012695
4.02922e-06
-0.0132931
2.4507e-06
-0.000277467
-0.000832455
2.63045e-08
-0.0013876
1.04625e-07
-0.00194308
2.34425e-07
-0.00249891
4.09717e-07
-0.00305533
6.34629e-07
-0.00361234
8.89164e-07
-0.0041701
1.19454e-06
-0.00472884
1.50144e-06
-0.00528833
1.86736e-06
-0.00584921
2.19092e-06
-0.00641101
2.59299e-06
-0.00697424
2.89235e-06
-0.00753911
3.29903e-06
-0.00810469
3.54011e-06
-0.00867346
3.90557e-06
-0.00924084
4.10706e-06
-0.00981541
4.39063e-06
-0.0103836
5.00178e-06
-0.0109648
4.66623e-06
-0.0115338
5.23278e-06
-0.0121226
5.33312e-06
-0.0126934
5.04382e-06
-0.0132907
4.22933e-06
-0.000277493
-0.000832533
2.12386e-08
-0.00138773
8.47282e-08
-0.00194325
1.87737e-07
-0.00249913
3.3004e-07
-0.00305558
5.0128e-07
-0.00361265
7.06937e-07
-0.00417041
9.2259e-07
-0.0047292
1.1668e-06
-0.00528866
1.39453e-06
-0.00584961
1.64208e-06
-0.00641131
1.84595e-06
-0.00697465
2.04919e-06
-0.00753935
2.19713e-06
-0.00810505
2.28449e-06
-0.00867366
2.35517e-06
-0.00924112
2.20904e-06
-0.00981601
2.34438e-06
-0.0103833
1.89925e-06
-0.0109654
1.78221e-06
-0.0115339
1.39378e-06
-0.0121223
1.15814e-06
-0.0126926
7.21858e-07
-0.0132865
5.16252e-07
-0.000277514
-0.000832596
2.54712e-08
-0.00138783
1.01678e-07
-0.0019434
2.25693e-07
-0.0024993
3.97303e-07
-0.00305578
6.05011e-07
-0.00361286
8.55261e-07
-0.00417065
1.11944e-06
-0.00472943
1.42099e-06
-0.0052889
1.70294e-06
-0.00584981
2.01717e-06
-0.00641151
2.27179e-06
-0.00697479
2.54769e-06
-0.00753943
2.73329e-06
-0.00810512
2.89559e-06
-0.00867351
2.98669e-06
-0.00924125
2.90015e-06
-0.00981556
2.97532e-06
-0.0103832
2.2831e-06
-0.010965
2.51838e-06
-0.0115336
1.72761e-06
-0.0121219
1.21035e-06
-0.0126924
3.82253e-07
-0.0132859
-1.69992e-07
-0.000277539
-0.000832672
3.35846e-08
-0.00138796
1.34037e-07
-0.00194357
2.98838e-07
-0.00249951
5.25946e-07
-0.00305603
8.07357e-07
-0.00361312
1.14131e-06
-0.00417095
1.51196e-06
-0.00472971
1.91959e-06
-0.00528921
2.33952e-06
-0.00585006
2.77368e-06
-0.00641178
3.19394e-06
-0.00697497
3.59535e-06
-0.00753959
3.96381e-06
-0.00810521
4.25915e-06
-0.00867342
4.52326e-06
-0.00924132
4.61711e-06
-0.00981487
4.73109e-06
-0.0103834
4.40061e-06
-0.0109642
4.3674e-06
-0.0115331
3.67619e-06
-0.0121211
3.21757e-06
-0.0126918
2.27405e-06
-0.0132861
1.35228e-06
-0.000277573
-0.000832772
3.75089e-08
-0.00138812
1.49707e-07
-0.00194379
3.34049e-07
-0.00249979
5.87986e-07
-0.00305636
9.0382e-07
-0.00361349
1.27802e-06
-0.00417135
1.69622e-06
-0.00473013
2.1544e-06
-0.00528965
2.63148e-06
-0.00585048
3.12137e-06
-0.00641218
3.60232e-06
-0.00697534
4.05768e-06
-0.00753988
4.48145e-06
-0.00810547
4.822e-06
-0.00867351
5.12504e-06
-0.00924143
5.2513e-06
-0.00981453
5.36921e-06
-0.0103834
5.08167e-06
-0.0109635
4.96819e-06
-0.0115326
4.22091e-06
-0.0121201
3.6844e-06
-0.0126909
2.64443e-06
-0.0132847
1.6181e-06
-0.00027761
-0.000832884
4.13467e-08
-0.0013883
1.65036e-07
-0.00194405
3.68359e-07
-0.0025001
6.48499e-07
-0.00305674
9.97346e-07
-0.00361391
1.41094e-06
-0.00417181
1.87411e-06
-0.0047306
2.38235e-06
-0.00529013
2.91292e-06
-0.00585095
3.45948e-06
-0.00641263
3.99657e-06
-0.00697576
4.5087e-06
-0.00754021
4.98243e-06
-0.00810577
5.37143e-06
-0.00867363
5.70829e-06
-0.00924155
5.86388e-06
-0.00981424
5.99656e-06
-0.0103832
5.71709e-06
-0.0109628
5.5984e-06
-0.0115321
4.81399e-06
-0.0121191
4.21123e-06
-0.0126899
2.99466e-06
-0.0132831
1.8018e-06
-0.000277651
-0.000833007
4.5049e-08
-0.00138851
1.79801e-07
-0.00194433
4.01365e-07
-0.00250045
7.06499e-07
-0.00305715
1.08681e-06
-0.00361437
1.53747e-06
-0.00417232
2.04323e-06
-0.00473113
2.59799e-06
-0.00529068
3.17933e-06
-0.00585149
3.7782e-06
-0.00641314
4.36948e-06
-0.00697623
4.93381e-06
-0.0075406
5.45678e-06
-0.0081061
5.88949e-06
-0.00867378
6.25927e-06
-0.00924168
6.44282e-06
-0.00981395
6.58094e-06
-0.0103831
6.32684e-06
-0.010962
6.17786e-06
-0.0115315
5.37428e-06
-0.0121178
4.83736e-06
-0.0126887
3.36367e-06
-0.0132813
2.02239e-06
-0.000277696
-0.000833142
4.87042e-08
-0.00138873
1.94367e-07
-0.00194463
4.33866e-07
-0.00250083
7.63502e-07
-0.0030576
1.17445e-06
-0.00361487
1.66105e-06
-0.00417287
2.20769e-06
-0.00473171
2.80706e-06
-0.00529127
3.4365e-06
-0.00585208
4.08534e-06
-0.0064137
4.72786e-06
-0.00697675
5.34255e-06
-0.00754102
5.91265e-06
-0.00810647
6.38801e-06
-0.00867396
6.78933e-06
-0.00924181
6.99837e-06
-0.00981369
7.13773e-06
-0.010383
6.90308e-06
-0.0109612
6.7299e-06
-0.0115308
5.91863e-06
-0.0121165
4.85345e-06
-0.0126873
3.71947e-06
-0.0132793
2.21572e-06
-0.000277745
-0.000833287
5.23109e-08
-0.00138897
2.08735e-07
-0.00194496
4.65899e-07
-0.00250124
8.19625e-07
-0.00305808
1.26058e-06
-0.00361542
1.78222e-06
-0.00417347
2.36838e-06
-0.00473234
3.01058e-06
-0.00529192
3.68573e-06
-0.00585272
4.38177e-06
-0.00641432
5.07238e-06
-0.00697731
5.73446e-06
-0.00754149
6.34918e-06
-0.00810686
6.86544e-06
-0.00867417
7.29763e-06
-0.00924195
7.52997e-06
-0.00981345
7.66885e-06
-0.0103828
7.44969e-06
-0.0109603
7.24741e-06
-0.0115301
6.39178e-06
-0.012115
5.59995e-06
-0.0126858
4.03132e-06
-0.0132771
2.40064e-06
-0.000277797
-0.000833443
5.58836e-08
-0.00138922
2.2297e-07
-0.00194531
4.97644e-07
-0.00250168
8.75259e-07
-0.0030586
1.34592e-06
-0.003616
1.90221e-06
-0.00417411
2.52723e-06
-0.00473301
3.21126e-06
-0.00529262
3.9305e-06
-0.0058534
4.67163e-06
-0.00641498
5.40745e-06
-0.00697792
6.1139e-06
-0.00754201
6.77008e-06
-0.00810729
7.32489e-06
-0.0086744
7.78709e-06
-0.00924208
8.04379e-06
-0.00981323
8.18857e-06
-0.0103826
7.97097e-06
-0.0109595
7.74248e-06
-0.0115293
6.8621e-06
-0.0121134
6.00999e-06
-0.0126842
4.35693e-06
-0.0132747
2.58774e-06
-0.000277853
-0.00083361
5.94146e-08
-0.0013895
2.37046e-07
-0.00194569
5.29061e-07
-0.00250215
9.30383e-07
-0.00305916
1.43057e-06
-0.00361662
2.02131e-06
-0.00417479
2.68488e-06
-0.00473373
3.41025e-06
-0.00529336
4.17264e-06
-0.00585414
4.95738e-06
-0.00641568
5.73611e-06
-0.00697858
6.48397e-06
-0.00754256
7.17802e-06
-0.00810775
7.76784e-06
-0.00867466
8.25715e-06
-0.00924222
8.53663e-06
-0.00981301
8.68825e-06
-0.0103823
8.46876e-06
-0.0109586
8.20555e-06
-0.0115285
7.28614e-06
-0.0121117
6.37556e-06
-0.0126824
4.65183e-06
-0.0132721
2.75816e-06
-0.000277912
-0.000833787
6.29033e-08
-0.00138979
2.50958e-07
-0.00194609
5.60139e-07
-0.00250265
9.84979e-07
-0.00305975
1.51451e-06
-0.00361729
2.13961e-06
-0.00417551
2.84163e-06
-0.00473449
3.60825e-06
-0.00529414
4.41347e-06
-0.00585491
5.24114e-06
-0.00641643
6.06137e-06
-0.00697927
6.84843e-06
-0.00754314
7.57719e-06
-0.00810824
8.19829e-06
-0.00867494
8.71096e-06
-0.00924237
9.00998e-06
-0.00981278
9.16575e-06
-0.0103821
8.94675e-06
-0.0109577
8.64369e-06
-0.0115275
7.67972e-06
-0.01211
6.70844e-06
-0.0126805
4.89569e-06
-0.0132693
2.9049e-06
-0.000277975
-0.000833975
6.63511e-08
-0.0013901
2.64707e-07
-0.00194651
5.90856e-07
-0.00250318
1.03897e-06
-0.00306037
1.5976e-06
-0.00361799
2.25682e-06
-0.00417628
2.99714e-06
-0.00473529
3.80495e-06
-0.00529497
4.65295e-06
-0.00585573
5.52338e-06
-0.00641721
6.3846e-06
-0.00697999
7.20965e-06
-0.00754376
7.97093e-06
-0.00810875
8.61999e-06
-0.00867524
9.15194e-06
-0.00924252
9.46639e-06
-0.00981256
9.62462e-06
-0.0103818
9.40823e-06
-0.0109567
9.06337e-06
-0.0115266
8.05475e-06
-0.0121082
7.01399e-06
-0.0126785
5.05462e-06
-0.0132664
3.02987e-06
-0.000278041
-0.000834173
6.97646e-08
-0.00139042
2.78311e-07
-0.00194696
6.21229e-07
-0.00250373
1.09233e-06
-0.00306103
1.67964e-06
-0.00361872
2.37257e-06
-0.00417709
3.15076e-06
-0.00473614
3.99944e-06
-0.00529583
4.89005e-06
-0.00585659
5.80324e-06
-0.00641803
6.70548e-06
-0.00698075
7.56833e-06
-0.0075444
8.36137e-06
-0.00810928
9.03647e-06
-0.00867555
9.58425e-06
-0.00924268
9.90919e-06
-0.00981234
1.00658e-05
-0.0103814
9.84946e-06
-0.0109557
9.4639e-06
-0.0115255
8.41733e-06
-0.0121062
7.31405e-06
-0.0126765
5.27485e-06
-0.0132634
3.16051e-06
-0.000278111
-0.000834381
7.31462e-08
-0.00139077
2.91779e-07
-0.00194743
6.51252e-07
-0.00250432
1.14497e-06
-0.00306172
1.76045e-06
-0.0036195
2.48638e-06
-0.00417793
3.30164e-06
-0.00473702
4.19043e-06
-0.00529675
5.12301e-06
-0.00585749
6.07862e-06
-0.00641889
7.0219e-06
-0.00698154
7.92287e-06
-0.00754507
8.74811e-06
-0.00810982
9.44917e-06
-0.00867587
1.00117e-05
-0.00924283
1.03437e-05
-0.00981212
1.04921e-05
-0.010381
1.0263e-05
-0.0109546
9.84383e-06
-0.0115244
8.7603e-06
-0.0121042
7.59584e-06
-0.0126744
5.49252e-06
-0.0132602
3.28184e-06
-0.000278184
-0.000834599
7.64856e-08
-0.00139112
3.05065e-07
-0.00194793
6.80817e-07
-0.00250494
1.19669e-06
-0.00306245
1.83962e-06
-0.00362032
2.5976e-06
-0.00417882
3.44873e-06
-0.00473796
4.37631e-06
-0.0052977
5.34957e-06
-0.00585843
6.34656e-06
-0.00641979
7.33034e-06
-0.00698236
8.26948e-06
-0.00754577
9.12772e-06
-0.00811038
9.8559e-06
-0.00867621
1.04345e-05
-0.00924298
1.0774e-05
-0.00981189
1.09128e-05
-0.0103806
1.06673e-05
-0.0109536
1.02136e-05
-0.0115232
9.09366e-06
-0.0121021
7.86705e-06
-0.0126721
5.69234e-06
-0.0132569
3.39556e-06
-0.00027826
-0.000834828
7.97563e-08
-0.0013915
3.18065e-07
-0.00194844
7.09699e-07
-0.00250558
1.24711e-06
-0.00306321
1.91662e-06
-0.00362116
2.70546e-06
-0.00417975
3.59097e-06
-0.00473893
4.55559e-06
-0.0052987
5.56764e-06
-0.00585941
6.60421e-06
-0.00642073
7.62704e-06
-0.00698322
8.60359e-06
-0.00754649
9.49513e-06
-0.00811096
1.02517e-05
-0.00867655
1.08486e-05
-0.00924311
1.11979e-05
-0.00981164
1.13294e-05
-0.0103802
1.10694e-05
-0.0109524
1.05769e-05
-0.011522
9.42331e-06
-0.0120999
8.13435e-06
-0.0126699
5.88648e-06
-0.0132535
3.50506e-06
-0.00027834
-0.000835065
8.28997e-08
-0.00139189
3.30555e-07
-0.00194898
7.37434e-07
-0.00250625
1.2955e-06
-0.003064
1.9904e-06
-0.00362205
2.80866e-06
-0.00418071
3.72676e-06
-0.00473994
4.72632e-06
-0.00529973
5.77477e-06
-0.00586043
6.8484e-06
-0.0064217
7.90787e-06
-0.00698411
8.91993e-06
-0.00754725
9.84384e-06
-0.00811155
1.06291e-05
-0.0086769
1.12466e-05
-0.00924324
1.16089e-05
-0.00981137
1.17371e-05
-0.0103797
1.14653e-05
-0.0109513
1.09335e-05
-0.0115207
9.75274e-06
-0.0120977
8.40304e-06
-0.0126675
6.08069e-06
-0.01325
3.61414e-06
-0.000278422
-0.000835313
8.58386e-08
-0.0013923
3.42237e-07
-0.00194954
7.63397e-07
-0.00250694
1.34083e-06
-0.00306481
2.0596e-06
-0.00362297
2.90547e-06
-0.00418171
3.8541e-06
-0.00474098
4.88625e-06
-0.0053008
5.96842e-06
-0.00586149
7.07614e-06
-0.00642271
8.16911e-06
-0.00698503
9.21364e-06
-0.00754803
1.01675e-05
-0.00811217
1.09802e-05
-0.00867726
1.1619e-05
-0.00924337
1.19972e-05
-0.00981109
1.21276e-05
-0.0103791
1.18485e-05
-0.0109501
1.12812e-05
-0.0115194
1.00808e-05
-0.0120953
8.67597e-06
-0.012665
6.28101e-06
-0.0132464
3.72698e-06
-0.000278508
-0.000835569
8.84836e-08
-0.00139272
3.52764e-07
-0.00195011
7.86846e-07
-0.00250766
1.3819e-06
-0.00306566
2.12248e-06
-0.00362391
2.99371e-06
-0.00418274
3.97043e-06
-0.00474206
5.03253e-06
-0.00530191
6.14551e-06
-0.00586258
7.2841e-06
-0.00642376
8.40703e-06
-0.00698598
9.48026e-06
-0.00754883
1.04605e-05
-0.00811281
1.12975e-05
-0.00867764
1.19561e-05
-0.00924349
1.23507e-05
-0.00981081
1.24876e-05
-0.0103786
1.22088e-05
-0.0109489
1.162e-05
-0.011518
1.04004e-05
-0.0120929
8.94507e-06
-0.0126625
6.48858e-06
-0.0132426
3.84577e-06
-0.000278596
-0.000835833
9.07487e-08
-0.00139315
3.61796e-07
-0.00195071
8.07033e-07
-0.0025084
1.41742e-06
-0.00306653
2.17715e-06
-0.00362489
3.07085e-06
-0.00418381
4.07266e-06
-0.00474318
5.16163e-06
-0.00530305
6.30223e-06
-0.0058637
7.4683e-06
-0.00642483
8.61747e-06
-0.00698696
9.71535e-06
-0.00754967
1.07176e-05
-0.00811346
1.15746e-05
-0.00867804
1.22493e-05
-0.00924363
1.26578e-05
-0.00981052
1.28014e-05
-0.010378
1.25269e-05
-0.0109476
1.19276e-05
-0.0115165
1.06902e-05
-0.0120905
9.19278e-06
-0.0126598
6.69301e-06
-0.0132388
3.96558e-06
-0.000278687
-0.000836103
9.25635e-08
-0.00139359
3.69049e-07
-0.00195132
8.2331e-07
-0.00250916
1.44622e-06
-0.00306742
2.22179e-06
-0.00362589
3.13433e-06
-0.00418489
4.15744e-06
-0.00474431
5.26947e-06
-0.00530421
6.43393e-06
-0.00586485
7.62375e-06
-0.00642592
8.79534e-06
-0.00698796
9.91379e-06
-0.00755052
1.09336e-05
-0.00811413
1.18057e-05
-0.00867845
1.24917e-05
-0.00924377
1.29095e-05
-0.00981024
1.30569e-05
-0.0103774
1.27847e-05
-0.0109464
1.21743e-05
-0.011515
1.0927e-05
-0.012088
9.39428e-06
-0.0126571
6.86848e-06
-0.0132348
4.06815e-06
-0.000278779
-0.00083638
9.38806e-08
-0.00139405
3.74325e-07
-0.00195194
8.35195e-07
-0.00250993
1.46738e-06
-0.00306834
2.25483e-06
-0.00362691
3.18175e-06
-0.004186
4.22141e-06
-0.00474548
5.35172e-06
-0.0053054
6.53537e-06
-0.00586602
7.7445e-06
-0.00642704
8.9343e-06
-0.00698897
1.00692e-05
-0.00755139
1.11022e-05
-0.00811482
1.19846e-05
-0.00867887
1.26767e-05
-0.00924391
1.30986e-05
-0.00980997
1.3245e-05
-0.0103768
1.29714e-05
-0.0109452
1.23487e-05
-0.0115135
1.10956e-05
-0.0120854
9.52402e-06
-0.0126543
6.97137e-06
-0.0132308
4.1194e-06
-0.000278873
-0.00083666
9.46888e-08
-0.00139451
3.77568e-07
-0.00195257
8.42525e-07
-0.00251072
1.48051e-06
-0.00306926
2.27551e-06
-0.00362795
3.21179e-06
-0.00418713
4.26245e-06
-0.00474666
5.40535e-06
-0.00530661
6.60251e-06
-0.0058672
7.82584e-06
-0.00642817
9.02901e-06
-0.00699
1.01763e-05
-0.00755227
1.12185e-05
-0.00811551
1.21079e-05
-0.00867929
1.28012e-05
-0.00924406
1.32229e-05
-0.00980969
1.33622e-05
-0.0103761
1.30834e-05
-0.0109439
1.24463e-05
-0.0115119
1.11904e-05
-0.0120829
9.57121e-06
-0.0126514
6.96529e-06
-0.0132266
4.09488e-06
-0.000278968
-0.000836942
9.53693e-08
-0.00139497
3.80293e-07
-0.00195321
8.48674e-07
-0.00251151
1.49153e-06
-0.0030702
2.29289e-06
-0.003629
3.23719e-06
-0.00418828
4.29756e-06
-0.00474785
5.45199e-06
-0.00530783
6.66231e-06
-0.00586841
7.90041e-06
-0.00642932
9.11918e-06
-0.00699105
1.02825e-05
-0.00755315
1.13396e-05
-0.0081162
1.22423e-05
-0.00867971
1.29451e-05
-0.00924419
1.33739e-05
-0.00980941
1.35145e-05
-0.0103755
1.32373e-05
-0.0109426
1.25941e-05
-0.0115103
1.13398e-05
-0.0120803
9.69777e-06
-0.0126486
7.05679e-06
-0.0132225
4.20491e-06
-0.000279063
-0.000837227
9.56551e-08
-0.00139544
3.81435e-07
-0.00195385
8.51241e-07
-0.00251231
1.49614e-06
-0.00307114
2.30023e-06
-0.00363006
3.24809e-06
-0.00418943
4.31303e-06
-0.00474906
5.47332e-06
-0.00530907
6.691e-06
-0.00586962
7.93821e-06
-0.00643048
9.16785e-06
-0.0069921
1.03435e-05
-0.00755405
1.14138e-05
-0.0081169
1.23292e-05
-0.00868014
1.30429e-05
-0.00924433
1.34799e-05
-0.00980913
1.36241e-05
-0.0103749
1.33489e-05
-0.0109414
1.27001e-05
-0.0115086
1.14433e-05
-0.0120776
9.79883e-06
-0.0126457
7.14211e-06
-0.0132183
4.37865e-06
-0.000279158
-0.000837512
9.5437e-08
-0.00139591
3.80559e-07
-0.0019545
8.49264e-07
-0.00251312
1.49266e-06
-0.00307209
2.29491e-06
-0.00363112
3.24077e-06
-0.00419059
4.30369e-06
-0.00475028
5.46235e-06
-0.00531031
6.67915e-06
-0.00587085
7.92693e-06
-0.00643166
9.15892e-06
-0.00699317
1.03393e-05
-0.00755496
1.14163e-05
-0.00811761
1.23402e-05
-0.00868058
1.30623e-05
-0.00924447
1.35067e-05
-0.00980885
1.36544e-05
-0.0103742
1.3381e-05
-0.0109401
1.27271e-05
-0.011507
1.14703e-05
-0.012075
9.81888e-06
-0.0126427
7.20301e-06
-0.0132142
3.93549e-06
-0.000279254
-0.000837797
9.47528e-08
-0.00139638
3.77826e-07
-0.00195514
8.43137e-07
-0.00251392
1.48188e-06
-0.00307303
2.27828e-06
-0.00363218
3.2173e-06
-0.00419175
4.27254e-06
-0.0047515
5.42309e-06
-0.00531156
6.63171e-06
-0.00587208
7.87214e-06
-0.00643284
9.09826e-06
-0.00699424
1.02753e-05
-0.00755588
1.13521e-05
-0.00811833
1.22793e-05
-0.00868102
1.30076e-05
-0.00924461
1.34598e-05
-0.00980857
1.36137e-05
-0.0103736
1.33452e-05
-0.0109389
1.26886e-05
-0.0115053
1.14316e-05
-0.0120723
9.75571e-06
-0.0126397
7.17011e-06
-0.01321
3.90067e-06
-0.000279348
-0.00083808
9.36297e-08
-0.00139684
3.73352e-07
-0.00195578
8.33154e-07
-0.00251472
1.46438e-06
-0.00307397
2.2514e-06
-0.00363324
3.17946e-06
-0.0041929
4.2223e-06
-0.0047527
5.35944e-06
-0.0053128
6.55392e-06
-0.00587331
7.78036e-06
-0.00643401
8.99331e-06
-0.00699532
1.01595e-05
-0.0075568
1.12285e-05
-0.00811906
1.21528e-05
-0.00868147
1.28832e-05
-0.00924476
1.33427e-05
-0.0098083
1.35066e-05
-0.0103729
1.325e-05
-0.0109376
1.25992e-05
-0.0115037
1.13458e-05
-0.0120697
9.64665e-06
-0.0126368
7.08375e-06
-0.0132057
4.20938e-06
-0.000279442
-0.00083836
9.20954e-08
-0.0013973
3.67252e-07
-0.00195641
8.19588e-07
-0.0025155
1.44069e-06
-0.0030749
2.21519e-06
-0.00363428
3.12872e-06
-0.00419403
4.15528e-06
-0.0047539
5.27482e-06
-0.00531403
6.45065e-06
-0.00587452
7.6581e-06
-0.00643518
8.85222e-06
-0.00699639
1.00011e-05
-0.00755772
1.10554e-05
-0.00811979
1.19697e-05
-0.00868193
1.26962e-05
-0.00924493
1.31595e-05
-0.00980804
1.33346e-05
-0.0103723
1.30962e-05
-0.0109363
1.24655e-05
-0.011502
1.12337e-05
-0.0120672
9.54328e-06
-0.0126339
7.01736e-06
-0.0132015
4.1692e-06
-0.000279534
-0.000838635
9.01903e-08
-0.00139776
3.59685e-07
-0.00195703
8.02782e-07
-0.00251628
1.4114e-06
-0.00307581
2.17056e-06
-0.00363531
3.06641e-06
-0.00419515
4.0734e-06
-0.00475507
5.17203e-06
-0.00531523
6.32588e-06
-0.00587572
7.51096e-06
-0.00643633
8.68253e-06
-0.00699744
9.80987e-06
-0.00755863
1.08441e-05
-0.00812051
1.17423e-05
-0.00868239
1.24581e-05
-0.0092451
1.2919e-05
-0.00980779
1.31014e-05
-0.0103716
1.2882e-05
-0.0109351
1.22802e-05
-0.0115003
1.10874e-05
-0.0120646
9.43359e-06
-0.0126311
6.93696e-06
-0.0131973
4.12281e-06
-0.000279624
-0.000838904
8.79727e-08
-0.0013982
3.50876e-07
-0.00195764
7.83219e-07
-0.00251704
1.3773e-06
-0.00307671
2.11864e-06
-0.00363631
2.99403e-06
-0.00419625
3.97853e-06
-0.00475622
5.05341e-06
-0.00531642
6.18272e-06
-0.00587689
7.34315e-06
-0.00643745
8.49011e-06
-0.00699848
9.59376e-06
-0.00755953
1.06053e-05
-0.00812122
1.14838e-05
-0.00868285
1.21835e-05
-0.00924528
1.26354e-05
-0.00980757
1.28178e-05
-0.010371
1.26121e-05
-0.0109339
1.20395e-05
-0.0114986
1.08929e-05
-0.0120622
9.28967e-06
-0.0126282
6.85687e-06
-0.0131932
4.06825e-06
-0.000279712
-0.000839167
8.55175e-08
-0.00139863
3.41117e-07
-0.00195823
7.61514e-07
-0.00251778
1.33941e-06
-0.00307758
2.06084e-06
-0.0036373
2.91337e-06
-0.00419732
3.87278e-06
-0.00475735
4.92132e-06
-0.00531758
6.02377e-06
-0.00587803
7.15768e-06
-0.00643855
8.27879e-06
-0.00699949
9.3581e-06
-0.0075604
1.03466e-05
-0.00812192
1.12047e-05
-0.00868331
1.18864e-05
-0.00924546
1.23252e-05
-0.00980736
1.25008e-05
-0.0103704
1.23001e-05
-0.0109328
1.17492e-05
-0.011497
1.06468e-05
-0.0120597
9.10741e-06
-0.0126254
6.77445e-06
-0.0131892
4.00873e-06
-0.000279797
-0.000839422
8.29068e-08
-0.00139905
3.30726e-07
-0.00195881
7.38363e-07
-0.0025185
1.29889e-06
-0.00307843
1.99884e-06
-0.00363825
2.82656e-06
-0.00419837
3.75862e-06
-0.00475845
4.77841e-06
-0.00531871
5.85165e-06
-0.00587915
6.95705e-06
-0.00643963
8.05099e-06
-0.00700048
9.10559e-06
-0.00756125
1.00719e-05
-0.0081226
1.09109e-05
-0.00868374
1.15763e-05
-0.00924564
1.20025e-05
-0.00980716
1.21688e-05
-0.0103699
1.19666e-05
-0.0109317
1.14254e-05
-0.0114955
1.03531e-05
-0.0120574
8.87273e-06
-0.0126227
6.64809e-06
-0.0131851
3.93186e-06
-0.00027988
-0.00083967
8.02162e-08
-0.00139946
3.20005e-07
-0.00195937
7.14421e-07
-0.0025192
1.25685e-06
-0.00307926
1.9343e-06
-0.00363919
2.7358e-06
-0.00419939
3.63875e-06
-0.00475953
4.62768e-06
-0.00531981
5.66933e-06
-0.00588025
6.74388e-06
-0.00644069
7.80869e-06
-0.00700144
8.83742e-06
-0.00756209
9.78159e-06
-0.00812326
1.06033e-05
-0.00868417
1.12557e-05
-0.0092458
1.16734e-05
-0.00980696
1.18346e-05
-0.0103693
1.16318e-05
-0.0109306
1.10947e-05
-0.011494
1.00387e-05
-0.0120552
8.58977e-06
-0.0126199
6.42032e-06
-0.0131812
3.82122e-06
-0.00027996
-0.000839909
7.75022e-08
-0.00139985
3.09178e-07
-0.00195991
6.90199e-07
-0.00251988
1.21422e-06
-0.00308006
1.86861e-06
-0.00364009
2.64306e-06
-0.00420037
3.51568e-06
-0.00476057
4.47209e-06
-0.00532089
5.48003e-06
-0.00588131
6.5212e-06
-0.00644171
7.55428e-06
-0.00700239
8.55468e-06
-0.00756291
9.47519e-06
-0.00812391
1.02793e-05
-0.00868459
1.09209e-05
-0.00924596
1.13345e-05
-0.00980676
1.14983e-05
-0.0103688
1.1303e-05
-0.0109296
1.07767e-05
-0.0114925
9.73758e-06
-0.012053
8.31064e-06
-0.0126173
6.18705e-06
-0.0131774
3.67816e-06
-0.000280038
-0.00084014
7.47946e-08
-0.00140023
2.98368e-07
-0.00196044
6.65977e-07
-0.00252053
1.1715e-06
-0.00308084
1.80263e-06
-0.00364096
2.54963e-06
-0.00420133
3.39121e-06
-0.00476157
4.31397e-06
-0.00532193
5.28652e-06
-0.00588235
6.29202e-06
-0.00644271
7.29051e-06
-0.00700331
8.25927e-06
-0.00756371
9.15261e-06
-0.00812454
9.93618e-06
-0.00868501
1.05655e-05
-0.00924612
1.09762e-05
-0.00980657
1.11489e-05
-0.0103683
1.09705e-05
-0.0109285
1.04687e-05
-0.0114911
9.45693e-06
-0.0120508
8.05598e-06
-0.0126148
5.96911e-06
-0.0131737
3.49188e-06
-0.000280112
-0.000840363
7.20902e-08
-0.0014006
2.87565e-07
-0.00196094
6.41754e-07
-0.00252116
1.12874e-06
-0.00308158
1.7365e-06
-0.0036418
2.45581e-06
-0.00420225
3.26591e-06
-0.00476255
4.15422e-06
-0.00532293
5.09016e-06
-0.00588335
6.05809e-06
-0.00644368
7.01934e-06
-0.0070042
7.95289e-06
-0.00756449
8.81459e-06
-0.00812516
9.57242e-06
-0.00868542
1.01845e-05
-0.00924629
1.05883e-05
-0.0098064
1.07702e-05
-0.0103678
1.06129e-05
-0.0109275
1.01497e-05
-0.0114897
9.18204e-06
-0.0120488
7.83384e-06
-0.0126123
5.78756e-06
-0.0131702
3.3181e-06
-0.000280184
-0.000840578
6.93645e-08
-0.00140095
2.76675e-07
-0.00196143
6.17326e-07
-0.00252177
1.08559e-06
-0.0030823
1.66974e-06
-0.00364261
2.36102e-06
-0.00420314
3.13918e-06
-0.00476348
3.99233e-06
-0.0053239
4.89061e-06
-0.00588431
5.81944e-06
-0.00644461
6.74128e-06
-0.00700506
7.6364e-06
-0.00756525
8.46213e-06
-0.00812577
9.18826e-06
-0.00868583
9.77593e-06
-0.00924647
1.01647e-05
-0.00980624
1.03488e-05
-0.0103673
1.02075e-05
-0.0109265
9.78587e-06
-0.0114884
8.87033e-06
-0.0120467
7.60678e-06
-0.0126099
5.64056e-06
-0.0131669
3.29291e-06
-0.000280253
-0.000840785
6.6566e-08
-0.00140129
2.65497e-07
-0.0019619
5.92249e-07
-0.00252235
1.04129e-06
-0.00308299
1.60118e-06
-0.00364339
2.26368e-06
-0.00420399
3.00897e-06
-0.00476438
3.82583e-06
-0.00532483
4.68512e-06
-0.00588523
5.57311e-06
-0.00644551
6.45352e-06
-0.00700589
7.30733e-06
-0.00756597
8.09337e-06
-0.00812635
8.7824e-06
-0.00868622
9.33864e-06
-0.00924665
9.703e-06
-0.0098061
9.87821e-06
-0.0103669
9.7402e-06
-0.0109256
9.34954e-06
-0.0114871
8.47583e-06
-0.0120447
7.30265e-06
-0.0126075
5.42862e-06
-0.0131636
3.22637e-06
-0.00028032
-0.000840983
6.3626e-08
-0.00140162
2.53744e-07
-0.00196234
5.65879e-07
-0.00252291
9.94698e-07
-0.00308366
1.52909e-06
-0.00364414
2.16132e-06
-0.00420481
2.87201e-06
-0.00476524
3.65063e-06
-0.00532571
4.4686e-06
-0.00588611
5.31345e-06
-0.00644636
6.14948e-06
-0.00700667
6.95934e-06
-0.00756666
7.70145e-06
-0.0081269
8.34988e-06
-0.00868659
8.86728e-06
-0.00924682
9.20139e-06
-0.00980595
9.35298e-06
-0.0103665
9.20776e-06
-0.0109247
8.82461e-06
-0.011486
7.9798e-06
-0.0120429
6.87441e-06
-0.0126053
5.09535e-06
-0.0131604
3.04236e-06
-0.000280383
-0.000841173
6.07995e-08
-0.00140193
2.42429e-07
-0.00196277
5.40496e-07
-0.00252345
9.4988e-07
-0.00308429
1.45982e-06
-0.00364485
2.06312e-06
-0.00420558
2.74083e-06
-0.00476606
3.48321e-06
-0.00532656
4.26205e-06
-0.00588695
5.06655e-06
-0.00644717
5.86106e-06
-0.00700742
6.63096e-06
-0.00756731
7.33273e-06
-0.00812741
7.94609e-06
-0.00868693
8.42826e-06
-0.00924697
8.73835e-06
-0.0098058
8.86549e-06
-0.0103661
8.71595e-06
-0.0109239
8.32905e-06
-0.0114849
7.51093e-06
-0.0120411
6.44936e-06
-0.0126032
4.75617e-06
-0.0131573
2.81382e-06
-0.000280444
-0.000841354
5.82984e-08
-0.00140223
2.32421e-07
-0.00196318
5.1806e-07
-0.00252396
9.10324e-07
-0.00308489
1.39884e-06
-0.00364553
1.97696e-06
-0.00420633
2.62626e-06
-0.00476684
3.33763e-06
-0.00532736
4.08369e-06
-0.00588774
4.85448e-06
-0.00644794
5.61602e-06
-0.00700812
6.35403e-06
-0.00756792
7.02722e-06
-0.00812789
7.61517e-06
-0.00868724
8.07868e-06
-0.00924709
8.37523e-06
-0.00980564
8.49859e-06
-0.0103657
8.3509e-06
-0.0109231
7.98175e-06
-0.0114838
7.18708e-06
-0.0120394
6.1877e-06
-0.0126013
4.55618e-06
-0.0131545
2.73517e-06
-0.000280502
-0.000841527
5.5593e-08
-0.00140252
2.21593e-07
-0.00196357
4.93796e-07
-0.00252445
8.67549e-07
-0.00308547
1.33291e-06
-0.00364618
1.88383e-06
-0.00420704
2.50246e-06
-0.00476758
3.18033e-06
-0.00532813
3.89102e-06
-0.0058885
4.62531e-06
-0.00644867
5.35103e-06
-0.00700879
6.0541e-06
-0.0075685
6.69626e-06
-0.00812835
7.25633e-06
-0.00868754
7.70031e-06
-0.0092472
7.98237e-06
-0.00980549
8.10338e-06
-0.0103654
7.95753e-06
-0.0109223
7.60881e-06
-0.0114828
6.83544e-06
-0.0120378
5.88575e-06
-0.0125995
4.30932e-06
-0.0131518
2.65161e-06
-0.000280557
-0.000841692
5.26572e-08
-0.00140279
2.09839e-07
-0.00196395
4.67476e-07
-0.00252491
8.21173e-07
-0.00308602
1.26145e-06
-0.00364679
1.78295e-06
-0.00420771
2.36844e-06
-0.00476829
3.01016e-06
-0.00532886
3.68274e-06
-0.00588922
4.37767e-06
-0.00644937
5.06458e-06
-0.00700943
5.72965e-06
-0.00756906
6.33804e-06
-0.0081288
6.86752e-06
-0.00868783
7.28994e-06
-0.00924732
7.5557e-06
-0.00980534
7.67473e-06
-0.010365
7.53289e-06
-0.0109215
7.21398e-06
-0.0114819
6.46966e-06
-0.0120362
5.55735e-06
-0.0125978
4.02356e-06
-0.0131491
2.44709e-06
-0.000280609
-0.000841849
4.94674e-08
-0.00140305
1.97073e-07
-0.0019643
4.38921e-07
-0.00252536
7.70893e-07
-0.00308654
1.18403e-06
-0.00364738
1.67369e-06
-0.00420835
2.22341e-06
-0.00476897
2.82618e-06
-0.00532956
3.45793e-06
-0.00588991
4.11058e-06
-0.00645004
4.75586e-06
-0.00701003
5.37986e-06
-0.00756959
5.95217e-06
-0.00812922
6.44822e-06
-0.00868811
6.84717e-06
-0.00924744
7.09317e-06
-0.0098052
7.20936e-06
-0.0103647
7.07028e-06
-0.0109208
6.78955e-06
-0.011481
6.08748e-06
-0.0120347
5.2399e-06
-0.0125962
4.08426e-06
-0.0131466
2.28106e-06
-0.000280659
-0.000841996
4.60018e-08
-0.00140329
1.83213e-07
-0.00196463
4.07959e-07
-0.00252577
7.16427e-07
-0.00308703
1.10021e-06
-0.00364793
1.55546e-06
-0.00420896
2.06657e-06
-0.0047696
2.62743e-06
-0.00533021
3.21546e-06
-0.00589055
3.82279e-06
-0.00645066
4.42363e-06
-0.0070106
5.00347e-06
-0.00757008
5.53777e-06
-0.00812961
5.99783e-06
-0.00868836
6.37202e-06
-0.00924755
6.59491e-06
-0.00980507
6.70911e-06
-0.0103644
6.56877e-06
-0.0109201
6.32038e-06
-0.0114801
5.66304e-06
-0.0120332
4.9609e-06
-0.0125947
3.61372e-06
-0.0131443
2.16423e-06
-0.000280704
-0.000842132
4.22475e-08
-0.00140351
1.68212e-07
-0.00196494
3.74482e-07
-0.00252615
6.57581e-07
-0.00308749
1.00969e-06
-0.00364844
1.42781e-06
-0.00420951
1.89733e-06
-0.00477019
2.41309e-06
-0.00533081
2.95432e-06
-0.00589115
3.51299e-06
-0.00645124
4.0665e-06
-0.00701113
4.59883e-06
-0.00757054
5.09342e-06
-0.00812998
5.51493e-06
-0.00868859
5.86367e-06
-0.00924766
6.06028e-06
-0.00980493
6.17884e-06
-0.0103641
6.03648e-06
-0.0109194
5.80818e-06
-0.0114794
5.17037e-06
-0.0120318
4.58722e-06
-0.0125933
3.31591e-06
-0.0131422
1.98703e-06
-0.000280746
-0.000842257
3.8209e-08
-0.00140372
1.52079e-07
-0.00196523
3.38482e-07
-0.00252651
5.94308e-07
-0.0030879
9.12378e-07
-0.00364891
1.29061e-06
-0.00421003
1.71544e-06
-0.00477073
2.18279e-06
-0.00533137
2.67394e-06
-0.0058917
3.18026e-06
-0.00645177
3.68343e-06
-0.00701163
4.1645e-06
-0.00757097
4.61792e-06
-0.00813033
4.99784e-06
-0.00868879
5.3211e-06
-0.00924777
5.48705e-06
-0.00980479
5.61753e-06
-0.0103639
5.47528e-06
-0.0109188
5.28788e-06
-0.0114788
5.08869e-06
-0.0120305
4.05607e-06
-0.012592
3.01174e-06
-0.0131402
1.79705e-06
-0.000280784
-0.000842371
3.39054e-08
-0.0014039
1.34876e-07
-0.00196548
3.00063e-07
-0.00252683
5.26756e-07
-0.00308828
8.08414e-07
-0.00364933
1.14405e-06
-0.00421049
1.52119e-06
-0.00477122
1.93683e-06
-0.00533188
2.37447e-06
-0.00589221
2.82432e-06
-0.00645225
3.27418e-06
-0.00701208
3.69982e-06
-0.00757134
4.11105e-06
-0.00813065
4.44523e-06
-0.00868897
4.746e-06
-0.00924789
4.87659e-06
-0.00980466
5.02117e-06
-0.0103637
4.87916e-06
-0.0109182
4.81105e-06
-0.0114782
4.33018e-06
-0.0120295
3.66615e-06
-0.0125908
2.73037e-06
-0.0131384
1.61575e-06
-0.000280818
-0.000842471
2.93473e-08
-0.00140407
1.16666e-07
-0.00196571
2.59365e-07
-0.00252711
4.55179e-07
-0.00308862
6.98167e-07
-0.00364971
9.88708e-07
-0.00421091
1.31544e-06
-0.00477165
1.67627e-06
-0.00533232
2.05702e-06
-0.00589266
2.4459e-06
-0.00645267
2.84015e-06
-0.00701249
3.20541e-06
-0.00757167
3.57537e-06
-0.00813096
3.85635e-06
-0.00868911
4.14338e-06
-0.00924802
4.23418e-06
-0.00980455
4.39926e-06
-0.0103636
4.61865e-06
-0.0109176
4.11349e-06
-0.0114776
3.74154e-06
-0.0120285
3.20281e-06
-0.0125897
2.39562e-06
-0.0131368
1.41764e-06
-0.000280847
-0.000842558
2.44943e-08
-0.00140421
9.74551e-08
-0.00196591
2.16538e-07
-0.00252735
3.7998e-07
-0.00308891
5.8238e-07
-0.00365004