/*--------------------------------*- C++ -*----------------------------------*\
  =========                 |
  \\      /  F ield         | OpenFOAM: The Open Source CFD Toolbox
   \\    /   O peration     | Website:  https://openfoam.org
    \\  /    A nd           | Version:  10
     \\/     M anipulation  |
\*---------------------------------------------------------------------------*/
FoamFile
{
    format      ascii;
    class       volScalarField;
    location    "0.22";
    object      rho;
}
// * * * * * * * * * * * * * * * * * * * * * * * * * * * * * * * * * * * * * //

dimensions      [1 -3 0 0 0 0 0];

internalField   nonuniform List<scalar> 
4176
(
0.0308493
0.0308524
0.0308585
0.0308689
0.030882
0.0308984
0.0309193
0.0309407
0.03097
0.0309962
0.0310329
0.0310654
0.0311075
0.0311483
0.0311931
0.0312444
0.0312878
0.0313556
0.031394
0.0314795
0.0315113
0.0316167
0.031637
0.031751
0.0308573
0.0308601
0.0308654
0.0308753
0.0308864
0.0309021
0.0309198
0.0309404
0.0309655
0.0309905
0.0310226
0.0310528
0.0310904
0.0311277
0.0311687
0.0312145
0.0312547
0.031315
0.0313505
0.0314271
0.0314544
0.0315547
0.0315755
0.0317042
0.0308766
0.0308795
0.030885
0.0308952
0.0309068
0.0309229
0.0309416
0.0309627
0.030989
0.0310146
0.0310483
0.0310792
0.0311188
0.0311569
0.0312001
0.0312472
0.0312897
0.0313526
0.0313883
0.0314685
0.031496
0.0315951
0.031614
0.0317349
0.0309053
0.0309081
0.0309135
0.0309234
0.0309347
0.0309503
0.0309685
0.0309889
0.0310147
0.0310393
0.0310725
0.0311021
0.0311413
0.0311776
0.0312206
0.0312658
0.031308
0.0313709
0.0314019
0.0314846
0.0315097
0.0316075
0.0316252
0.0317372
0.0309447
0.0309476
0.0309529
0.0309629
0.030974
0.0309898
0.0310078
0.0310284
0.031054
0.0310789
0.0311117
0.0311417
0.0311806
0.0312171
0.0312602
0.0313048
0.031349
0.0314087
0.0314434
0.031524
0.0315508
0.0316481
0.0316673
0.0317808
0.0309941
0.030997
0.0310022
0.0310121
0.0310231
0.0310387
0.0310563
0.0310768
0.0311019
0.0311266
0.0311588
0.0311886
0.0312268
0.0312629
0.0313055
0.0313491
0.0313937
0.0314505
0.0314886
0.0315651
0.0315929
0.0316889
0.031709
0.0318241
0.031054
0.0310569
0.031062
0.0310719
0.0310827
0.0310983
0.0311157
0.031136
0.0311608
0.0311853
0.0312172
0.0312467
0.0312847
0.0313203
0.0313628
0.0314057
0.0314505
0.0315057
0.0315446
0.0316193
0.0316482
0.0317427
0.0317631
0.0318762
0.0311241
0.031127
0.0311321
0.0311418
0.0311525
0.0311679
0.031185
0.0312052
0.0312296
0.0312539
0.0312854
0.0313145
0.031352
0.0313871
0.0314293
0.0314712
0.0315161
0.0315694
0.0316095
0.0316815
0.0317116
0.0318045
0.0318254
0.0319371
0.0312046
0.0312074
0.0312124
0.0312222
0.0312326
0.031248
0.0312648
0.0312848
0.0313089
0.0313329
0.0313639
0.0313926
0.0314298
0.0314643
0.0315062
0.0315473
0.0315921
0.0316437
0.0316847
0.0317543
0.0317854
0.0318762
0.0318976
0.0320076
0.0312954
0.0312983
0.0313032
0.0313128
0.0313231
0.0313383
0.0313549
0.0313746
0.0313984
0.031422
0.0314527
0.0314809
0.0315176
0.0315514
0.031593
0.0316332
0.0316778
0.0317279
0.0317695
0.0318367
0.0318685
0.0319575
0.0319791
0.0320873
0.0313967
0.0313995
0.0314043
0.0314139
0.031424
0.031439
0.0314553
0.0314748
0.0314982
0.0315215
0.0315517
0.0315795
0.0316157
0.0316489
0.03169
0.0317292
0.0317737
0.0318222
0.0318644
0.0319292
0.031962
0.032048
0.0320703
0.0321766
0.0315084
0.0315112
0.0315159
0.0315254
0.0315353
0.0315501
0.0315661
0.0315854
0.0316084
0.0316313
0.031661
0.0316883
0.031724
0.0317565
0.0317971
0.0318354
0.0318795
0.0319266
0.0319691
0.0320315
0.0320651
0.0321484
0.0321711
0.0322753
0.0316307
0.0316335
0.0316381
0.0316474
0.0316571
0.0316718
0.0316874
0.0317064
0.031729
0.0317515
0.0317808
0.0318075
0.0318426
0.0318744
0.0319145
0.0319518
0.0319955
0.0320411
0.0320839
0.032144
0.0321779
0.032259
0.0322817
0.0323836
0.0317636
0.0317663
0.0317708
0.0317801
0.0317895
0.031804
0.0318193
0.031838
0.0318601
0.0318822
0.0319109
0.0319371
0.0319716
0.0320027
0.0320422
0.0320784
0.0321217
0.0321658
0.0322087
0.0322663
0.032301
0.0323793
0.032402
0.0325016
0.0319071
0.0319099
0.0319143
0.0319234
0.0319326
0.0319468
0.0319618
0.0319801
0.0320018
0.0320234
0.0320516
0.0320771
0.0321111
0.0321413
0.0321802
0.0322154
0.0322581
0.0323007
0.0323436
0.0323988
0.0324338
0.0325096
0.0325323
0.0326294
0.0320615
0.0320643
0.0320685
0.0320775
0.0320865
0.0321004
0.032115
0.0321329
0.0321541
0.0321752
0.0322028
0.0322277
0.032261
0.0322903
0.0323286
0.0323627
0.0324048
0.0324459
0.0324886
0.0325414
0.0325769
0.0326496
0.0326728
0.0327672
0.0322268
0.0322295
0.0322337
0.0322425
0.0322512
0.0322648
0.032279
0.0322966
0.0323172
0.0323377
0.0323647
0.0323889
0.0324214
0.0324499
0.0324874
0.0325204
0.0325619
0.0326015
0.0326438
0.0326943
0.03273
0.0327999
0.0328234
0.0329148
0.0324031
0.0324057
0.0324098
0.0324184
0.0324268
0.0324402
0.032454
0.032471
0.0324911
0.0325111
0.0325373
0.0325608
0.0325925
0.0326201
0.0326568
0.0326887
0.0327294
0.0327674
0.0328094
0.0328574
0.0328935
0.0329603
0.0329842
0.0330726
0.0325904
0.0325931
0.0325969
0.0326054
0.0326135
0.0326266
0.0326399
0.0326565
0.032676
0.0326953
0.0327208
0.0327435
0.0327744
0.032801
0.0328369
0.0328675
0.0329074
0.0329439
0.0329853
0.0330309
0.0330672
0.033131
0.0331552
0.0332404
0.032789
0.0327916
0.0327953
0.0328036
0.0328114
0.0328241
0.0328369
0.0328531
0.0328719
0.0328905
0.0329153
0.0329371
0.0329672
0.0329927
0.0330277
0.033057
0.033096
0.0331309
0.0331717
0.0332149
0.0332513
0.033312
0.0333366
0.0334185
0.0329988
0.0330014
0.033005
0.0330131
0.0330205
0.0330328
0.0330451
0.0330608
0.0330789
0.0330969
0.0331208
0.0331418
0.0331709
0.0331954
0.0332293
0.0332574
0.0332954
0.0333286
0.0333687
0.0334096
0.033446
0.0335034
0.0335283
0.0336069
0.0332201
0.0332227
0.033226
0.0332339
0.033241
0.0332529
0.0332646
0.0332797
0.0332972
0.0333144
0.0333375
0.0333576
0.0333858
0.0334091
0.033442
0.0334686
0.0335056
0.0335371
0.0335763
0.0336149
0.0336512
0.0337054
0.0337305
0.0338057
0.0334529
0.0334554
0.0334586
0.0334663
0.0334729
0.0334844
0.0334956
0.0335101
0.0335268
0.0335433
0.0335655
0.0335846
0.0336118
0.0336339
0.0336657
0.033691
0.0337268
0.0337565
0.0337949
0.0338311
0.0338672
0.033918
0.0339433
0.0340149
0.0336973
0.0336998
0.0337027
0.0337102
0.0337164
0.0337275
0.0337381
0.0337519
0.0337678
0.0337835
0.0338048
0.0338229
0.0338491
0.03387
0.0339007
0.0339245
0.0339592
0.0339871
0.0340244
0.0340582
0.034094
0.0341414
0.0341667
0.0342347
0.0339534
0.0339558
0.0339586
0.0339657
0.0339716
0.0339822
0.0339921
0.0340054
0.0340205
0.0340353
0.0340557
0.0340727
0.0340978
0.0341174
0.034147
0.0341693
0.0342028
0.0342288
0.034265
0.0342965
0.0343318
0.0343759
0.0344011
0.0344652
0.0342212
0.0342236
0.0342261
0.0342331
0.0342385
0.0342487
0.034258
0.0342705
0.0342848
0.0342987
0.0343181
0.034334
0.034358
0.0343763
0.0344047
0.0344255
0.0344577
0.0344819
0.034517
0.0345461
0.0345807
0.0346213
0.0346465
0.0347067
0.0345009
0.0345032
0.0345056
0.0345122
0.0345172
0.034527
0.0345356
0.0345475
0.0345609
0.0345739
0.0345923
0.0346071
0.0346299
0.0346469
0.034674
0.0346932
0.0347241
0.0347464
0.0347803
0.034807
0.0348408
0.034878
0.0349032
0.0349595
0.0347925
0.0347948
0.0347969
0.0348034
0.0348079
0.0348172
0.0348251
0.0348363
0.0348489
0.034861
0.0348783
0.034892
0.0349136
0.0349291
0.0349549
0.0349725
0.0350021
0.0350225
0.0350551
0.0350794
0.0351124
0.0351459
0.0351712
0.0352233
0.0350961
0.0350984
0.0351003
0.0351065
0.0351106
0.0351194
0.0351267
0.0351372
0.0351489
0.0351601
0.0351763
0.0351888
0.0352091
0.0352233
0.0352478
0.0352637
0.0352918
0.0353102
0.0353415
0.0353635
0.0353954
0.0354255
0.0354501
0.0354989
0.0354119
0.0354141
0.0354158
0.0354217
0.0354253
0.0354337
0.0354403
0.0354501
0.0354609
0.0354712
0.0354864
0.0354977
0.0355168
0.0355295
0.0355526
0.0355667
0.0355934
0.0356098
0.0356398
0.0356592
0.0356902
0.0357166
0.0357411
0.0357857
0.0357399
0.035742
0.0357436
0.0357492
0.0357523
0.0357602
0.0357661
0.0357752
0.0357851
0.0357945
0.0358086
0.0358187
0.0358366
0.0358478
0.0358695
0.0358819
0.0359071
0.0359214
0.0359499
0.035967
0.0359967
0.0360198
0.0360443
0.0360838
0.0360802
0.0360822
0.0360836
0.0360889
0.0360916
0.036099
0.0361042
0.0361126
0.0361216
0.03613
0.036143
0.0361519
0.0361686
0.0361784
0.0361987
0.0362094
0.0362331
0.0362452
0.0362722
0.0362867
0.0363152
0.036335
0.0363592
0.0363943
0.0364329
0.0364349
0.036436
0.036441
0.0364433
0.0364501
0.0364547
0.0364624
0.0364705
0.0364779
0.0364899
0.0364976
0.036513
0.0365213
0.0365403
0.0365491
0.0365714
0.0365814
0.0366068
0.0366188
0.0366458
0.0366624
0.0366862
0.0367168
0.036798
0.0368
0.0368008
0.0368056
0.0368074
0.0368138
0.0368177
0.0368246
0.0368318
0.0368383
0.0368492
0.0368557
0.0368699
0.0368767
0.0368943
0.0369014
0.0369222
0.03693
0.036954
0.0369633
0.0369889
0.0370022
0.0370256
0.0370514
0.0371757
0.0371776
0.0371783
0.0371828
0.0371841
0.0371901
0.0371932
0.0371995
0.0372058
0.0372113
0.0372211
0.0372263
0.0372393
0.0372446
0.0372609
0.0372662
0.0372855
0.0372913
0.0373137
0.0373205
0.0373445
0.0373545
0.0373773
0.0373985
0.037566
0.0375679
0.0375684
0.0375727
0.0375735
0.037579
0.0375815
0.037587
0.0375924
0.037597
0.0376057
0.0376097
0.0376214
0.0376252
0.0376401
0.0376437
0.0376615
0.0376652
0.0376861
0.0376903
0.037713
0.0377197
0.0377416
0.037758
0.0379691
0.0379709
0.0379712
0.0379752
0.0379757
0.0379807
0.0379825
0.0379873
0.0379919
0.0379955
0.0380031
0.038006
0.0380164
0.0380187
0.0380322
0.038034
0.0380503
0.0380518
0.0380713
0.038073
0.0380943
0.0380979
0.0381184
0.0381302
0.038385
0.0383868
0.0383869
0.0383907
0.0383907
0.0383953
0.0383964
0.0384006
0.0384043
0.038407
0.0384135
0.0384152
0.0384244
0.0384251
0.0384372
0.0384372
0.0384521
0.0384514
0.0384693
0.0384685
0.0384883
0.0384889
0.0385085
0.0385153
0.038814
0.0388157
0.0388156
0.0388192
0.0388187
0.0388228
0.0388234
0.0388269
0.0388297
0.0388314
0.038837
0.0388374
0.0388454
0.0388446
0.0388553
0.0388535
0.0388669
0.038864
0.0388804
0.0388769
0.0388954
0.0388927
0.0389114
0.0389136
0.039256
0.0392577
0.0392574
0.0392607
0.0392599
0.0392635
0.0392634
0.0392662
0.0392682
0.039269
0.0392735
0.0392728
0.0392796
0.0392773
0.0392866
0.039283
0.0392949
0.0392897
0.0393046
0.0392984
0.0393155
0.0393097
0.0393273
0.0393252
0.0397113
0.039713
0.0397124
0.0397155
0.0397142
0.0397175
0.0397167
0.0397188
0.0397199
0.0397199
0.0397233
0.0397214
0.039727
0.0397233
0.0397312
0.0397258
0.0397362
0.0397288
0.0397422
0.0397331
0.039749
0.0397396
0.0397561
0.0397504
0.0401799
0.0401816
0.0401809
0.0401837
0.040182
0.0401847
0.0401833
0.0401848
0.040185
0.040184
0.0401865
0.0401834
0.0401877
0.0401826
0.0401891
0.040182
0.040191
0.0401813
0.0401934
0.0401814
0.0401959
0.0401831
0.0401984
0.0401883
0.040662
0.0406636
0.0406627
0.0406653
0.0406632
0.0406655
0.0406634
0.0406642
0.0406636
0.0406617
0.040663
0.0406588
0.0406619
0.0406553
0.0406605
0.0406516
0.0406592
0.0406472
0.0406581
0.0406431
0.0406567
0.0406401
0.0406545
0.0406397
0.0411577
0.0411593
0.0411582
0.0411606
0.0411579
0.0411598
0.041157
0.0411572
0.0411556
0.0411528
0.0411532
0.0411477
0.0411496
0.0411415
0.0411454
0.0411347
0.041141
0.0411266
0.0411364
0.0411184
0.041131
0.0411108
0.0411244
0.041105
0.0416671
0.0416686
0.0416674
0.0416695
0.0416664
0.0416678
0.0416643
0.0416638
0.0416614
0.0416577
0.0416569
0.0416503
0.041651
0.0416414
0.0416439
0.0416314
0.0416363
0.0416197
0.0416282
0.0416074
0.0416191
0.041595
0.0416082
0.0415842
0.0421903
0.0421917
0.0421903
0.0421921
0.0421886
0.0421895
0.0421854
0.0421842
0.0421809
0.0421762
0.0421744
0.0421666
0.042166
0.042155
0.0421561
0.0421418
0.0421453
0.0421264
0.0421336
0.0421099
0.0421208
0.042093
0.0421058
0.0420769
0.0427272
0.0427286
0.042727
0.0427286
0.0427246
0.0427251
0.0427202
0.0427183
0.0427142
0.0427085
0.0427056
0.0426966
0.0426949
0.0426823
0.0426821
0.0426659
0.0426681
0.0426468
0.0426529
0.0426261
0.0426363
0.0426045
0.0426175
0.0425832
0.043278
0.0432794
0.0432775
0.0432789
0.0432744
0.0432745
0.0432689
0.0432663
0.0432613
0.0432547
0.0432508
0.0432405
0.0432375
0.0432234
0.043222
0.0432039
0.0432048
0.0431811
0.043186
0.0431561
0.0431656
0.0431299
0.0431429
0.0431036
0.0438426
0.043844
0.0438419
0.043843
0.0438381
0.0438377
0.0438315
0.0438282
0.0438222
0.0438147
0.0438097
0.0437983
0.0437941
0.0437785
0.0437757
0.0437558
0.0437554
0.0437292
0.0437332
0.0437
0.0437091
0.0436686
0.0436824
0.043638
0.0444211
0.0444224
0.0444201
0.044421
0.0444156
0.0444148
0.0444079
0.0444039
0.0443971
0.0443886
0.0443826
0.0443699
0.0443645
0.0443474
0.0443434
0.0443215
0.04432
0.0442911
0.0442945
0.0442578
0.0442668
0.0442215
0.0442358
0.0441864
0.0450133
0.0450146
0.0450121
0.0450127
0.0450069
0.0450056
0.044998
0.0449934
0.0449857
0.0449763
0.0449693
0.0449553
0.0449489
0.0449301
0.0449251
0.044901
0.0448986
0.044867
0.0448698
0.0448296
0.0448387
0.0447887
0.0448028
0.044749
0.0456192
0.0456204
0.0456177
0.0456182
0.0456118
0.0456102
0.0456019
0.0455966
0.0455882
0.0455778
0.0455699
0.0455546
0.0455472
0.0455267
0.0455207
0.0454944
0.0454913
0.0454568
0.0454593
0.0454149
0.0454245
0.0453704
0.0453841
0.0453258
0.0462386
0.0462398
0.0462369
0.0462372
0.0462304
0.0462284
0.0462195
0.0462135
0.0462043
0.046193
0.0461842
0.0461676
0.0461593
0.046137
0.0461304
0.0461016
0.0460982
0.0460606
0.0460631
0.0460143
0.0460242
0.0459664
0.0459793
0.0459169
0.0468714
0.0468726
0.0468696
0.0468696
0.0468624
0.0468601
0.0468505
0.046844
0.046834
0.0468217
0.0468122
0.0467942
0.0467854
0.046761
0.0467541
0.0467223
0.0467194
0.0466775
0.0466808
0.0466289
0.0466372
0.0465766
0.0465889
0.0465223
0.0475175
0.0475187
0.0475155
0.0475153
0.0475077
0.047505
0.0474949
0.0474878
0.0474771
0.0474638
0.0474538
0.0474342
0.0474252
0.0473983
0.0473919
0.0473564
0.0473546
0.047309
0.0473119
0.0472573
0.0472648
0.047201
0.0472124
0.047142
0.0481766
0.0481778
0.0481744
0.0481741
0.0481661
0.0481632
0.0481524
0.0481447
0.0481335
0.0481191
0.048109
0.0480873
0.0480788
0.0480492
0.0480432
0.0480049
0.0480023
0.0479554
0.0479563
0.0479
0.047906
0.0478396
0.0478503
0.047776
0.0488484
0.0488498
0.0488461
0.0488458
0.0488374
0.0488342
0.0488229
0.0488146
0.0488033
0.0487874
0.0487777
0.0487535
0.0487457
0.0487136
0.0487073
0.0486677
0.0486636
0.0486149
0.048615
0.0485564
0.0485615
0.0484923
0.0485022
0.0484243
0.049533
0.0495344
0.0495303
0.0495303
0.0495213
0.0495181
0.0495062
0.0494973
0.049486
0.0494686
0.0494589
0.0494337
0.0494249
0.049392
0.0493846
0.0493437
0.0493386
0.0492885
0.049287
0.0492269
0.0492305
0.049159
0.0491681
0.0490868
0.0502299
0.0502313
0.0502271
0.0502272
0.0502175
0.0502146
0.050202
0.0501929
0.0501809
0.0501632
0.0501527
0.0501268
0.0501171
0.0500835
0.0500749
0.0500332
0.0500268
0.0499752
0.049973
0.0499108
0.0499136
0.0498396
0.049848
0.0497633
0.050939
0.0509405
0.0509362
0.050936
0.0509263
0.0509231
0.0509098
0.0509014
0.0508881
0.0508703
0.050859
0.0508326
0.0508222
0.0507878
0.0507782
0.0507356
0.0507282
0.0506756
0.0506719
0.0506083
0.05061
0.0505339
0.0505415
0.0504538
0.0516601
0.0516616
0.0516574
0.051657
0.0516472
0.0516439
0.0516302
0.0516219
0.051607
0.0515903
0.0515775
0.051551
0.0515398
0.0515049
0.0514942
0.0514511
0.0514425
0.0513887
0.0513843
0.0513191
0.0513198
0.0512417
0.0512485
0.051158
0.0523931
0.0523946
0.0523903
0.05239
0.05238
0.0523766
0.0523626
0.0523543
0.0523385
0.0523224
0.0523079
0.0522822
0.0522696
0.0522343
0.0522228
0.0521791
0.0521696
0.0521149
0.0521094
0.0520429
0.0520426
0.0519627
0.0519689
0.0518756
0.0531378
0.0531393
0.0531351
0.0531347
0.0531246
0.0531211
0.0531069
0.0530986
0.0530821
0.0530663
0.0530505
0.0530254
0.0530111
0.0529764
0.0529637
0.0529196
0.052909
0.0528535
0.0528471
0.0527793
0.0527782
0.0526966
0.0527021
0.0526064
0.0538941
0.0538957
0.0538915
0.0538911
0.0538809
0.0538774
0.0538629
0.0538545
0.0538376
0.053822
0.0538052
0.0537805
0.053765
0.0537303
0.0537166
0.053672
0.0536605
0.0536043
0.0535971
0.0535282
0.0535261
0.0534431
0.0534479
0.05335
0.0546622
0.0546638
0.0546595
0.0546592
0.0546489
0.0546453
0.0546305
0.0546222
0.0546047
0.0545893
0.0545717
0.0545471
0.0545307
0.0544958
0.0544812
0.0544361
0.0544238
0.054367
0.0543589
0.0542889
0.0542862
0.0542018
0.0542058
0.0541059
0.0554419
0.0554436
0.0554393
0.055439
0.0554285
0.0554249
0.0554098
0.0554014
0.0553835
0.0553681
0.0553496
0.0553252
0.0553077
0.0552729
0.0552574
0.0552116
0.0551986
0.0551412
0.055132
0.0550614
0.0550575
0.0549722
0.0549756
0.0548739
0.0562334
0.0562352
0.0562307
0.0562304
0.0562196
0.0562161
0.0562006
0.056192
0.0561736
0.0561582
0.0561388
0.0561144
0.0560961
0.0560608
0.0560448
0.0559981
0.0559845
0.0559262
0.0559165
0.055845
0.0558404
0.0557539
0.0557566
0.0556534
0.0570365
0.0570384
0.0570337
0.0570334
0.0570223
0.0570186
0.0570027
0.0569939
0.0569749
0.0569593
0.0569388
0.0569145
0.0568949
0.0568597
0.0568428
0.0567952
0.0567812
0.0567223
0.0567114
0.0566395
0.0566337
0.0565466
0.0565486
0.0564442
0.057851
0.0578529
0.057848
0.0578477
0.0578362
0.0578322
0.0578158
0.0578066
0.057787
0.057771
0.0577494
0.0577253
0.0577043
0.057669
0.0576512
0.0576027
0.0575883
0.0575284
0.0575169
0.0574443
0.0574379
0.0573499
0.0573512
0.0572458
0.0586763
0.0586783
0.0586732
0.0586726
0.0586608
0.0586564
0.0586394
0.0586297
0.0586094
0.0585929
0.0585702
0.0585461
0.0585233
0.0584885
0.058469
0.0584205
0.0584054
0.0583448
0.0583321
0.0582595
0.058252
0.0581637
0.0581643
0.058058
0.0595114
0.0595135
0.0595082
0.0595073
0.0594951
0.0594903
0.0594728
0.0594625
0.0594414
0.0594244
0.0594007
0.0593766
0.0593519
0.0593179
0.0592959
0.0592488
0.0592319
0.0591706
0.0591577
0.0590847
0.0590764
0.0589876
0.0589876
0.0588808
0.0603548
0.0603568
0.0603514
0.0603503
0.0603379
0.0603326
0.0603147
0.0603039
0.0602823
0.0602647
0.0602402
0.060216
0.0601898
0.0601564
0.0601323
0.0600862
0.0600677
0.0600064
0.0599929
0.0599198
0.0599106
0.0598219
0.0598213
0.0597141
0.0612043
0.0612063
0.061201
0.0611998
0.0611873
0.0611819
0.0611639
0.0611529
0.0611309
0.0611131
0.0610882
0.061064
0.0610366
0.0610041
0.0609778
0.0609333
0.0609121
0.0608529
0.0608378
0.0607647
0.0607551
0.0606664
0.0606655
0.0605582
0.0620576
0.0620597
0.0620546
0.0620536
0.0620414
0.0620363
0.0620185
0.0620078
0.0619861
0.0619686
0.0619437
0.0619198
0.061892
0.0618603
0.0618327
0.0617897
0.0617662
0.0617093
0.0616927
0.0616197
0.0616098
0.0615218
0.0615205
0.0614133
0.062913
0.0629152
0.0629105
0.06291
0.0628984
0.0628941
0.0628771
0.0628673
0.0628465
0.0628299
0.0628058
0.0627829
0.0627555
0.0627251
0.0626969
0.0626557
0.0626309
0.0625753
0.062558
0.0624852
0.0624756
0.0623876
0.0623865
0.0622796
0.0637695
0.063772
0.0637678
0.0637681
0.0637574
0.0637543
0.0637386
0.0637304
0.0637111
0.0636962
0.0636736
0.0636525
0.0636263
0.0635978
0.0635701
0.0635312
0.0635054
0.0634526
0.0634333
0.0633629
0.0633525
0.0632649
0.0632638
0.0631572
0.0646281
0.0646308
0.0646273
0.0646286
0.064619
0.0646174
0.0646033
0.0645969
0.0645796
0.0645669
0.0645466
0.0645278
0.0645038
0.0644777
0.0644517
0.0644155
0.0643906
0.0643402
0.0643206
0.0642525
0.0642416
0.0641537
0.064153
0.0640463
0.0654919
0.065495
0.065492
0.0654942
0.0654857
0.0654856
0.065473
0.0654686
0.0654533
0.065443
0.065425
0.065409
0.0653873
0.0653643
0.0653409
0.0653076
0.0652846
0.0652376
0.0652196
0.065153
0.0651435
0.0650558
0.0650551
0.0649474
0.0663666
0.0663703
0.0663672
0.0663705
0.0663623
0.0663637
0.0663518
0.0663492
0.0663352
0.066327
0.0663107
0.0662972
0.0662777
0.0662573
0.0662373
0.0662057
0.0661875
0.0661412
0.066128
0.066063
0.0660573
0.0659705
0.0659712
0.0658628
0.0672601
0.0672645
0.0672605
0.0672652
0.0672557
0.0672589
0.0672454
0.0672452
0.0672298
0.067224
0.0672073
0.0671959
0.0671772
0.0671584
0.0671424
0.0671083
0.0670996
0.0670478
0.0670456
0.0669771
0.066979
0.0668946
0.0668988
0.066796
0.0681815
0.0681854
0.0681822
0.0681851
0.0681766
0.0681771
0.0681648
0.0681615
0.0681472
0.0681386
0.0681224
0.0681098
0.0680905
0.0680734
0.0680548
0.0680233
0.0680148
0.0679651
0.0679635
0.067898
0.067903
0.0678203
0.0678295
0.0677343
0.0691392
0.0691428
0.069139
0.0691409
0.0691309
0.0691298
0.0691153
0.0691097
0.0690927
0.0690815
0.0690625
0.0690471
0.069025
0.0690062
0.0689827
0.0689548
0.0689383
0.0688928
0.0688885
0.0688226
0.0688298
0.0687455
0.068758
0.0686631
0.0701396
0.070143
0.0701383
0.0701389
0.0701268
0.0701234
0.0701058
0.0700968
0.0700759
0.0700604
0.0700368
0.0700166
0.0699894
0.0699657
0.0699364
0.0699052
0.0698818
0.0698357
0.0698257
0.0697566
0.0697639
0.0696744
0.0696895
0.0695904
0.0711862
0.0711898
0.0711837
0.0711833
0.0711687
0.0711629
0.0711416
0.0711293
0.0711032
0.0710832
0.0710532
0.0710272
0.0709927
0.0709622
0.0709246
0.0708864
0.0708547
0.0708008
0.0707853
0.0707071
0.0707119
0.0706137
0.0706294
0.070522
0.072279
0.072283
0.0722752
0.0722744
0.0722572
0.0722497
0.0722244
0.0722096
0.0721776
0.0721548
0.0721164
0.0720867
0.0720423
0.0720052
0.0719582
0.0719101
0.0718702
0.0718014
0.0717783
0.0716865
0.0716839
0.0715724
0.0715857
0.0714645
0.0734146
0.073418
0.0734109
0.0734077
0.0733904
0.0733798
0.0733537
0.0733342
0.0733013
0.0732714
0.0732318
0.0731931
0.0731454
0.0730994
0.0730436
0.0729896
0.0729318
0.0728581
0.0728181
0.072713
0.0726959
0.0725657
0.0725708
0.0724276
0.0745865
0.0745898
0.0745824
0.0745787
0.0745606
0.0745491
0.0745216
0.0745005
0.0744654
0.0744332
0.0743905
0.0743485
0.0742966
0.0742457
0.0741843
0.0741233
0.0740545
0.0739802
0.0739118
0.0738093
0.0737656
0.0736179
0.0736065
0.0734301
0.0757866
0.0757897
0.0757825
0.0757788
0.0757604
0.0757487
0.0757207
0.0756991
0.0756634
0.0756303
0.0755866
0.0755432
0.0754897
0.0754367
0.0753728
0.0753088
0.0752357
0.0751574
0.0750789
0.074978
0.0749047
0.07476
0.0747215
0.0745075
0.0770062
0.0770095
0.0770024
0.076999
0.0769808
0.0769695
0.0769418
0.0769207
0.0768854
0.0768527
0.0768095
0.0767665
0.0767135
0.0766609
0.0765975
0.0765337
0.0764611
0.0763829
0.0763036
0.0762047
0.0761251
0.0759888
0.0759327
0.0757069
0.0782367
0.0782403
0.0782335
0.0782307
0.078213
0.0782026
0.0781757
0.0781558
0.0781215
0.0780903
0.0780485
0.0780073
0.0779561
0.0779055
0.0778443
0.0777832
0.077713
0.077638
0.0775637
0.0774658
0.0773983
0.0772603
0.0772208
0.0770224
0.0794702
0.0794741
0.0794676
0.0794655
0.0794486
0.0794394
0.0794136
0.0793953
0.0793626
0.0793335
0.0792936
0.079255
0.0792062
0.0791588
0.0791007
0.0790433
0.0789769
0.0789066
0.0788365
0.0787449
0.0786827
0.0785527
0.0785159
0.0783321
0.0806995
0.0807037
0.0806976
0.0806964
0.0806803
0.0806725
0.080648
0.0806316
0.0806007
0.0805739
0.0805364
0.0805008
0.080455
0.080411
0.0803565
0.0803033
0.0802411
0.080176
0.0801109
0.0800256
0.0799682
0.0798478
0.0798134
0.0796433
0.0819185
0.0819232
0.0819174
0.0819173
0.0819019
0.0818957
0.0818724
0.0818582
0.081829
0.0818051
0.0817698
0.0817377
0.0816945
0.0816548
0.0816037
0.0815553
0.0814973
0.0814383
0.0813771
0.0812983
0.0812464
0.0811355
0.0811032
0.080947
0.0831226
0.0831275
0.0831216
0.0831232
0.0831079
0.083104
0.0830813
0.0830701
0.0830417
0.0830218
0.0829876
0.0829604
0.0829187
0.0828847
0.0828357
0.0827931
0.0827388
0.0826852
0.0826301
0.0825565
0.0825093
0.0824083
0.0823782
0.0822357
0.084307
0.0843122
0.0843064
0.0843093
0.0842943
0.0842926
0.0842705
0.0842624
0.0842348
0.084219
0.0841855
0.0841638
0.0841227
0.0840954
0.0840472
0.0840124
0.0839596
0.0839132
0.0838618
0.0837956
0.0837519
0.0836611
0.0836332
0.083504
0.0854683
0.0854737
0.0854688
0.0854715
0.0854588
0.0854568
0.085438
0.0854298
0.0854065
0.0853909
0.0853624
0.0853414
0.0853057
0.0852801
0.0852373
0.0852058
0.0851579
0.0851171
0.0850688
0.0850108
0.0849704
0.0848893
0.0848637
0.0847473
0.0866036
0.0866093
0.086605
0.0866082
0.0865967
0.0865956
0.0865787
0.0865718
0.0865513
0.0865369
0.0865124
0.0864926
0.086462
0.0864379
0.086401
0.0863718
0.0863294
0.0862934
0.0862486
0.0861995
0.0861609
0.0860896
0.0860661
0.0859622
0.0877111
0.0877167
0.0877129
0.0877166
0.0877061
0.0877062
0.0876908
0.0876854
0.0876671
0.0876547
0.0876332
0.0876156
0.0875889
0.0875673
0.0875347
0.0875089
0.087471
0.0874394
0.0873987
0.087358
0.0873215
0.0872588
0.0872377
0.0871458
0.0887886
0.088794
0.0887907
0.0887949
0.0887853
0.0887865
0.0887725
0.0887686
0.0887524
0.0887419
0.0887231
0.0887078
0.0886844
0.0886656
0.0886371
0.0886147
0.0885812
0.0885542
0.0885176
0.0884827
0.0884488
0.088396
0.0883764
0.0882962
0.0898342
0.0898398
0.0898368
0.0898417
0.0898328
0.089835
0.0898224
0.08982
0.0898056
0.089797
0.0897806
0.0897677
0.0897474
0.0897314
0.0897065
0.0896875
0.089658
0.0896351
0.0896029
0.089574
0.0895418
0.0894988
0.0894801
0.0894113
0.0908475
0.0908529
0.0908503
0.0908556
0.0908476
0.0908507
0.0908393
0.0908383
0.0908257
0.0908189
0.0908048
0.0907942
0.0907766
0.0907633
0.0907418
0.090726
0.0907004
0.0906815
0.0906532
0.0906291
0.0906005
0.0905657
0.0905484
0.0904901
0.0918272
0.0918327
0.0918303
0.0918361
0.0918286
0.0918328
0.0918224
0.0918229
0.0918117
0.0918068
0.0917948
0.0917863
0.0917714
0.0917606
0.0917423
0.0917295
0.0917074
0.091692
0.0916676
0.0916482
0.0916234
0.0915954
0.0915804
0.0915312
0.0927731
0.0927783
0.0927763
0.0927825
0.0927757
0.0927807
0.0927713
0.092773
0.0927634
0.09276
0.0927501
0.0927435
0.0927311
0.0927227
0.0927073
0.0926974
0.0926787
0.0926669
0.0926461
0.0926308
0.0926094
0.0925884
0.0925741
0.0925339
0.0936846
0.0936899
0.0936881
0.0936943
0.0936888
0.0936937
0.0936861
0.0936884
0.0936804
0.0936785
0.0936704
0.0936657
0.0936556
0.0936494
0.0936367
0.0936295
0.0936138
0.0936052
0.0935878
0.0935768
0.0935589
0.0935426
0.0935302
0.0934986
0.094562
0.0945671
0.0945652
0.0945728
0.0945659
0.0945738
0.0945649
0.09457
0.0945622
0.0945623
0.0945555
0.0945527
0.0945446
0.0945406
0.0945304
0.0945257
0.0945129
0.0945073
0.0944931
0.0944854
0.0944708
0.0944596
0.0944486
0.094425
0.0954049
0.0954099
0.0954093
0.0954145
0.0954122
0.0954158
0.0954125
0.0954147
0.0954107
0.0954105
0.0954062
0.0954046
0.0953986
0.0953964
0.0953886
0.0953862
0.095376
0.0953731
0.0953615
0.0953577
0.0953457
0.0953384
0.0953302
0.0953134
0.0962144
0.0962191
0.0962178
0.0962255
0.0962199
0.0962288
0.0962214
0.0962287
0.0962226
0.0962257
0.0962215
0.096222
0.0962176
0.0962173
0.0962115
0.0962113
0.0962035
0.0962032
0.0961944
0.0961933
0.0961843
0.096181
0.0961745
0.0961644
0.0969899
0.0969945
0.0969944
0.0969998
0.0969985
0.0970031
0.0970015
0.0970048
0.0970035
0.0970051
0.0970037
0.0970048
0.0970024
0.0970036
0.0969998
0.0970015
0.0969959
0.0969981
0.0969915
0.0969936
0.0969868
0.0969872
0.0969832
0.0969783
0.0977329
0.0977371
0.0977371
0.0977431
0.0977412
0.0977477
0.0977448
0.097751
0.0977485
0.0977527
0.0977514
0.0977544
0.0977531
0.0977559
0.0977538
0.0977574
0.0977539
0.097758
0.0977539
0.0977585
0.0977541
0.0977581
0.0977554
0.0977559
0.0984433
0.0984477
0.0984476
0.0984539
0.0984519
0.0984591
0.098457
0.0984629
0.0984624
0.0984664
0.098467
0.0984706
0.0984708
0.0984749
0.0984744
0.0984796
0.0984779
0.0984842
0.0984817
0.0984889
0.0984864
0.0984933
0.0984924
0.0984976
0.0991225
0.0991261
0.0991276
0.0991314
0.0991333
0.0991367
0.0991388
0.0991425
0.0991444
0.0991483
0.0991503
0.0991547
0.0991561
0.0991615
0.0991622
0.099169
0.0991689
0.0991768
0.0991763
0.0991856
0.0991848
0.0991947
0.0991946
0.0992043
0.0997707
0.0997748
0.0997748
0.0997814
0.0997795
0.099788
0.0997859
0.099794
0.0997937
0.0998002
0.0998017
0.0998077
0.0998099
0.0998165
0.0998184
0.0998265
0.0998278
0.0998375
0.0998381
0.0998494
0.0998501
0.0998625
0.0998635
0.099877
0.100389
0.100392
0.100395
0.100398
0.100401
0.100404
0.100408
0.100411
0.100416
0.10042
0.100424
0.10043
0.100433
0.100441
0.100444
0.100453
0.100456
0.100466
0.100469
0.100482
0.100484
0.100498
0.1005
0.100517
0.100979
0.100982
0.100983
0.100988
0.100989
0.100996
0.100996
0.101004
0.101005
0.101013
0.101016
0.101023
0.101027
0.101035
0.101039
0.10105
0.101053
0.101066
0.101069
0.101083
0.101086
0.101103
0.101106
0.101125
0.101541
0.101544
0.101546
0.10155
0.101552
0.101557
0.10156
0.101565
0.10157
0.101575
0.10158
0.101587
0.101593
0.101601
0.101606
0.101617
0.101622
0.101635
0.10164
0.101655
0.101659
0.101677
0.101681
0.101703
0.102076
0.102078
0.102081
0.102083
0.102088
0.10209
0.102096
0.1021
0.102105
0.102112
0.102117
0.102125
0.10213
0.10214
0.102145
0.102157
0.102163
0.102177
0.102182
0.102199
0.102204
0.102224
0.102227
0.102252
0.102585
0.102587
0.102589
0.102594
0.102594
0.102602
0.102603
0.102611
0.102614
0.102622
0.102627
0.102636
0.102642
0.102652
0.102658
0.102671
0.102677
0.102692
0.102698
0.102716
0.102721
0.102742
0.102746
0.102773
0.103069
0.103071
0.103074
0.103075
0.103082
0.103082
0.103091
0.103092
0.103101
0.103106
0.103113
0.103121
0.103128
0.103139
0.103145
0.103158
0.103165
0.103181
0.103187
0.103206
0.103213
0.103235
0.10324
0.103267
0.103529
0.103532
0.103533
0.103538
0.103538
0.103547
0.103547
0.103557
0.103558
0.103569
0.103573
0.103583
0.10359
0.103601
0.103608
0.103622
0.103629
0.103645
0.103653
0.103672
0.103679
0.103702
0.103708
0.103736
0.103966
0.103968
0.103971
0.103973
0.103979
0.10398
0.103988
0.10399
0.103999
0.104004
0.104013
0.104021
0.104029
0.10404
0.104048
0.104062
0.10407
0.104087
0.104094
0.104114
0.104121
0.104146
0.104152
0.104181
0.104382
0.104384
0.104385
0.10439
0.104391
0.104398
0.1044
0.104409
0.104412
0.104422
0.104427
0.104438
0.104445
0.104457
0.104465
0.104479
0.104487
0.104504
0.104513
0.104534
0.104541
0.104566
0.104572
0.104603
0.104776
0.104777
0.104781
0.104782
0.104788
0.10479
0.104797
0.104801
0.104809
0.104815
0.104823
0.104832
0.10484
0.104852
0.10486
0.104875
0.104884
0.104901
0.10491
0.104931
0.104939
0.104964
0.104971
0.105002
0.10515
0.105153
0.105153
0.105158
0.105159
0.105167
0.105169
0.105177
0.105182
0.10519
0.105197
0.105207
0.105215
0.105227
0.105236
0.105251
0.10526
0.105277
0.105286
0.105308
0.105316
0.105341
0.105348
0.105381
0.105506
0.105507
0.10551
0.105511
0.105517
0.105519
0.105526
0.105531
0.105538
0.105546
0.105553
0.105563
0.105571
0.105583
0.105592
0.105607
0.105616
0.105634
0.105643
0.105664
0.105673
0.105699
0.105706
0.105739
0.105843
0.105845
0.105846
0.10585
0.105852
0.105859
0.105861
0.105869
0.105874
0.105883
0.10589
0.1059
0.105908
0.10592
0.105929
0.105944
0.105953
0.105972
0.10598
0.106003