/*--------------------------------*- C++ -*----------------------------------*\
  =========                 |
  \\      /  F ield         | OpenFOAM: The Open Source CFD Toolbox
   \\    /   O peration     | Website:  https://openfoam.org
    \\  /    A nd           | Version:  10
     \\/     M anipulation  |
\*---------------------------------------------------------------------------*/
FoamFile
{
    format      ascii;
    class       volScalarField;
    location    "0.22";
    object      T;
}
// * * * * * * * * * * * * * * * * * * * * * * * * * * * * * * * * * * * * * //

dimensions      [0 0 0 1 0 0 0];

internalField   nonuniform List<scalar> 
4176
(
180.347
180.352
180.373
180.383
180.427
180.445
180.507
180.539
180.614
180.661
180.75
180.81
180.914
180.985
181.101
181.193
181.307
181.43
181.535
181.704
181.779
182.011
182.025
182.327
180.357
180.361
180.382
180.393
180.437
180.457
180.519
180.553
180.629
180.678
180.768
180.83
180.936
181.01
181.128
181.223
181.34
181.465
181.572
181.745
181.82
182.062
182.079
182.412
180.385
180.389
180.41
180.421
180.463
180.483
180.543
180.576
180.65
180.699
180.786
180.847
180.951
181.022
181.139
181.23
181.347
181.468
181.573
181.741
181.812
182.049
182.067
182.41
180.436
180.441
180.461
180.472
180.514
180.535
180.594
180.628
180.701
180.75
180.837
180.898
181.002
181.073
181.191
181.281
181.399
181.522
181.623
181.796
181.864
182.098
182.113
182.44
180.511
180.516
180.536
180.547
180.588
180.608
180.667
180.7
180.773
180.821
180.908
180.967
181.071
181.14
181.258
181.346
181.465
181.586
181.684
181.858
181.925
182.156
182.172
182.488
180.61
180.615
180.635
180.645
180.687
180.707
180.765
180.798
180.869
180.918
181.003
181.063
181.165
181.234
181.351
181.437
181.558
181.673
181.777
181.946
182.015
182.244
182.262
182.579
180.733
180.738
180.758
180.768
180.809
180.829
180.886
180.919
180.989
181.037
181.121
181.181
181.281
181.35
181.466
181.55
181.672
181.782
181.89
182.052
182.124
182.35
182.37
182.685
180.88
180.885
180.905
180.914
180.955
180.974
181.031
181.063
181.133
181.18
181.264
181.322
181.422
181.489
181.604
181.687
181.808
181.915
182.025
182.182
182.256
182.478
182.499
182.81
181.051
181.055
181.075
181.085
181.125
181.144
181.2
181.232
181.3
181.347
181.429
181.487
181.585
181.652
181.765
181.846
181.967
182.07
182.182
182.333
182.41
182.627
182.65
182.956
181.246
181.25
181.269
181.279
181.319
181.337
181.393
181.424
181.491
181.537
181.618
181.675
181.772
181.837
181.949
182.029
182.149
182.248
182.361
182.507
182.586
182.797
182.822
183.123
181.464
181.468
181.487
181.496
181.536
181.554
181.609
181.639
181.706
181.751
181.831
181.886
181.982
182.046
182.157
182.234
182.353
182.449
182.563
182.704
182.785
182.989
183.016
183.311
181.706
181.71
181.729
181.738
181.777
181.794
181.849
181.878
181.944
181.988
182.067
182.121
182.215
182.278
182.387
182.463
182.58
182.673
182.787
182.923
183.004
183.205
183.231
183.521
181.971
181.975
181.994
182.003
182.041
182.058
182.112
182.141
182.205
182.249
182.326
182.379
182.472
182.533
182.64
182.714
182.83
182.92
183.034
183.164
183.247
183.44
183.468
183.752
182.261
182.265
182.283
182.291
182.33
182.346
182.399
182.426
182.49
182.532
182.608
182.66
182.751
182.811
182.916
182.988
183.102
183.189
183.303
183.428
183.511
183.699
183.727
184.004
182.574
182.578
182.596
182.604
182.641
182.657
182.709
182.736
182.799
182.84
182.914
182.965
183.054
183.112
183.215
183.285
183.397
183.481
183.594
183.714
183.798
183.979
184.007
184.278
182.911
182.914
182.933
182.94
182.977
182.992
183.043
183.069
183.13
183.17
183.243
183.292
183.38
183.436
183.537
183.604
183.715
183.796
183.907
184.022
184.106
184.282
184.31
184.574
183.271
183.275
183.293
183.3
183.336
183.35
183.401
183.425
183.486
183.524
183.595
183.643
183.728
183.782
183.882
183.946
184.055
184.133
184.243
184.353
184.437
184.606
184.634
184.892
183.655
183.659
183.677
183.683
183.719
183.732
183.782
183.805
183.864
183.901
183.971
184.016
184.1
184.152
184.249
184.311
184.418
184.493
184.6
184.706
184.789
184.952
184.981
185.231
184.063
184.067
184.084
184.09
184.125
184.138
184.186
184.208
184.266
184.301
184.369
184.413
184.495
184.545
184.639
184.699
184.803
184.875
184.98
185.08
185.164
185.32
185.349
185.592
184.495
184.498
184.516
184.521
184.555
184.567
184.614
184.635
184.691
184.725
184.791
184.833
184.912
184.96
185.052
185.109
185.21
185.279
185.382
185.478
185.56
185.71
185.738
185.974
184.951
184.954
184.971
184.975
185.009
185.02
185.066
185.085
185.14
185.172
185.236
185.276
185.353
185.398
185.488
185.542
185.64
185.706
185.806
185.897
185.978
186.122
186.15
186.378
185.43
185.433
185.449
185.453
185.486
185.496
185.541
185.559
185.612
185.642
185.704
185.742
185.817
185.859
185.946
185.997
186.093
186.155
186.253
186.338
186.419
186.556
186.584
186.804
185.932
185.935
185.951
185.955
185.987
185.995
186.039
186.056
186.107
186.136
186.196
186.231
186.303
186.343
186.427
186.475
186.568
186.626
186.721
186.802
186.881
187.011
187.039
187.251
186.459
186.461
186.477
186.48
186.511
186.518
186.561
186.576
186.626
186.652
186.71
186.743
186.813
186.85
186.931
186.976
187.066
187.12
187.212
187.288
187.365
187.489
187.516
187.72
187.008
187.011
187.026
187.028
187.059
187.065
187.106
187.12
187.167
187.192
187.247
187.278
187.345
187.38
187.458
187.499
187.586
187.637
187.725
187.797
187.872
187.988
188.014
188.21
187.581
187.583
187.598
187.6
187.629
187.634
187.674
187.686
187.732
187.754
187.808
187.836
187.9
187.932
188.007
188.045
188.129
188.176
188.26
188.328
188.4
188.51
188.534
188.722
188.177
188.179
188.194
188.195
188.223
188.227
188.265
188.276
188.32
188.34
188.391
188.417
188.478
188.507
188.579
188.614
188.694
188.737
188.818
188.881
188.951
189.053
189.076
189.256
188.796
188.798
188.812
188.812
188.84
188.843
188.88
188.888
188.93
188.948
188.997
189.02
189.078
189.105
189.173
189.205
189.281
189.321
189.398
189.456
189.522
189.619
189.64
189.812
189.438
189.44
189.454
189.453
189.48
189.481
189.517
189.523
189.564
189.58
189.626
189.646
189.702
189.725
189.79
189.818
189.891
189.927
190
190.053
190.117
190.205
190.227
190.389
190.102
190.104
190.117
190.116
190.142
190.142
190.176
190.181
190.22
190.233
190.277
190.295
190.348
190.368
190.429
190.454
190.523
190.555
190.624
190.673
190.733
190.815
190.836
190.987
190.789
190.791
190.804
190.802
190.827
190.826
190.858
190.862
190.898
190.91
190.951
190.966
191.016
191.033
191.091
191.112
191.178
191.205
191.271
191.315
191.371
191.447
191.465
191.609
191.499
191.5
191.512
191.51
191.534
191.531
191.563
191.564
191.599
191.608
191.647
191.66
191.706
191.72
191.775
191.792
191.854
191.878
191.94
191.979
192.031
192.1
192.117
192.252
192.23
192.231
192.243
192.24
192.263
192.259
192.289
192.289
192.322
192.329
192.365
192.375
192.419
192.43
192.482
192.495
192.554
192.573
192.63
192.665
192.713
192.776
192.792
192.916
192.983
192.984
192.996
192.992
193.014
193.009
193.037
193.036
193.066
193.071
193.106
193.113
193.154
193.162
193.21
193.22
193.275
193.29
193.344
193.373
193.417
193.474
193.488
193.603
193.758
193.759
193.77
193.765
193.786
193.78
193.808
193.804
193.833
193.836
193.868
193.872
193.911
193.916
193.961
193.967
194.018
194.029
194.079
194.103
194.144
194.194
194.206
194.312
194.554
194.555
194.566
194.56
194.581
194.573
194.599
194.594
194.621
194.622
194.651
194.654
194.689
194.691
194.733
194.735
194.783
194.79
194.836
194.855
194.892
194.936
194.946
195.042
195.372
195.373
195.383
195.377
195.396
195.388
195.412
195.406
195.431
195.43
195.457
195.456
195.489
195.488
195.527
195.525
195.57
195.572
195.616
195.629
195.663
195.701
195.707
195.794
196.21
196.211
196.221
196.214
196.233
196.223
196.246
196.238
196.262
196.259
196.283
196.28
196.31
196.306
196.342
196.337
196.378
196.376
196.416
196.425
196.455
196.487
196.49
196.568
197.07
197.07
197.08
197.072
197.09
197.08
197.101
197.092
197.114
197.108
197.131
197.126
197.153
197.146
197.179
197.17
197.208
197.201
197.238
197.241
197.268
197.295
197.295
197.363
197.95
197.95
197.959
197.951
197.968
197.957
197.977
197.966
197.986
197.979
197.999
197.992
198.017
198.007
198.037
198.024
198.059
198.048
198.081
198.08
198.103
198.123
198.121
198.181
198.85
198.85
198.859
198.851
198.867
198.854
198.874
198.861
198.88
198.871
198.889
198.879
198.901
198.888
198.916
198.899
198.931
198.915
198.945
198.939
198.958
198.973
198.967
199.02
199.771
199.771
199.779
199.77
199.786
199.772
199.79
199.776
199.793
199.782
199.798
199.786
199.806
199.79
199.815
199.794
199.824
199.804
199.831
199.819
199.835
199.844
199.835
199.88
200.711
200.712
200.719
200.71
200.724
200.71
200.727
200.712
200.727
200.714
200.728
200.714
200.731
200.712
200.735
200.71
200.737
200.713
200.737
200.72
200.733
200.735
200.724
200.761
201.672
201.672
201.68
201.67
201.683
201.668
201.684
201.667
201.681
201.666
201.678
201.661
201.676
201.655
201.675
201.646
201.671
201.642
201.663
201.641
201.652
201.647
201.633
201.662
202.652
202.652
202.659
202.649
202.662
202.646
202.66
202.642
202.654
202.638
202.647
202.628
202.641
202.617
202.634
202.602
202.624
202.591
202.61
202.582
202.59
202.58
202.564
202.584
203.652
203.652
203.658
203.647
203.66
203.642
203.655
203.636
203.646
203.628
203.636
203.615
203.625
203.598
203.613
203.578
203.597
203.56
203.576
203.543
203.549
203.532
203.515
203.527
204.67
204.67
204.676
204.665
204.676
204.658
204.67
204.65
204.658
204.638
204.644
204.621
204.629
204.599
204.611
204.572
204.589
204.548
204.562
204.523
204.528
204.503
204.486
204.489
205.707
205.707
205.713
205.701
205.712
205.693
205.703
205.682
205.689
205.667
205.671
205.645
205.651
205.619
205.629
205.586
205.601
205.555
205.567
205.523
205.526
205.493
205.477
205.47
206.763
206.763
206.768
206.756
206.765
206.746
206.755
206.732
206.737
206.714
206.716
206.688
206.692
206.657
206.664
206.618
206.631
206.58
206.591
206.541
206.542
206.502
206.487
206.471
207.836
207.836
207.841
207.828
207.837
207.816
207.825
207.8
207.804
207.779
207.779
207.749
207.751
207.713
207.718
207.669
207.68
207.624
207.633
207.577
207.579
207.531
207.515
207.491
208.926
208.926
208.931
208.917
208.926
208.904
208.911
208.886
208.888
208.862
208.86
208.828
208.828
208.787
208.79
208.737
208.746
208.686
208.694
208.63
208.634
208.576
208.562
208.529
210.033
210.033
210.038
210.024
210.031
210.009
210.015
209.988
209.989
209.961
209.958
209.923
209.921
209.878
209.88
209.822
209.831
209.765
209.773
209.702
209.707
209.641
209.626
209.586
211.156
211.156
211.16
211.146
211.153
211.13
211.135
211.107
211.107
211.077
211.072
211.036
211.032
210.985
210.986
210.925
210.933
210.86
210.87
210.792
210.795
210.724
210.709
210.66
212.295
212.295
212.299
212.284
212.29
212.266
212.271
212.242
212.24
212.209
212.202
212.164
212.159
212.109
212.109
212.044
212.051
211.973
211.984
211.898
211.903
211.825
211.808
211.753
213.449
213.448
213.452
213.437
213.442
213.418
213.421
213.391
213.388
213.356
213.348
213.307
213.302
213.248
213.248
213.178
213.186
213.103
213.112
213.023
213.024
212.942
212.924
212.862
214.616
214.615
214.619
214.603
214.609
214.584
214.586
214.555
214.551
214.517
214.509
214.465
214.46
214.402
214.403
214.328
214.336
214.247
214.257
214.162
214.164
214.076
214.057
213.989
215.797
215.796
215.8
215.784
215.789
215.763
215.765
215.733
215.728
215.692
215.684
215.637
215.632
215.57
215.572
215.493
215.5
215.41
215.416
215.319
215.318
215.226
215.206
215.131
216.99
216.99
216.992
216.977
216.981
216.955
216.956
216.923
216.919
216.88
216.873
216.823
216.818
216.754
216.753
216.674
216.678
216.585
216.591
216.49
216.488
216.391
216.371
216.29
218.195
218.195
218.197
218.182
218.185
218.159
218.159
218.126
218.122
218.081
218.073
218.022
218.016
217.95
217.949
217.867
217.87
217.776
217.778
217.676
217.671
217.572
217.55
217.464
219.412
219.412
219.414
219.398
219.401
219.375
219.374
219.341
219.335
219.294
219.286
219.234
219.226
219.16
219.157
219.074
219.075
218.979
218.98
218.875
218.869
218.766
218.744
218.653
220.639
220.638
220.641
220.625
220.628
220.601
220.6
220.567
220.559
220.52
220.509
220.457
220.448
220.381
220.377
220.292
220.292
220.196
220.194
220.087
220.08
219.974
219.951
219.855
221.875
221.875
221.877
221.861
221.864
221.838
221.836
221.804
221.794
221.756
221.742
221.691
221.681
221.614
221.608
221.523
221.521
221.423
221.42
221.312
221.304
221.195
221.171
221.071
223.122
223.122
223.124
223.108
223.111
223.084
223.082
223.049
223.038
223.001
222.986
222.936
222.924
222.856
222.851
222.764
222.761
222.662
222.658
222.549
222.539
222.427
222.403
222.299
224.377
224.377
224.379
224.363
224.366
224.339
224.337
224.304
224.292
224.256
224.239
224.191
224.176
224.11
224.102
224.015
224.011
223.911
223.905
223.795
223.785
223.671
223.646
223.538
225.641
225.641
225.643
225.627
225.63
225.603
225.6
225.568
225.556
225.52
225.501
225.454
225.437
225.372
225.363
225.275
225.27
225.17
225.163
225.052
225.04
224.924
224.9
224.788
226.913
226.913
226.915
226.899
226.902
226.875
226.872
226.84
226.827
226.792
226.772
226.725
226.708
226.642
226.632
226.544
226.538
226.436
226.429
226.317
226.305
226.187
226.162
226.048
228.193
228.193
228.196
228.179
228.182
228.155
228.152
228.12
228.106
228.072
228.05
228.004
227.985
227.92
227.908
227.821
227.814
227.712
227.703
227.59
227.577
227.458
227.433
227.316
229.481
229.482
229.484
229.468
229.47
229.443
229.44
229.407
229.393
229.358
229.336
229.29
229.27
229.204
229.191
229.104
229.096
228.992
228.985
228.869
228.857
228.736
228.711
228.592
230.777
230.777
230.779
230.763
230.765
230.738
230.734
230.701
230.686
230.652
230.627
230.582
230.56
230.495
230.48
230.394
230.385
230.281
230.271
230.156
230.142
230.021
229.996
229.875
232.079
232.08
232.081
232.065
232.066
232.039
232.034
232.001
231.985
231.95
231.924
231.88
231.855
231.791
231.774
231.689
231.678
231.573
231.565
231.447
231.434
231.311
231.286
231.164
233.387
233.387
233.389
233.372
233.373
233.344
233.339
233.305
233.289
233.253
233.226
233.182
233.155
233.092
233.073
232.988
232.976
232.872
232.862
232.744
232.729
232.608
232.582
232.459
234.697
234.698
234.699
234.682
234.683
234.654
234.648
234.613
234.596
234.56
234.531
234.488
234.458
234.397
234.374
234.292
234.276
234.174
234.164
234.045
234.031
233.908
233.883
233.76
236.009
236.009
236.011
235.992
235.994
235.964
235.958
235.923
235.905
235.869
235.839
235.796
235.765
235.705
235.679
235.599
235.581
235.481
235.469
235.351
235.336
235.215
235.189
235.065
237.317
237.317
237.319
237.301
237.303
237.273
237.268
237.232
237.215
237.178
237.149
237.106
237.073
237.016
236.987
236.91
236.89
236.791
236.778
236.662
236.647
236.525
236.5
236.377
238.619
238.62
238.622
238.605
238.607
238.578
238.573
238.539
238.522
238.487
238.458
238.417
238.384
238.329
238.299
238.225
238.201
238.108
238.089
237.979
237.962
237.841
237.817
237.694
239.914
239.915
239.918
239.901
239.905
239.877
239.874
239.841
239.827
239.793
239.766
239.727
239.696
239.643
239.613
239.542
239.518
239.426
239.408
239.299
239.283
239.162
239.139
239.017
241.2
241.201
241.206
241.19
241.195
241.169
241.169
241.138
241.126
241.096
241.071
241.036
241.006
240.957
240.929
240.862
240.837
240.752
240.732
240.624
240.609
240.49
240.468
240.346
242.481
242.483
242.488
242.473
242.48
242.456
242.459
242.431
242.422
242.395
242.374
242.342
242.316
242.271
242.246
242.184
242.162
242.08
242.06
241.958
241.943
241.824
241.803
241.681
243.763
243.764
243.77
243.757
243.766
243.743
243.748
243.723
243.717
243.693
243.675
243.648
243.625
243.584
243.563
243.505
243.487
243.409
243.396
243.293
243.283
243.165
243.146
243.023
245.053
245.056
245.062
245.05
245.058
245.038
245.042
245.021
245.015
244.995
244.978
244.954
244.934
244.897
244.881
244.824
244.815
244.736
244.731
244.631
244.628
244.512
244.497
244.377
246.365
246.367
246.373
246.361
246.369
246.349
246.354
246.332
246.326
246.306
246.29
246.267
246.248
246.214
246.199
246.143
246.141
246.059
246.066
245.964
245.969
245.857
245.848
245.736
247.708
247.711
247.717
247.703
247.711
247.688
247.692
247.667
247.66
247.638
247.62
247.596
247.574
247.541
247.523
247.471
247.465
247.387
247.394
247.294
247.304
247.192
247.19
247.085
249.094
249.096
249.102
249.086
249.092
249.066
249.067
249.038
249.028
249.001
248.979
248.95
248.924
248.887
248.862
248.811
248.796
248.72
248.724
248.623
248.635
248.52
248.522
248.416
250.529
250.531
250.535
250.517
250.521
250.492
250.489
250.455
250.439
250.406
250.378
250.342
250.307
250.264
250.229
250.173
250.148
250.07
250.063
249.957
249.968
249.845
249.85
249.736
252.014
252.016
252.018
251.999
252
251.968
251.96
251.922
251.899
251.862
251.823
251.781
251.736
251.684
251.638
251.572
251.535
251.443
251.431
251.309
251.315
251.178
251.182
251.055
253.546
253.548
253.549
253.529
253.528
253.492
253.481
253.439
253.411
253.367
253.323
253.273
253.218
253.157
253.099
253.023
252.97
252.866
252.835
252.699
252.691
252.534
252.533
252.382
255.119
255.12
255.122
255.099
255.098
255.059
255.047
255
254.97
254.921
254.873
254.815
254.755
254.685
254.617
254.533
254.461
254.352
254.296
254.15
254.118
253.937
253.922
253.736
256.721
256.723
256.724
256.701
256.699
256.66
256.646
256.598
256.566
256.515
256.464
256.403
256.339
256.265
256.19
256.101
256.018
255.907
255.823
255.681
255.613
255.422
255.382
255.149
258.342
258.343
258.345
258.321
258.32
258.28
258.267
258.219
258.187
258.135
258.084
258.023
257.958
257.883
257.806
257.716
257.628
257.517
257.424
257.283
257.192
257.005
256.938
256.671
259.969
259.969
259.972
259.949
259.948
259.909
259.897
259.85
259.819
259.769
259.719
259.66
259.596
259.523
259.447
259.36
259.273
259.165
259.072
258.936
258.844
258.663
258.593
258.328
261.59
261.591
261.594
261.572
261.572
261.535
261.524
261.479
261.45
261.402
261.354
261.298
261.237
261.168
261.096
261.013
260.93
260.828
260.742
260.61
260.529
260.353
260.294
260.053
263.196
263.197
263.201
263.18
263.181
263.146
263.137
263.094
263.067
263.023
262.978
262.926
262.868
262.805
262.736
262.66
262.582
262.488
262.406
262.285
262.21
262.046
261.993
261.772
264.779
264.781
264.786
264.765
264.768
264.734
264.727
264.687
264.663
264.622
264.58
264.533
264.479
264.421
264.357
264.288
264.215
264.129
264.054
263.942
263.874
263.723
263.674
263.471
266.332
266.335
266.34
266.321
266.325
266.293
266.288
266.251
266.229
266.192
266.152
266.112
266.06
266.01
265.949
265.887
265.819
265.743
265.671
265.572
265.508
265.371
265.326
265.142
267.851
267.854
267.859
267.842
267.846
267.817
267.813
267.78
267.759
267.728
267.69
267.655
267.606
267.563
267.505
267.452
267.388
267.32
267.255
267.165
267.107
266.984
266.941
266.775
269.331
269.334
269.34
269.323
269.329
269.302
269.3
269.269
269.251
269.223
269.188
269.159
269.112
269.077
269.021
268.977
268.916
268.859
268.797
268.716
268.663
268.554
268.513
268.366
270.769
270.772
270.778
270.762
270.77
270.743
270.744
270.714
270.701
270.675
270.645
270.617
270.577
270.545
270.495
270.456
270.401
270.35
270.293
270.225
270.176
270.08
270.04
269.911
272.162
272.165
272.172
272.156
272.166
272.14
272.144
272.115
272.105
272.081
272.056
272.031
271.996
271.967
271.923
271.889
271.839
271.796
271.742
271.685
271.639
271.556
271.518
271.405
273.508
273.512
273.52
273.504
273.515
273.491
273.496
273.47
273.463
273.441
273.419
273.397
273.367
273.341
273.303
273.273
273.229
273.192
273.143
273.097
273.051
272.981
272.946
272.848
274.809
274.811
274.82
274.805
274.818
274.794
274.802
274.777
274.772
274.753
274.734
274.716
274.689
274.667
274.633
274.608
274.569
274.539
274.494
274.455
274.413
274.355
274.322
274.239
276.06
276.063
276.072
276.059
276.071
276.05
276.058
276.036
276.033
276.016
276.001
275.985
275.962
275.944
275.914
275.893
275.858
275.834
275.793
275.763
275.722
275.676
275.646
275.577
277.264
277.267
277.277
277.262
277.279
277.255
277.268
277.245
277.246
277.23
277.218
277.205
277.185
277.17
277.144
277.128
277.097
277.078
277.042
277.018
276.981
276.947
276.915
276.86
278.421
278.424
278.432
278.422
278.433
278.417
278.425
278.409
278.408
278.397
278.386
278.376
278.359
278.348
278.325
278.312
278.286
278.271
278.239
278.222
278.188
278.161
278.134
278.089
279.529
279.532
279.543
279.527
279.548
279.523
279.542
279.519
279.526
279.513
279.506
279.498
279.484
279.475
279.456
279.447
279.424
279.414
279.386
279.373
279.344
279.326
279.298
279.265
280.591
280.594
280.603
280.594
280.606
280.593
280.602
280.59
280.591
280.585
280.577
280.572
280.56
280.555
280.539
280.533
280.513
280.507
280.482
280.476
280.449
280.438
280.412
280.389
281.607
281.609
281.62
281.608
281.625
281.607
281.624
281.606
281.615
281.606
281.603
281.599
281.589
281.587
281.573
281.57
281.554
281.552
281.53
281.527
281.504
281.499
281.475
281.461
282.578
282.581
282.588
282.582
282.593
282.584
282.592
282.585
282.587
282.585
282.58
282.58
282.572
282.572
282.561
282.561
282.547
282.548
282.53
282.532
282.51
282.511
282.489
282.484
283.505
283.506
283.517
283.506
283.525
283.507
283.526
283.511
283.522
283.515
283.516
283.515
283.51
283.512
283.503
283.505
283.494
283.498
283.483
283.488
283.47
283.476
283.456
283.457
284.388
284.392
284.396
284.397
284.399
284.403
284.402
284.405
284.403
284.408
284.404
284.408
284.403
284.407
284.401
284.405
284.396
284.404
284.39
284.4
284.383
284.393
284.377
284.383
285.231
285.232
285.244
285.231
285.254
285.233
285.258
285.241
285.256
285.25
285.254
285.256
285.255
285.26
285.255
285.262
285.255
285.264
285.254
285.266
285.252
285.267
285.251
285.263
286.032
286.037
286.037
286.046
286.039
286.054
286.044
286.059
286.051
286.062
286.058
286.066
286.064
286.071
286.068
286.077
286.072
286.084
286.075
286.09
286.078
286.096
286.083
286.098
286.796
286.797
286.808
286.796
286.82
286.799
286.826
286.809
286.828
286.822
286.83
286.833
286.834
286.842
286.841
286.851
286.848
286.861
286.855
286.872
286.862
286.883
286.871
286.891
287.521
287.527
287.525
287.536
287.528
287.545
287.533
287.553
287.543
287.559
287.554
287.566
287.565
287.575
287.575
287.586
287.585
287.6
287.595
287.614
287.605
287.63
287.619
287.643
288.212
288.213
288.221
288.215
288.231
288.221
288.239
288.23
288.245
288.243
288.252
288.257
288.261
288.27
288.272
288.285
288.284
288.301
288.298
288.319
288.311
288.338
288.327
288.356
288.866
288.871
288.871
288.878
288.877
288.886
288.884
288.896
288.894
288.907
288.906
288.918
288.919
288.931
288.934
288.947
288.948
288.966
288.963
288.987
288.979
289.009
288.998
289.031
289.489
289.491
289.494
289.499
289.5
289.507
289.509
289.516
289.521
289.528
289.532
289.542
289.546
289.557
289.561
289.576
289.577
289.596
289.595
289.62
289.613
289.644
289.636
289.669
290.079
290.082
290.086
290.086
290.095
290.093
290.105
290.104
290.114
290.119
290.125
290.135
290.139
290.151
290.156
290.171
290.173
290.194
290.193
290.219
290.214
290.247
290.241
290.27
290.64
290.643
290.643
290.652
290.647
290.663
290.655
290.673
290.668
290.684
290.684
290.698
290.702
290.715
290.72
290.736
290.739
290.76
290.761
290.788
290.783
290.817
290.808
290.847
291.171
291.173
291.178
291.177
291.187
291.183
291.199
291.194
291.21
291.21
291.221
291.229
291.236
291.249
291.255
291.271
291.274
291.297
291.297
291.325
291.321
291.357
291.349
291.388
291.675
291.678
291.678
291.686
291.683
291.697
291.691
291.709
291.704
291.722
291.721
291.736
291.74
291.755
291.761
291.778
291.782
291.804
291.806
291.835
291.832
291.867
291.859
291.901
292.153
292.154
292.159
292.159
292.167
292.166
292.178
292.178
292.19
292.194
292.203
292.213
292.22
292.234
292.241
292.258
292.262
292.286
292.288
292.316
292.314
292.351
292.344
292.385
292.605
292.609
292.608
292.616
292.614
292.626
292.624
292.637
292.638
292.65
292.654
292.667
292.674
292.688
292.695
292.713
292.718
292.741
292.743
292.773
292.771
292.808
292.8
292.846
293.035
293.035
293.041
293.039
293.049
293.047
293.058
293.061
293.07
293.078
293.084
293.096
293.103
293.118
293.125
293.143
293.148
293.172
293.175
293.203
293.203
293.241
293.234
293.277
293.44
293.444
293.442
293.452
293.448
293.461
293.459
293.471
293.474
293.485
293.491
293.503
293.51
293.524
293.532
293.55
293.556
293.579
293.582
293.613
293.612
293.649
293.643
293.688
293.826
293.826
293.831
293.83
293.84
293.839
293.849
293.852
293.861
293.868
293.876
293.888
293.895
293.91
293.917
293.936
293.941
293.965
293.969
293.997
293.998
294.036
294.03
294.074
294.19
294.192
294.193
294.198
294.199
294.208
294.209
294.219
294.223
294.234
294.24
294.252
294.259
294.274
294.282
294.3
294.306
294.33
294.333
294.364
294.363
294.401
294.396
294.439
294.535
294.537
294.539
294.542
294.546
294.551
294.556
294.562
294.57
294.577
294.586
294.597
294.605
294.619
294.626
294.646
294.651
294.675
294.679
294.708
294.709
294.746
294.74
294.785
294.862
294.863
294.866
294.868
294.874
294.876
294.884
294.889
294.896
294.905
294.912
294.924
294.931
294.946
294.953
294.972
294.978
295.002
295.005
295.035
295.036
295.072
295.068
295.11
295.172
295.173
295.175
295.179
295.181
295.188
295.191
295.2
295.204
295.214
295.221
295.233
295.24
295.255
295.262
295.281
295.287
295.31
295.315
295.343
295.345
295.38
295.376
295.42
295.465
295.466
295.468
295.471
295.475
295.479
295.485
295.49
295.498
295.506
295.514
295.525
295.533
295.547
295.554
295.573
295.58
295.603
295.606
295.635
295.638
295.671
295.669
295.71
295.742
295.743
295.747
295.747
295.754
295.755
295.763
295.767
295.775
295.783
295.791
295.802
295.809
295.824
295.831
295.85
295.856
295.878
295.884
295.912
295.915
295.947
295.945
295.987
296.005
296.007
296.007
296.014
296.011
296.023
296.021
296.033
296.035
296.047
296.052
296.064
296.071
296.086
296.093
296.111
296.118
296.141
296.145
296.173
296.176
296.208
296.207
296.247
296.254
296.254
296.259
296.257
296.267
296.263
296.277
296.275
296.288
296.291
296.302
296.311
296.32
296.334
296.341
296.358
296.366
296.387
296.392
296.42
296.422
296.455
296.453
296.494
296.489
296.491
296.49
296.498
296.494
296.508
296.503
296.518
296.516
296.531
296.534
296.547
296.553
296.568
296.575
296.592
296.6
296.622
296.626
296.653
296.659
296.686
296.687
296.726
296.713
296.712
296.717
296.714
296.725
296.721
296.734
296.733
296.745
296.749
296.759
296.768
296.776
296.79
296.797
296.814
296.822
296.843
296.847
296.875
296.876
296.909
296.907
296.947
296.923
296.926
296.923
296.933
296.927
296.941
296.936
296.951
296.95
296.963
296.967
296.979
296.986
297
297.006
297.024
297.031
297.052
297.057
297.083
297.087
297.116
297.117
297.154
297.123
297.123
297.128
297.124
297.136
297.131
297.144
297.143
297.154
297.159
297.167
297.177
297.185
297.198
297.205
297.222
297.229
297.25
297.255
297.281
297.281
297.316
297.313
297.351
297.311
297.314
297.312
297.32
297.315
297.329
297.324
297.338
297.337
297.351
297.354
297.366
297.372
297.386
297.393
297.41
297.416
297.437
297.442
297.467
297.47
297.5
297.499
297.536
297.491
297.491
297.494
297.493
297.501
297.5
297.509
297.511
297.52
297.526
297.533
297.543
297.55
297.564
297.571
297.587
297.593
297.614
297.618
297.645
297.645
297.677
297.675
297.711
297.659
297.661
297.661
297.665
297.666
297.673
297.674
297.683
297.686
297.696
297.701
297.712
297.718
297.732
297.738
297.755
297.761
297.781
297.787
297.81
297.812
297.844
297.841
297.877
297.82
297.82
297.822
297.825
297.826
297.832
297.834
297.842
297.846
297.855
297.86
297.872
297.877
297.891
297.897
297.914
297.919
297.94
297.942
297.97
297.97
298
297.999
298.033
297.971
297.971
297.974
297.974
297.98
297.98
297.988
297.99
297.999
298.005
298.011
298.022
298.027
298.041
298.047
298.063
298.068
298.09
298.094
298.118
298.118
298.15
298.146
298.182
298.114
298.115
298.114
298.121
298.118
298.129
298.125
298.138
298.138
298.15
298.152
298.165
298.169
298.183
298.189
298.205
298.21
298.23
298.232
298.26
298.26
298.289
298.287
298.32
298.249
298.249
298.253
298.25
298.26
298.255
298.268
298.266
298.277
298.281
298.288
298.298
298.304
298.317
298.323
298.339
298.342
298.365
298.367
298.392
298.391
298.423
298.418
298.454
298.377
298.379
298.376
298.385
298.378
298.393
298.386
298.402
298.398
298.412
298.413
298.427
298.43
298.444
298.449
298.467
298.47
298.49
298.493
298.517
298.519
298.547
298.545
298.576
298.498
298.497
298.502
298.498
298.508
298.504
298.516
298.514
298.525
298.528
298.535
298.546
298.551
298.564
298.568
298.586
298.588
298.61
298.61
298.637
298.635
298.666
298.662
298.695
298.611
298.613
298.611
298.619
298.614
298.626
298.621
298.635
298.633
298.645
298.647
298.66
298.662
298.677
298.681
298.699
298.701
298.721
298.725
298.746
298.75
298.776
298.773
298.805
298.719
298.719
298.722
298.721
298.727
298.727
298.734
298.737
298.743
298.751
298.755
298.766
298.77
298.783
298.787
298.805
298.807
298.828
298.828
298.854
298.852
298.882
298.879
298.91
298.82
298.821
298.821
298.825
298.825
298.832
298.832
298.841
298.843
298.852
298.855
298.867
298.87
298.885
298.888
298.905
298.906
298.928
298.93
298.952
298.954
298.98
298.978
299.008
298.916
298.916
298.918
298.919
298.923
298.925
298.93
298.935
298.938
298.947
298.95
298.962
298.965
298.979
298.982
298.999
299.002
299.021
299.022
299.047
299.046
299.073
299.072
299.1
299.006
299.006
299.007
299.01
299.011
299.017
299.018
299.026
299.027
299.037
299.04
299.051
299.054
299.068
299.071
299.088
299.089
299.11
299.112
299.133
299.135
299.16
299.159
299.188
299.09
299.09
299.093
299.093
299.098
299.098
299.105
299.108
299.113
299.12
299.124
299.135
299.138
299.152
299.154
299.171
299.174
299.193
299.193
299.217
299.218
299.243
299.242
299.269
299.17
299.171
299.171
299.175
299.174
299.182
299.18
299.19
299.19
299.201
299.202
299.214
299.217
299.231
299.233
299.249
299.251
299.272
299.273
299.294
299.294
299.32
299.319
299.347
299.245
299.244
299.248
299.246
299.254
299.251
299.26
299.26
299.268
299.273
299.278
299.287
299.291
299.305
299.306
299.323
299.326
299.344
299.345
299.368
299.369
299.392
299.393
299.418
299.314
299.316
299.314
299.321
299.317
299.328
299.323
299.335
299.333
299.345
299.346
299.358
299.36
299.374
299.375
299.391
299.394
299.414
299.414
299.436
299.435
299.461
299.46
299.487
299.38