/*--------------------------------*- C++ -*----------------------------------*\
  =========                 |
  \\      /  F ield         | OpenFOAM: The Open Source CFD Toolbox
   \\    /   O peration     | Website:  https://openfoam.org
    \\  /    A nd           | Version:  10
     \\/     M anipulation  |
\*---------------------------------------------------------------------------*/
FoamFile
{
    format      ascii;
    class       volVectorField;
    location    "0.22";
    object      U;
}
// * * * * * * * * * * * * * * * * * * * * * * * * * * * * * * * * * * * * * //

dimensions      [0 1 -1 0 0 0 0];

internalField   nonuniform List<vector> 
4176
(
(497.487 -0.014428 -3.73019e-09)
(497.473 0.0641958 1.19883e-09)
(497.448 0.000818662 -3.51933e-10)
(497.399 0.0910408 6.29832e-11)
(497.345 0.0502444 1.13456e-10)
(497.27 0.0903271 -3.17406e-10)
(497.179 0.124985 -4.44708e-10)
(497.087 0.0614202 -7.84196e-11)
(496.953 0.224301 2.17499e-10)
(496.847 0.00585533 3.03401e-10)
(496.671 0.34333 2.30388e-10)
(496.548 -0.0679641 3.39739e-10)
(496.337 0.468692 2.94138e-10)
(496.19 -0.138234 -1.72133e-11)
(495.955 0.56663 -2.19988e-10)
(495.772 -0.134274 -1.99289e-10)
(495.535 0.527279 -2.51946e-10)
(495.285 0.0249228 -1.09027e-10)
(495.072 0.333514 2.5568e-10)
(494.729 0.324369 2.11994e-10)
(494.574 -0.0181393 -7.10212e-11)
(494.096 0.773027 -1.57106e-10)
(494.065 -0.517798 2.6874e-11)
(493.443 1.44402 1.04455e-10)
(497.469 0.00464324 -3.73044e-09)
(497.454 0.115012 1.19918e-09)
(497.429 0.0758666 -3.52114e-10)
(497.378 0.203941 6.23441e-11)
(497.324 0.185499 1.13617e-10)
(497.246 0.265042 -3.17291e-10)
(497.155 0.320896 -4.45638e-10)
(497.058 0.296516 -7.84818e-11)
(496.923 0.481268 2.18099e-10)
(496.813 0.298986 3.03685e-10)
(496.634 0.661844 2.30148e-10)
(496.507 0.27985 3.39903e-10)
(496.292 0.84926 2.92723e-10)
(496.14 0.259627 -1.71293e-11)
(495.899 1.01132 -2.19898e-10)
(495.712 0.303398 -1.98957e-10)
(495.468 1.04105 -2.53214e-10)
(495.214 0.511979 -1.09117e-10)
(494.995 0.913096 2.54762e-10)
(494.645 0.856518 2.11631e-10)
(494.49 0.627185 -7.10084e-11)
(493.991 1.3323 -1.5948e-10)
(493.954 0.123786 2.76278e-11)
(493.268 1.99411 1.04023e-10)
(497.412 0.0229918 -3.73452e-09)
(497.398 0.161663 1.19834e-09)
(497.374 0.14704 -3.54068e-10)
(497.323 0.308274 6.34685e-11)
(497.271 0.3131 1.13468e-10)
(497.193 0.427227 -3.18309e-10)
(497.107 0.505021 -4.43331e-10)
(497.01 0.51575 -7.69119e-11)
(496.88 0.721995 2.19986e-10)
(496.771 0.573647 3.04052e-10)
(496.598 0.959626 2.29414e-10)
(496.472 0.607243 3.39405e-10)
(496.262 1.20504 2.94589e-10)
(496.115 0.635198 -1.70553e-11)
(495.876 1.42752 -2.20257e-10)
(495.696 0.715147 -1.97956e-10)
(495.453 1.52156 -2.5611e-10)
(495.207 0.967214 -1.10733e-10)
(494.992 1.45592 2.55562e-10)
(494.652 1.34515 2.11283e-10)
(494.505 1.24643 -7.20272e-11)
(494.015 1.88358 -1.56928e-10)
(493.98 0.837402 2.78705e-11)
(493.27 2.61023 1.0494e-10)
(497.308 0.0417261 -3.7333e-09)
(497.293 0.209164 1.20254e-09)
(497.27 0.219535 -3.54931e-10)
(497.219 0.414585 6.66631e-11)
(497.167 0.443068 1.12846e-10)
(497.09 0.592579 -3.22847e-10)
(497.002 0.692582 -4.43655e-10)
(496.906 0.739381 -7.96998e-11)
(496.776 0.967215 2.13149e-10)
(496.667 0.853958 3.07606e-10)
(496.493 1.26296 2.30572e-10)
(496.369 0.941593 3.38019e-10)
(496.157 1.56772 2.96386e-10)
(496.011 1.01938 -1.85668e-11)
(495.769 1.8524 -2.27498e-10)
(495.592 1.13663 -1.99426e-10)
(495.345 2.01601 -2.53866e-10)
(495.096 1.42774 -1.11092e-10)
(494.89 2.00809 2.57974e-10)
(494.539 1.842 2.10746e-10)
(494.397 1.85707 -7.49024e-11)
(493.914 2.42145 -1.57859e-10)
(493.884 1.52434 2.6045e-11)
(493.205 3.20702 9.53959e-11)
(497.156 0.0600579 -3.73564e-09)
(497.142 0.255683 1.20899e-09)
(497.118 0.290456 -3.51033e-10)
(497.068 0.518766 6.68067e-11)
(497.017 0.570204 1.16265e-10)
(496.94 0.754743 -3.1771e-10)
(496.854 0.876057 -4.46024e-10)
(496.759 0.958927 -7.78126e-11)
(496.63 1.2071 2.18543e-10)
(496.523 1.12944 3.05613e-10)
(496.35 1.55976 2.30975e-10)
(496.228 1.27039 3.41242e-10)
(496.017 1.92298 2.93214e-10)
(495.875 1.39713 -1.95059e-11)
(495.633 2.27012 -2.25681e-10)
(495.46 1.55132 -2.02172e-10)
(495.209 2.51134 -2.55116e-10)
(494.965 1.87091 -1.10305e-10)
(494.763 2.55316 2.52631e-10)
(494.41 2.33987 2.16588e-10)
(494.27 2.45159 -6.72251e-11)
(493.792 2.94732 -1.55011e-10)
(493.762 2.16692 2.95936e-11)
(493.102 3.76493 1.06144e-10)
(496.956 0.0783826 -3.74815e-09)
(496.941 0.301909 1.20683e-09)
(496.918 0.361225 -3.49429e-10)
(496.868 0.622364 6.20354e-11)
(496.818 0.697038 1.05269e-10)
(496.741 0.916053 -3.22899e-10)
(496.656 1.0591 -4.44037e-10)
(496.561 1.17742 -8.20554e-11)
(496.434 1.4464 2.19036e-10)
(496.326 1.40384 3.11156e-10)
(496.156 1.85567 2.31474e-10)
(496.034 1.59835 3.35856e-10)
(495.824 2.27663 2.90773e-10)
(495.683 1.77477 -1.70732e-11)
(495.442 2.68454 -2.28828e-10)
(495.273 1.97027 -1.99797e-10)
(495.017 3.00196 -2.44751e-10)
(494.786 2.31378 -1.0744e-10)
(494.57 3.10271 2.62569e-10)
(494.228 2.83666 2.18797e-10)
(494.083 3.04786 -7.15236e-11)
(493.61 3.47536 -1.65842e-10)
(493.574 2.81382 2.63142e-11)
(492.913 4.32189 1.06341e-10)
(496.707 0.0965308 -3.74744e-09)
(496.693 0.347472 1.20401e-09)
(496.67 0.431206 -3.65343e-10)
(496.62 0.724526 6.22131e-11)
(496.571 0.822419 1.20118e-10)
(496.494 1.07515 -3.22168e-10)
(496.411 1.24004 -4.5585e-10)
(496.316 1.39298 -7.78013e-11)
(496.191 1.68295 2.25508e-10)
(496.084 1.67473 3.06492e-10)
(495.915 2.14813 2.28923e-10)
(495.794 1.92253 3.472e-10)
(495.587 2.6259 3.06805e-10)
(495.447 2.14878 -1.51616e-11)
(495.207 3.09289 -2.2453e-10)
(495.042 2.38757 -1.96715e-10)
(494.784 3.48156 -2.54424e-10)
(494.564 2.75845 -1.13092e-10)
(494.337 3.65013 2.57187e-10)
(494.009 3.32158 2.16409e-10)
(493.858 3.64299 -7.30069e-11)
(493.391 4.00294 -1.66057e-10)
(493.351 3.47044 2.8604e-11)
(492.692 4.88415 1.11341e-10)
(496.41 0.114542 -3.76268e-09)
(496.396 0.392571 1.21435e-09)
(496.373 0.500566 -3.44962e-10)
(496.323 0.82567 6.58429e-11)
(496.275 0.946631 1.0747e-10)
(496.199 1.23264 -3.19443e-10)
(496.116 1.41923 -4.39802e-10)
(496.022 1.60639 -7.92652e-11)
(495.899 1.91717 2.07168e-10)
(495.792 1.94302 3.04112e-10)
(495.626 2.43767 2.39999e-10)
(495.506 2.24381 3.41839e-10)
(495.3 2.97156 2.81501e-10)
(495.162 2.51982 -2.38148e-11)
(494.923 3.49672 -2.1762e-10)
(494.762 2.80238 -2.05012e-10)
(494.503 3.95378 -2.51001e-10)
(494.291 3.20075 -9.65308e-11)
(494.058 4.19283 2.61157e-10)
(493.742 3.80207 2.01791e-10)
(493.585 4.23626 -7.32712e-11)
(493.126 4.52567 -1.50054e-10)
(493.082 4.12178 2.60347e-11)
(492.431 5.43912 8.80843e-11)
(496.064 0.132373 -3.77349e-09)
(496.05 0.437115 1.20082e-09)
(496.028 0.569145 -3.66879e-10)
(495.978 0.925588 5.37008e-11)
(495.931 1.06939 1.07562e-10)
(495.855 1.38821 -3.27987e-10)
(495.774 1.59624 -4.55593e-10)
(495.68 1.81714 -8.26885e-11)
(495.558 2.14846 2.13694e-10)
(495.453 2.20802 3.01161e-10)
(495.288 2.72352 2.28412e-10)
(495.17 2.56132 3.40694e-10)
(494.966 3.31276 2.90118e-10)
(494.831 2.88686 -2.25424e-11)
(494.593 3.89513 -2.24465e-10)
(494.436 3.21335 -2.02147e-10)
(494.176 4.41753 -2.55512e-10)
(493.972 3.64011 -1.07589e-10)
(493.734 4.72869 2.57839e-10)
(493.43 4.276 2.08747e-10)
(493.267 4.82686 -7.53206e-11)
(492.817 5.04355 -1.61255e-10)
(492.769 4.76877 2.77428e-11)
(492.126 5.98739 1.044e-10)
(495.67 0.150021 -3.7567e-09)
(495.656 0.481115 1.22927e-09)
(495.634 0.636938 -3.48115e-10)
(495.585 1.0243 7.69368e-11)
(495.538 1.19068 1.26336e-10)
(495.463 1.54187 -3.11192e-10)
(495.383 1.77108 -4.39139e-10)
(495.29 2.02527 -6.55805e-11)
(495.17 2.3768 2.32078e-10)
(495.066 2.46969 3.18017e-10)
(494.903 3.00561 2.46944e-10)
(494.786 2.87494 3.56887e-10)
(494.584 3.64936 3.08916e-10)
(494.452 3.24966 -9.87994e-12)
(494.215 4.288 -2.10945e-10)
(494.062 3.62019 -1.91657e-10)
(493.802 4.87316 -2.41937e-10)
(493.606 4.07574 -9.66218e-11)
(493.363 5.2571 2.71847e-10)
(493.071 4.74389 2.20408e-10)
(492.902 5.41255 -6.32743e-11)
(492.463 5.55452 -1.49213e-10)
(492.411 5.4097 3.71516e-11)
(491.778 6.52736 1.13515e-10)
(495.227 0.167458 -3.7765e-09)
(495.213 0.524514 1.21794e-09)
(495.192 0.703849 -3.57779e-10)
(495.143 1.12169 6.9532e-11)
(495.097 1.31037 1.19617e-10)
(495.022 1.69346 -3.19385e-10)
(494.944 1.94353 -4.44723e-10)
(494.852 2.23057 -6.75648e-11)
(494.733 2.60192 2.30345e-10)
(494.63 2.72775 3.16468e-10)
(494.469 3.28358 2.47492e-10)
(494.354 3.18423 3.59755e-10)
(494.154 3.98092 3.11814e-10)
(494.025 3.60764 -8.17964e-12)
(493.79 4.67484 -2.06437e-10)
(493.641 4.02216 -1.85865e-10)
(493.381 5.32054 -2.34654e-10)
(493.193 4.50704 -9.04072e-11)
(492.946 5.77714 2.8243e-10)
(492.666 5.20476 2.31242e-10)
(492.491 5.99225 -7.50436e-11)
(492.064 6.05807 -1.83236e-10)
(492.008 6.04375 7.91339e-12)
(491.386 7.05857 8.2331e-11)
(494.736 0.184662 -3.78373e-09)
(494.722 0.56727 1.22073e-09)
(494.701 0.769798 -3.61043e-10)
(494.653 1.21767 6.42092e-11)
(494.607 1.42832 1.14665e-10)
(494.534 1.84288 -3.25632e-10)
(494.456 2.11346 -4.53309e-10)
(494.365 2.4329 -7.76732e-11)
(494.248 2.82367 2.20496e-10)
(494.147 2.98203 3.07198e-10)
(493.988 3.55724 2.3724e-10)
(493.875 3.48895 3.5089e-10)
(493.677 4.30713 3.01118e-10)
(493.55 3.96038 -1.79305e-11)
(493.317 5.05528 -2.21212e-10)
(493.172 4.41867 -1.99777e-10)
(492.914 5.75968 -2.51939e-10)
(492.732 4.93364 -1.03763e-10)
(492.483 6.28823 2.64118e-10)
(492.214 5.65922 2.12852e-10)
(492.034 6.56347 -7.02046e-11)
(491.62 6.55198 -1.54032e-10)
(491.56 6.67091 3.3856e-11)
(490.949 7.58046 1.08796e-10)
(494.196 0.201606 -3.79168e-09)
(494.182 0.609323 1.22038e-09)
(494.162 0.834688 -3.67224e-10)
(494.114 1.31211 5.84388e-11)
(494.069 1.54437 1.06495e-10)
(493.996 1.98993 -3.38276e-10)
(493.92 2.28065 -4.68334e-10)
(493.83 2.63205 -9.44282e-11)
(493.715 3.04181 2.03814e-10)
(493.615 3.23229 2.8871e-10)
(493.458 3.82633 2.11273e-10)
(493.348 3.7888 3.25145e-10)
(493.152 4.62769 2.68448e-10)
(493.028 4.30747 -2.35632e-11)
(492.797 5.42887 -1.97528e-10)
(492.657 4.80903 -1.82674e-10)
(492.399 6.19049 -2.34018e-10)
(492.224 5.35522 -9.13622e-11)
(491.973 6.7897 2.76815e-10)
(491.715 6.10582 2.23261e-10)
(491.532 7.12598 -6.21625e-11)
(491.129 7.03604 -1.48959e-10)
(491.067 7.28929 3.91831e-11)
(490.467 8.09242 1.11936e-10)
(493.608 0.218265 -3.7919e-09)
(493.594 0.650621 1.24484e-09)
(493.573 0.898424 -3.68324e-10)
(493.526 1.40488 3.93411e-11)
(493.482 1.65837 1.03655e-10)
(493.41 2.13442 -3.29782e-10)
(493.335 2.4449 -4.47859e-10)
(493.247 2.82779 -5.71499e-11)
(493.133 3.25611 2.23454e-10)
(493.035 3.47829 2.89477e-10)
(492.88 4.09059 2.2462e-10)
(492.772 4.0835 3.48999e-10)
(492.579 4.94231 3.10967e-10)
(492.458 4.64855 -4.45895e-12)
(492.23 5.79525 -2.30884e-10)
(492.093 5.19273 -2.23829e-10)
(491.837 6.61255 -2.70593e-10)
(491.67 5.77115 -1.09986e-10)
(491.416 7.28105 2.71249e-10)
(491.17 6.54417 2.29041e-10)
(490.982 7.67915 -7.46005e-11)
(490.593 7.50919 -1.77914e-10)
(490.528 7.89759 2.23598e-11)
(489.941 8.59396 1.09175e-10)
(492.97 0.234615 -3.81438e-09)
(492.956 0.691114 1.20637e-09)
(492.936 0.960918 -3.59869e-10)
(492.889 1.49587 9.60217e-11)
(492.846 1.77013 1.29521e-10)
(492.775 2.27616 -3.27423e-10)
(492.702 2.60594 -4.6856e-10)
(492.615 3.01983 -1.03104e-10)
(492.503 3.46624 2.21054e-10)
(492.407 3.7197 3.31971e-10)
(492.254 4.34972 2.45763e-10)
(492.149 4.37273 3.4365e-10)
(491.958 5.25069 2.76828e-10)
(491.84 4.98327 -2.61029e-11)
(491.614 6.15409 -2.06994e-10)
(491.483 5.56931 -1.94912e-10)
(491.229 7.0254 -2.60561e-10)
(491.068 6.18072 -1.21354e-10)
(490.813 7.76169 2.30786e-10)
(490.578 6.97397 1.99986e-10)
(490.387 8.22254 -6.17468e-11)
(490.011 7.97057 -1.53755e-10)
(489.943 8.49457 2.25464e-11)
(489.37 9.08451 8.38685e-11)
(492.283 0.250635 -3.80729e-09)
(492.269 0.730755 1.2578e-09)
(492.25 1.02209 -3.6732e-10)
(492.203 1.58495 3.64086e-11)
(492.161 1.87951 1.02177e-10)
(492.091 2.41495 -3.28534e-10)
(492.019 2.76354 -4.41293e-10)
(491.934 3.2079 -4.97882e-11)
(491.824 3.67189 2.25576e-10)
(491.73 3.95617 2.9161e-10)
(491.58 4.60333 2.31914e-10)
(491.477 4.65612 3.57957e-10)
(491.289 5.55248 3.21533e-10)
(491.175 5.31127 -2.97748e-11)
(490.951 6.50507 -2.6366e-10)
(490.824 5.93832 -2.20514e-10)
(490.573 7.4287 -2.61114e-10)
(490.418 6.58312 -9.64231e-11)
(490.163 8.23086 2.86979e-10)
(489.94 7.39496 2.06578e-10)
(489.745 8.7555 -1.00823e-10)
(489.383 8.41989 -1.67081e-10)
(489.312 9.07963 3.59539e-11)
(488.753 9.56338 1.21447e-10)
(491.546 0.266303 -3.83049e-09)
(491.532 0.769497 1.22241e-09)
(491.514 1.08186 -3.86065e-10)
(491.468 1.67203 3.27147e-11)
(491.427 1.98635 1.12986e-10)
(491.358 2.55058 -3.02671e-10)
(491.288 2.91744 -4.38413e-10)
(491.204 3.3917 -6.82322e-11)
(491.096 3.87271 2.22801e-10)
(491.005 4.1873 3.03492e-10)
(490.857 4.85102 2.21141e-10)
(490.757 4.93322 3.26905e-10)
(490.572 5.84726 3.02428e-10)
(490.461 5.63212 7.29046e-13)
(490.241 6.84784 -2.13327e-10)
(490.118 6.29939 -1.97376e-10)
(489.869 7.82219 -2.57725e-10)
(489.721 6.97749 -1.12814e-10)
(489.467 8.68773 2.45076e-10)
(489.256 7.80679 1.83505e-10)
(489.057 9.2765 -1.12552e-10)
(488.71 8.85779 -1.63967e-10)
(488.634 9.65324 5.39179e-11)
(488.09 10.0293 1.18229e-10)
(490.76 0.281595 -3.83175e-09)
(490.746 0.807288 1.24932e-09)
(490.728 1.14014 -3.52957e-10)
(490.683 1.75696 8.74706e-11)
(490.643 2.09048 1.36498e-10)
(490.576 2.68286 -3.07876e-10)
(490.507 3.06738 -4.31543e-10)
(490.425 3.57093 -4.40212e-11)
(490.32 4.06835 2.63899e-10)
(490.23 4.41271 3.16072e-10)
(490.086 5.09234 2.05567e-10)
(489.988 5.20354 3.24018e-10)
(489.806 6.13455 2.69971e-10)
(489.699 5.94532 -5.1187e-11)
(489.482 7.18197 -2.55763e-10)
(489.365 6.65208 -2.22883e-10)
(489.118 8.20561 -2.75022e-10)
(488.977 7.3631 -1.16239e-10)
(488.724 9.13164 2.5851e-10)
(488.524 8.20917 2.12008e-10)
(488.322 9.78512 -6.91422e-11)
(487.99 9.28384 -1.49773e-10)
(487.91 10.2146 4.28287e-11)
(487.382 10.4817 1.22315e-10)
(489.924 0.29648 -3.84792e-09)
(489.91 0.844063 1.23857e-09)
(489.892 1.19682 -3.7425e-10)
(489.848 1.83963 6.13239e-11)
(489.81 2.19172 1.03976e-10)
(489.743 2.81158 -3.52059e-10)
(489.676 3.21314 -4.78393e-10)
(489.596 3.7453 -9.40377e-11)
(489.494 4.25847 2.0599e-10)
(489.407 4.63201 2.92452e-10)
(489.265 5.32687 2.19051e-10)
(489.171 5.46661 3.29021e-10)
(488.992 6.41383 2.66168e-10)
(488.889 6.25031 -5.95707e-11)
(488.676 7.50692 -2.74196e-10)
(488.563 6.99584 -2.46093e-10)
(488.32 8.57853 -2.62662e-10)
(488.186 7.73944 -7.53211e-11)
(487.934 9.56214 2.98779e-10)
(487.745 8.6017 2.38437e-10)
(487.54 10.2808 -4.84745e-11)
(487.223 9.69773 -1.3868e-10)
(487.14 10.763 5.10963e-11)
(486.628 10.9203 1.26594e-10)
(489.037 0.310926 -3.8737e-09)
(489.024 0.879743 1.25267e-09)
(489.007 1.25178 -3.45907e-10)
(488.963 1.91985 6.63542e-11)
(488.926 2.28988 1.29996e-10)
(488.861 2.93651 -3.037e-10)
(488.796 3.35442 -4.57742e-10)
(488.718 3.91454 -9.81488e-11)
(488.618 4.44274 2.24568e-10)
(488.534 4.84484 3.32182e-10)
(488.395 5.55417 2.33271e-10)
(488.304 5.72195 3.59535e-10)
(488.13 6.68459 3.16633e-10)
(488.031 6.5465 -3.97629e-11)
(487.821 7.82212 -2.29525e-10)
(487.714 7.33003 -1.8677e-10)
(487.474 8.9404 -2.67951e-10)
(487.347 8.10594 -1.37697e-10)
(487.097 9.97885 2.49604e-10)
(486.919 8.98396 2.11578e-10)
(486.712 10.7632 -1.01982e-10)
(486.41 10.0991 -1.66911e-10)
(486.322 11.2979 3.87541e-11)
(485.828 11.3444 9.00332e-11)
(488.1 0.324891 -3.86373e-09)
(488.087 0.914241 1.26741e-09)
(488.071 1.30488 -3.47162e-10)
(488.028 1.99744 1.00981e-10)
(487.992 2.38472 1.48456e-10)
(487.929 3.05739 -3.42713e-10)
(487.866 3.49096 -5.0478e-10)
(487.79 4.07832 -1.07117e-10)
(487.693 4.62084 2.07079e-10)
(487.611 5.05084 3.01747e-10)
(487.476 5.77388 2.34058e-10)
(487.389 5.96913 3.56212e-10)
(487.218 6.94633 3.07894e-10)
(487.124 6.83333 -1.46104e-11)
(486.918 8.12698 -2.11503e-10)
(486.816 7.65399 -1.83084e-10)
(486.58 9.29063 -2.30246e-10)
(486.46 8.46192 -1.13123e-10)
(486.212 10.3814 2.21941e-10)
(486.046 9.35557 1.79348e-10)
(485.837 11.2314 -1.02475e-10)
(485.55 10.4877 -1.79792e-10)
(485.458 11.8188 1.23671e-11)
(484.981 11.7538 9.89248e-11)
(487.113 0.338337 -3.89355e-09)
(487.1 0.947464 1.2233e-09)
(487.084 1.35596 -3.71623e-10)
(487.042 2.07221 1.01495e-10)
(487.008 2.47601 1.25242e-10)
(486.946 3.17395 -3.44068e-10)
(486.886 3.62246 -4.8234e-10)
(486.812 4.23635 -6.347e-11)
(486.717 4.79243 2.71005e-10)
(486.639 5.24966 3.40617e-10)
(486.508 5.98561 2.49539e-10)
(486.424 6.20775 3.43611e-10)
(486.257 7.19864 2.64242e-10)
(486.167 7.11031 -3.76697e-11)
(485.966 8.42095 -2.174e-10)
(485.87 7.96705 -2.05459e-10)
(485.638 9.62858 -2.75766e-10)
(485.525 8.80656 -1.34635e-10)
(485.28 10.7694 2.67638e-10)
(485.125 9.71617 2.35065e-10)
(484.914 11.6847 -6.89413e-11)
(484.644 10.863 -1.71584e-10)
(484.548 12.3252 -1.38876e-12)
(484.088 12.1481 1.0373e-10)
(486.075 0.351225 -3.90823e-09)
(486.062 0.979326 1.22787e-09)
(486.047 1.4049 -3.73007e-10)
(486.006 2.14397 1.07349e-10)
(485.973 2.5635 1.35404e-10)
(485.913 3.2859 -3.40065e-10)
(485.855 3.74859 -4.83691e-10)
(485.784 4.38827 -1.13322e-10)
(485.692 4.95716 2.22163e-10)
(485.617 5.44096 3.46765e-10)
(485.489 6.189 2.60595e-10)
(485.409 6.43743 3.54417e-10)
(485.247 7.44109 2.75147e-10)
(485.162 7.37698 -2.90095e-11)
(484.965 8.70354 -2.07948e-10)
(484.875 8.26861 -2.01436e-10)
(484.647 9.95361 -2.71292e-10)
(484.542 9.139 -1.25679e-10)
(484.301 11.1425 2.78906e-10)
(484.156 10.0654 2.44454e-10)
(483.944 12.122 -5.91933e-11)
(483.69 11.2244 -1.63078e-10)
(483.59 12.8165 1.34153e-11)
(483.149 12.5267 7.66036e-11)
(484.985 0.363524 -3.9281e-09)
(484.973 1.00976 1.27267e-09)
(484.958 1.45158 -3.49051e-10)
(484.919 2.21255 6.41455e-11)
(484.887 2.64699 7.9872e-11)
(484.829 3.393 -3.57538e-10)
(484.774 3.86905 -4.59393e-10)
(484.705 4.53377 -9.7393e-11)
(484.617 5.11465 2.28404e-10)
(484.545 5.62434 3.37918e-10)
(484.421 6.38365 2.35334e-10)
(484.345 6.65779 3.70617e-10)
(484.187 7.6733 3.34193e-10)
(484.107 7.63294 -3.45079e-11)
(483.915 8.97432 -2.7828e-10)
(483.831 8.55818 -2.25831e-10)
(483.608 10.2652 -2.55885e-10)
(483.51 9.45854 -1.21004e-10)
(483.273 11.5003 2.74527e-10)
(483.139 10.4025 2.31163e-10)
(482.927 12.5425 -8.58941e-11)
(482.689 11.5713 -1.49533e-10)
(482.586 13.2916 6.44786e-11)
(482.164 12.8893 1.10192e-10)
(483.845 0.375212 -3.90978e-09)
(483.833 1.0387 1.30145e-09)
(483.819 1.49589 -3.34872e-10)
(483.78 2.27783 7.5742e-11)
(483.751 2.7263 8.52964e-11)
(483.695 3.49502 -3.59275e-10)
(483.642 3.98357 -4.6608e-10)
(483.576 4.6725 -5.39038e-11)
(483.491 5.26455 2.67341e-10)
(483.422 5.79943 3.18348e-10)
(483.302 6.56916 2.09038e-10)
(483.231 6.86841 3.4094e-10)
(483.077 7.89487 2.96716e-10)
(483.002 7.8778 -2.51367e-11)
(482.815 9.23291 -2.18651e-10)
(482.737 8.83534 -1.7708e-10)
(482.519 10.5629 -2.67475e-10)
(482.43 9.76464 -1.40279e-10)
(482.196 11.8422 2.4787e-10)
(482.073 10.727 2.03085e-10)
(481.861 12.9455 -7.00317e-11)
(481.64 11.9026 -1.40252e-10)
(481.534 13.7493 7.01529e-11)
(481.131 13.2351 1.10529e-10)
(482.654 0.386274 -3.91763e-09)
(482.641 1.06613 1.27571e-09)
(482.629 1.5378 -3.95547e-10)
(482.591 2.3397 8.79285e-11)
(482.563 2.80129 1.12445e-10)
(482.509 3.59177 -3.66604e-10)
(482.459 4.09192 -4.51083e-10)
(482.395 4.8042 -7.5742e-11)
(482.314 5.40651 2.07716e-10)
(482.249 5.96584 3.36113e-10)
(482.133 6.74511 2.49099e-10)
(482.066 7.06889 3.42282e-10)
(481.917 8.10536 3.20054e-10)
(481.848 8.11116 -3.61712e-11)
(481.665 9.4789 -2.71133e-10)
(481.594 9.09969 -2.08204e-10)
(481.382 10.8463 -2.79391e-10)
(481.3 10.0568 -1.30299e-10)
(481.071 12.1677 2.7774e-10)
(480.958 11.0381 1.98594e-10)
(480.748 13.3304 -1.10249e-10)
(480.543 12.2177 -1.60438e-10)
(480.434 14.1884 1.04475e-11)
(480.052 13.5637 7.56171e-11)
(481.411 0.3967 -3.98973e-09)
(481.399 1.09201 1.2555e-09)
(481.387 1.57724 -3.9722e-10)
(481.351 2.39811 5.866e-11)
(481.325 2.87186 1.12937e-10)
(481.272 3.68313 -3.45062e-10)
(481.225 4.19391 -4.63791e-10)
(481.164 4.92863 -5.8081e-11)
(481.086 5.54025 2.5465e-10)
(481.025 6.12324 3.48814e-10)
(480.914 6.91111 2.84789e-10)
(480.852 7.25879 3.49164e-10)
(480.707 8.30433 2.91808e-10)
(480.644 8.33256 -4.24e-11)
(480.466 9.71188 -2.49062e-10)
(480.402 9.35083 -2.14042e-10)
(480.194 11.1151 -2.62549e-10)
(480.121 10.3346 -9.41544e-11)
(479.896 12.4765 2.90796e-10)
(479.794 11.3351 2.29428e-10)
(479.585 13.6964 -1.1091e-10)
(479.397 12.5163 -1.86281e-10)
(479.286 14.6084 1.09317e-11)
(478.924 13.8747 9.15997e-11)
(480.117 0.406478 -3.9626e-09)
(480.105 1.11633 1.31324e-09)
(480.094 1.61419 -3.4185e-10)
(480.059 2.453 7.14816e-11)
(480.035 2.93795 7.89789e-11)
(479.985 3.769 -3.76745e-10)
(479.939 4.28941 -4.82593e-10)
(479.882 5.04562 -6.37461e-11)
(479.808 5.66554 2.5592e-10)
(479.75 6.27133 3.61881e-10)
(479.643 7.06681 2.50521e-10)
(479.586 7.43772 3.27714e-10)
(479.447 8.49134 2.80599e-10)
(479.389 8.54155 -4.86829e-11)
(479.217 9.9314 -2.44395e-10)
(479.159 9.58831 -1.98449e-10)
(478.957 11.3689 -2.33254e-10)
(478.892 10.5977 -5.686e-11)
(478.672 12.7684 2.80314e-10)
(478.581 11.6171 1.77686e-10)
(478.375 14.0422 -9.94048e-11)
(478.203 12.7987 -1.65744e-10)
(478.089 15.0099 4.63387e-11)
(477.747 14.1683 1.39888e-10)
(478.772 0.415597 -3.96401e-09)
(478.76 1.13904 1.28591e-09)
(478.75 1.64859 -4.19202e-10)
(478.716 2.5043 6.54678e-11)
(478.693 2.99949 1.49853e-10)
(478.645 3.84929 -3.41344e-10)
(478.603 4.37833 -4.96125e-10)
(478.548 5.15505 -6.33664e-11)
(478.478 5.78223 2.21343e-10)
(478.424 6.40994 2.86016e-10)
(478.322 7.21194 2.51553e-10)
(478.269 7.60535 3.99042e-10)
(478.135 8.666 3.06054e-10)
(478.083 8.73768 -6.08628e-11)
(477.917 10.137 -2.39524e-10)
(477.866 9.81166 -1.76704e-10)
(477.67 11.6073 -2.5865e-10)
(477.613 10.8457 -1.22198e-10)
(477.399 13.043 2.94435e-10)
(477.318 11.8834 2.04906e-10)
(477.115 14.3671 -1.18658e-10)
(476.961 13.065 -1.7157e-10)
(476.844 15.3916 5.86379e-11)
(476.523 14.4426 1.1317e-10)
(477.375 0.424041 -4.03906e-09)
(477.363 1.16013 1.26416e-09)
(477.354 1.6804 -4.08788e-10)
(477.321 2.55196 5.29881e-11)
(477.301 3.05639 1.0224e-10)
(477.255 3.92392 -3.68194e-10)
(477.215 4.46058 -4.85769e-10)
(477.164 5.25683 -7.5448e-11)
(477.097 5.89019 2.3509e-10)
(477.047 6.53891 3.23867e-10)
(476.949 7.34634 2.58786e-10)
(476.902 7.76145 3.82688e-10)
(476.773 8.82797 3.19676e-10)
(476.727 8.92057 -2.65874e-11)
(476.567 10.3282 -2.34348e-10)
(476.523 10.0204 -2.00119e-10)
(476.333 11.8298 -2.52809e-10)
(476.284 11.0779 -8.84048e-11)
(476.076 13.3001 3.02487e-10)
(476.005 12.1336 2.38515e-10)
(475.805 14.6703 -4.94976e-11)
(475.668 13.3134 -1.94087e-10)
(475.549 15.7539 -3.12687e-12)
(475.249 14.6996 8.56821e-11)
(475.926 0.431793 -3.97927e-09)
(475.915 1.17954 1.33309e-09)
(475.907 1.70957 -3.68199e-10)
(475.875 2.5959 9.31729e-11)
(475.856 3.10857 1.33355e-10)
(475.813 3.9928 -3.44044e-10)
(475.776 4.53606 -4.68791e-10)
(475.727 5.35086 -6.23599e-11)
(475.664 5.98936 2.42902e-10)
(475.619 6.65819 3.25324e-10)
(475.525 7.46988 2.53505e-10)
(475.483 7.90591 3.65901e-10)
(475.359 8.97705 2.95075e-10)
(475.32 9.08996 -5.1346e-11)
(475.165 10.5045 -2.74291e-10)
(475.129 10.214 -2.47699e-10)
(474.945 12.0358 -3.05775e-10)
(474.905 11.294 -7.67192e-11)
(474.702 13.5391 3.0449e-10)
(474.642 12.3672 2.28054e-10)
(474.446 14.9516 -6.25896e-11)
(474.326 13.5442 -1.55456e-10)
(474.205 16.095 3.52477e-11)
(473.927 14.9375 1.14512e-10)
(474.426 0.438839 -4.01231e-09)
(474.416 1.19726 1.31064e-09)
(474.408 1.73604 -4.07225e-10)
(474.378 2.63604 9.33654e-11)
(474.361 3.15596 1.21359e-10)
(474.319 4.05584 -3.72248e-10)
(474.285 4.60468 -4.57819e-10)
(474.24 5.43708 -6.83433e-11)
(474.18 6.07964 2.2507e-10)
(474.139 6.7677 3.52417e-10)
(474.05 7.58251 2.61065e-10)
(474.013 8.03867 3.61167e-10)
(473.894 9.11316 3.35046e-10)
(473.861 9.2457 -3.36656e-11)
(473.712 10.6659 -2.69245e-10)
(473.683 10.3922 -2.00536e-10)
(473.506 12.2249 -2.73663e-10)
(473.475 11.4932 -1.23412e-10)
(473.278 13.7596 3.06234e-10)
(473.229 12.5836 2.17094e-10)
(473.038 15.2112 -1.029e-10)
(472.932 13.7583 -1.44346e-10)
(472.81 16.4133 3.59733e-11)
(472.554 15.1541 9.20497e-11)
(472.875 0.445171 -4.07973e-09)
(472.864 1.21326 1.31624e-09)
(472.857 1.75978 -3.71012e-10)
(472.828 2.67236 5.30115e-11)
(472.813 3.1985 1.28113e-10)
(472.774 4.11297 -3.26827e-10)
(472.743 4.66637 -4.98263e-10)
(472.701 5.51539 -6.1375e-11)
(472.645 6.16096 2.72186e-10)
(472.607 6.86739 3.15054e-10)
(472.523 7.68418 2.68658e-10)
(472.491 8.1597 4.13694e-10)
(472.378 9.23624 3.02976e-10)
(472.351 9.38778 -2.81768e-11)
(472.208 10.8121 -2.16928e-10)
(472.186 10.5547 -2.31764e-10)
(472.015 12.3967 -2.67929e-10)
(471.993 11.6752 -7.54377e-11)
(471.802 13.9609 2.74007e-10)
(471.765 12.7818 2.23557e-10)
(471.578 15.4493 -4.93881e-11)
(471.488 13.9555 -1.7399e-10)
(471.364 16.7086 4.3034e-11)
(471.132 15.3504 1.39591e-10)
(471.271 0.45079 -4.0589e-09)
(471.261 1.22754 1.35946e-09)
(471.255 1.78081 -3.4049e-10)
(471.227 2.70484 8.85479e-11)
(471.214 3.23616 8.98163e-11)
(471.177 4.16416 -3.69708e-10)
(471.148 4.72106 -4.67283e-10)
(471.109 5.58571 -3.41002e-11)
(471.058 6.23324 3.00362e-10)
(471.024 6.95716 3.49777e-10)
(470.945 7.7748 2.29473e-10)
(470.917 8.26897 3.70149e-10)
(470.81 9.34629 3.3099e-10)
(470.789 9.51623 -3.40723e-12)
(470.651 10.9431 -1.97698e-10)
(470.638 10.7017 -2.13967e-10)
(470.472 12.5512 -3.17309e-10)
(470.46 11.8395 -1.18008e-10)
(470.276 14.1426 2.89507e-10)
(470.249 12.9611 2.36368e-10)
(470.068 15.6654 -2.91432e-11)
(469.993 14.136 -1.62992e-10)
(469.868 16.9801 -1.12867e-11)
(469.659 15.5254 9.22883e-11)
(469.616 0.455702 -4.13542e-09)
(469.606 1.24012 1.29076e-09)
(469.601 1.79913 -4.2681e-10)
(469.574 2.73349 3.97596e-11)
(469.563 3.26898 9.00823e-11)
(469.528 4.20941 -3.92472e-10)
(469.502 4.76876 -5.15711e-10)
(469.466 5.64803 -1.02044e-10)
(469.418 6.29641 2.14565e-10)
(469.389 7.03694 3.04243e-10)
(469.314 7.85429 2.30513e-10)
(469.292 8.36639 3.51977e-10)
(469.19 9.44322 2.84177e-10)
(469.175 9.63104 -6.88683e-11)
(469.043 11.059 -2.88845e-10)
(469.037 10.8331 -2.52844e-10)
(468.878 12.6884 -3.11448e-10)
(468.874 11.9863 -1.36541e-10)
(468.697 14.3045 2.49274e-10)
(468.681 13.1211 1.82271e-10)
(468.506 15.8588 -1.20682e-10)
(468.446 14.2992 -1.99923e-10)
(468.321 17.2275 -4.07584e-12)
(468.134 15.679 8.07257e-11)
(467.909 0.459918 -4.08745e-09)
(467.899 1.25103 1.33565e-09)
(467.895 1.81479 -4.1576e-10)
(467.869 2.75838 1.04702e-10)
(467.86 3.297 1.30551e-10)
(467.827 4.24878 -3.73356e-10)
(467.804 4.8095 -4.50083e-10)
(467.771 5.70236 -5.31146e-11)
(467.727 6.35047 2.43303e-10)
(467.702 7.1067 3.80821e-10)
(467.632 7.92256 2.86864e-10)
(467.614 8.45185 3.80411e-10)
(467.517 9.52691 3.61647e-10)
(467.509 9.73211 -1.71679e-11)
(467.384 11.1598 -2.55162e-10)
(467.385 10.9491 -2.40799e-10)
(467.232 12.8083 -3.19657e-10)
(467.237 12.1156 -9.86551e-11)
(467.066 14.4468 2.72608e-10)
(467.061 13.2615 1.82983e-10)
(466.892 16.0293 -7.14741e-11)
(466.846 14.4439 -1.76174e-10)
(466.723 17.4495 -3.78211e-12)
(466.559 15.8111 1.24436e-10)
(466.15 0.463451 -4.09833e-09)
(466.14 1.26029 1.34993e-09)
(466.137 1.82784 -4.11232e-10)
(466.112 2.77956 1.12687e-10)
(466.105 3.3203 1.37765e-10)
(466.074 4.28234 -3.6834e-10)
(466.054 4.84337 -4.4501e-10)
(466.024 5.74877 -4.55601e-11)
(465.984 6.39546 2.51572e-10)
(465.962 7.16644 3.2047e-10)
(465.897 7.97958 2.25417e-10)
(465.885 8.5253 3.95766e-10)
(465.793 9.59725 3.06642e-10)
(465.791 9.81932 -7.10857e-11)
(465.671 11.2451 -2.42529e-10)
(465.68 11.0495 -2.28696e-10)
(465.534 12.9109 -3.06835e-10)
(465.548 12.2277 -8.56428e-11)
(465.382 14.5696 2.89162e-10)
(465.389 13.3827 1.96225e-10)
(465.226 16.1774 -5.79224e-11)
(465.194 14.5687 -1.64766e-10)
(465.073 17.6445 1.76532e-11)
(464.932 15.9216 1.43912e-10)
(464.339 0.466311 -4.13527e-09)
(464.329 1.26792 1.40327e-09)
(464.326 1.83832 -3.85956e-10)
(464.303 2.79709 5.45268e-11)
(464.297 3.33895 1.38043e-10)
(464.269 4.31018 -3.12551e-10)
(464.251 4.87044 -4.74372e-10)
(464.225 5.78735 -9.47369e-11)
(464.188 6.43147 2.60042e-10)
(464.171 7.21623 3.85045e-10)
(464.11 8.02539 2.75964e-10)
(464.103 8.58671 3.63164e-10)
(464.016 9.65415 3.29048e-10)
(464.02 9.89253 2.25641e-12)
(463.907 11.315 -2.57991e-10)
(463.923 11.1341 -2.56016e-10)
(463.783 12.9961 -2.79192e-10)
(463.806 12.3225 -7.24332e-11)
(463.647 14.6732 2.9143e-10)
(463.665 13.4851 1.84263e-10)
(463.507 16.3038 -8.79265e-11)
(463.489 14.6728 -1.46656e-10)
(463.372 17.8111 2.53436e-11)
(463.254 16.0104 7.5592e-11)
(462.475 0.468503 -4.18145e-09)
(462.466 1.27395 1.33929e-09)
(462.464 1.84626 -4.21569e-10)
(462.442 2.81099 3.99594e-11)
(462.437 3.35301 7.63762e-11)
(462.411 4.33235 -4.23619e-10)
(462.396 4.89081 -4.83393e-10)
(462.373 5.81821 -1.09784e-12)
(462.339 6.45861 3.11022e-10)
(462.326 7.25618 3.93983e-10)
(462.27 8.06006 3.05763e-10)
(462.268 8.63615 4.13454e-10)
(462.187 9.69762 3.37491e-10)
(462.197 9.95169 -3.2349e-11)
(462.09 11.3691 -2.66521e-10)
(462.114 11.2027 -2.43607e-10)
(461.98 13.0635 -3.09604e-10)
(462.013 12.3997 -1.37783e-10)
(461.86 14.7572 2.41843e-10)
(461.888 13.5685 1.65583e-10)
(461.736 16.4086 -8.16472e-11)
(461.732 14.757 -1.15347e-10)
(461.618 17.9494 8.49559e-11)
(461.522 16.0768 1.52198e-10)
(460.559 0.470028 -4.22806e-09)
(460.55 1.27836 1.35373e-09)
(460.548 1.85166 -3.89527e-10)
(460.528 2.82128 3.29582e-11)
(460.525 3.36248 9.7063e-11)
(460.501 4.3489 -3.74104e-10)
(460.489 4.90453 -4.78439e-10)
(460.468 5.84139 -3.65157e-11)
(460.438 6.47694 2.27704e-10)
(460.429 7.28639 3.38776e-10)
(460.377 8.08371 2.85735e-10)
(460.38 8.67374 3.52265e-10)
(460.304 9.72772 3.02377e-10)
(460.321 9.99685 -3.99042e-11)
(460.22 11.4075 -2.46109e-10)
(460.251 11.2553 -1.97323e-10)
(460.124 13.1129 -3.03329e-10)
(460.166 12.459 -1.04715e-10)
(460.019 14.8212 3.10581e-10)
(460.059 13.6327 1.7902e-10)
(459.913 16.4918 -1.12778e-10)
(459.922 14.8215 -1.73615e-10)
(459.812 18.0601 4.79697e-11)
(459.737 16.1214 1.39942e-10)
(458.59 0.470883 -4.17638e-09)
(458.581 1.28117 1.38431e-09)
(458.58 1.85451 -4.12191e-10)
(458.561 2.82796 4.82382e-11)
(458.56 3.36737 8.34005e-11)
(458.537 4.35982 -3.53831e-10)