#           x            Ma
     0.086207       0.24109
     0.143678      0.241798
      0.20115      0.242503
     0.258621      0.243187
     0.316092      0.243902
     0.373564      0.244685
     0.431035      0.245546
     0.488507      0.246487
     0.545978      0.247512
     0.603449      0.248628
     0.660921      0.249839
     0.718392       0.25115
     0.775863      0.252565
     0.833334      0.254087
     0.890806       0.25572
     0.948277      0.257467
      1.00575      0.259332
      1.06322      0.261317
      1.12069      0.263426
      1.17816      0.265662
      1.23563      0.268028
       1.2931      0.270526
      1.35058      0.273161
      1.40805      0.275936
      1.46552      0.278854
      1.52299      0.281921
      1.58046      0.285138
      1.63793      0.288512
       1.6954      0.292045
      1.75287      0.295743
      1.81035       0.29961
      1.86782      0.303652
      1.92529      0.307873
      1.98276      0.312279
      2.04023      0.316875
       2.0977      0.321667
      2.15517      0.326662
      2.21264      0.331865
      2.27011      0.337283
      2.32758      0.342923
      2.38506      0.348791
      2.44253      0.354894
          2.5       0.36124
      2.55747      0.367835
      2.61494       0.37469
      2.67241      0.381809
      2.72988      0.389203
      2.78735      0.396878
      2.84482      0.404843
      2.90229      0.413108
      2.95977       0.42168
      3.01724      0.430568
      3.07471      0.439781
      3.13218      0.449327
      3.18965      0.459216
      3.24712      0.469454
      3.30459      0.480052
      3.36206      0.491017
      3.41953      0.502358
        3.477      0.514083
      3.53447      0.526198
      3.59195      0.538711
      3.64942      0.551629
      3.70689      0.564959
      3.76436      0.578703
      3.82183      0.592868
       3.8793      0.607457
      3.93677       0.62247
      3.99424       0.63791
      4.05171      0.653775
      4.10918      0.670063
      4.16666       0.68677
      4.22413      0.703889
       4.2816      0.721412
      4.33907      0.739327
      4.39654      0.757618
      4.45401      0.776263
      4.51148      0.795238
      4.56895      0.814511
      4.62643      0.834043
       4.6839      0.853781
      4.74137      0.873664
      4.79884      0.893619
      4.85631      0.913556
      4.91378      0.933368
      4.97125      0.952936
      5.02873      0.972137
       5.0862      0.990849
      5.14367       1.00898
      5.20114       1.02645
      5.25861       1.04326
      5.31608       1.05944
      5.37355       1.07508
      5.43103       1.09029
       5.4885       1.10521
      5.54597       1.11998
      5.60344       1.13469
      5.66091       1.14943
      5.71838       1.16422
      5.77585       1.17907
      5.83333       1.19396
       5.8908       1.20885
      5.94827       1.22373
      6.00574       1.23856
      6.06321       1.25332
      6.12068         1.268
      6.17815       1.28259
      6.23563       1.29709
       6.2931       1.31151
      6.35057       1.32583
      6.40804       1.34006
      6.46551        1.3542
      6.52298       1.36824
      6.58045       1.38218
      6.63793       1.39601
       6.6954       1.40974
      6.75287       1.42335
      6.81034       1.43683
      6.86781       1.45018
      6.92528        1.4634
      6.98275       1.47647
      7.04022       1.48939
       7.0977       1.50215
      7.15517       1.51474
      7.21264       1.52716
      7.27011        1.5394
      7.32758       1.55146
      7.38505       1.56333
      7.44252       1.57501
          7.5       1.58649
      7.55747       1.59776
      7.61494       1.60883
      7.67241       1.61969
      7.72988       1.63034
      7.78735       1.64077
      7.84482       1.65098
      7.90229       1.66097
      7.95977       1.67074
      8.01724       1.68028
      8.07471       1.68958
      8.13218       1.69864
      8.18965       1.70747
      8.24712       1.71604
      8.30459       1.72437
      8.36207       1.73244
      8.41954       1.74026
      8.47701       1.74782
      8.53448       1.75511
      8.59195       1.76213
      8.64942       1.76889
      8.70689       1.77537
      8.76437       1.78157
      8.82184       1.78748
      8.87931       1.79312
      8.93678       1.79847
      8.99425       1.80354
      9.05172       1.80832
      9.10919       1.81281
      9.16666       1.81702
      9.22414       1.82093
      9.28161       1.82455
      9.33908       1.82788
      9.39655       1.83091
      9.45402       1.83365
      9.51149       1.83609
      9.56896       1.83823
      9.62644       1.84008
      9.68391       1.84162
      9.74138       1.84287
      9.79885       1.84381
      9.85632       1.84446
      9.91379       1.84483