/*--------------------------------*- C++ -*----------------------------------*\
  =========                 |
  \\      /  F ield         | OpenFOAM: The Open Source CFD Toolbox
   \\    /   O peration     | Website:  https://openfoam.org
    \\  /    A nd           | Version:  10
     \\/     M anipulation  |
\*---------------------------------------------------------------------------*/
FoamFile
{
    format      ascii;
    class       surfaceScalarField;
    location    "0.35";
    object      phi;
}
// * * * * * * * * * * * * * * * * * * * * * * * * * * * * * * * * * * * * * //

dimensions      [1 0 -1 0 0 0 0];

internalField   nonuniform List<scalar> 
8154
(
-5.79618e-09
-2.1998e-08
-5.66321e-08
-9.156e-08
-1.71377e-07
-2.26093e-07
-3.70274e-07
-4.54984e-07
-6.74815e-07
-8.14295e-07
-1.10449e-06
-1.33734e-06
-1.66827e-06
-2.02796e-06
-2.36054e-06
-2.8653e-06
-3.2554e-06
-3.98618e-06
-4.56686e-06
-5.51143e-06
-6.82978e-06
-7.2363e-06
-6.85859e-06
-0.000277438
-0.000832369
2.40556e-08
-0.00138746
9.63236e-08
-0.00194288
2.13567e-07
-0.00249867
3.78317e-07
-0.00305504
5.77441e-07
-0.00361202
8.23409e-07
-0.00416973
1.08806e-06
-0.00472844
1.39708e-06
-0.0052879
1.71058e-06
-0.00584878
2.0559e-06
-0.00641057
2.4027e-06
-0.00697377
2.74822e-06
-0.00753867
3.12019e-06
-0.0081041
3.43579e-06
-0.00867311
3.85059e-06
-0.00924023
4.12716e-06
-0.00981488
4.57402e-06
-0.0103832
4.92395e-06
-0.0109646
5.13845e-06
-0.0115338
5.27919e-06
-0.0121235
5.1151e-06
-0.0126948
4.03282e-06
-0.0132929
2.44736e-06
-0.000277462
-0.000832442
2.6364e-08
-0.00138758
1.0485e-07
-0.00194305
2.34936e-07
-0.00249887
4.10381e-07
-0.00305528
6.35338e-07
-0.00361228
8.89431e-07
-0.00417004
1.19422e-06
-0.00472876
1.5004e-06
-0.00528825
1.86645e-06
-0.00584912
2.19044e-06
-0.00641091
2.59326e-06
-0.00697414
2.89295e-06
-0.00753899
3.29897e-06
-0.00810452
3.539e-06
-0.00867338
3.90494e-06
-0.00924068
4.10621e-06
-0.00981523
4.39058e-06
-0.0103835
5.00152e-06
-0.0109647
4.66545e-06
-0.0115336
5.23301e-06
-0.0121224
5.32916e-06
-0.0126932
5.04261e-06
-0.0132905
4.22731e-06
-0.000277489
-0.00083252
2.12925e-08
-0.00138771
8.49339e-08
-0.00194322
1.88217e-07
-0.00249909
3.30658e-07
-0.00305554
5.01944e-07
-0.00361259
7.07144e-07
-0.00417035
9.2218e-07
-0.00472912
1.1657e-06
-0.00528857
1.39349e-06
-0.00584952
1.64159e-06
-0.00641121
1.84631e-06
-0.00697455
2.05003e-06
-0.00753923
2.19751e-06
-0.00810488
2.2838e-06
-0.00867358
2.35456e-06
-0.00924097
2.20811e-06
-0.00981585
2.34436e-06
-0.0103831
1.89878e-06
-0.0109653
1.78047e-06
-0.0115337
1.39161e-06
-0.0121221
1.15601e-06
-0.0126924
7.2201e-07
-0.0132863
5.13976e-07
-0.00027751
-0.000832584
2.5515e-08
-0.00138781
1.01851e-07
-0.00194337
2.26107e-07
-0.00249926
3.97847e-07
-0.00305574
6.0559e-07
-0.0036128
8.55396e-07
-0.00417059
1.11897e-06
-0.00472935
1.41982e-06
-0.00528882
1.70185e-06
-0.00584973
2.01663e-06
-0.00641141
2.27214e-06
-0.00697469
2.54863e-06
-0.00753931
2.7339e-06
-0.00810495
2.89514e-06
-0.00867343
2.9862e-06
-0.0092411
2.8996e-06
-0.0098154
2.97572e-06
-0.010383
2.28228e-06
-0.0109649
2.51569e-06
-0.0115334
1.72466e-06
-0.0121217
1.20745e-06
-0.0126922
3.80689e-07
-0.0132858
-1.73369e-07
-0.000277535
-0.00083266
3.36143e-08
-0.00138793
1.34162e-07
-0.00194354
2.99159e-07
-0.00249947
5.26382e-07
-0.00305599
8.07818e-07
-0.00361307
1.14136e-06
-0.00417089
1.51144e-06
-0.00472963
1.91838e-06
-0.00528914
2.33843e-06
-0.00584998
2.77309e-06
-0.00641169
3.19423e-06
-0.00697488
3.59624e-06
-0.00753947
3.96441e-06
-0.00810505
4.25874e-06
-0.00867334
4.52289e-06
-0.00924118
4.61725e-06
-0.00981471
4.73244e-06
-0.0103832
4.40041e-06
-0.0109641
4.36409e-06
-0.0115329
3.67188e-06
-0.0121209
3.21531e-06
-0.0126917
2.27041e-06
-0.0132859
1.3464e-06
-0.000277569
-0.000832761
3.75216e-08
-0.0013881
1.49773e-07
-0.00194377
3.34258e-07
-0.00249975
5.88284e-07
-0.00305633
9.04143e-07
-0.00361344
1.27799e-06
-0.0041713
1.69567e-06
-0.00473005
2.1532e-06
-0.00528957
2.63042e-06
-0.0058504
3.12078e-06
-0.00641209
3.60252e-06
-0.00697525
4.05843e-06
-0.00753977
4.48185e-06
-0.00810531
4.82136e-06
-0.00867344
5.1245e-06
-0.00924129
5.25196e-06
-0.00981438
5.37169e-06
-0.0103832
5.0828e-06
-0.0109634
4.96359e-06
-0.0115325
4.21435e-06
-0.0121199
3.68309e-06
-0.0126907
2.63873e-06
-0.0132846
1.60916e-06
-0.000277607
-0.000832873
4.13408e-08
-0.00138828
1.65036e-07
-0.00194402
3.68442e-07
-0.00250007
6.48641e-07
-0.0030567
9.97514e-07
-0.00361385
1.41081e-06
-0.00417176
1.87353e-06
-0.00473053
2.38121e-06
-0.00529006
2.91193e-06
-0.00585088
3.4589e-06
-0.00641255
3.99669e-06
-0.00697567
4.50924e-06
-0.00754011
4.98251e-06
-0.00810562
5.37038e-06
-0.00867356
5.70724e-06
-0.00924141
5.86447e-06
-0.00981409
5.9997e-06
-0.0103831
5.72019e-06
-0.0109627
5.59278e-06
-0.0115319
4.80927e-06
-0.0121189
4.20806e-06
-0.0126897
2.99058e-06
-0.013283
1.7908e-06
-0.000277648
-0.000832997
4.50243e-08
-0.00138849
1.79735e-07
-0.0019443
4.01318e-07
-0.00250042
7.06477e-07
-0.00305711
1.08682e-06
-0.00361432
1.53724e-06
-0.00417227
2.04263e-06
-0.00473106
2.59691e-06
-0.00529061
3.17844e-06
-0.00585142
3.77767e-06
-0.00641306
4.36952e-06
-0.00697614
4.93414e-06
-0.0075405
5.45652e-06
-0.00810596
5.888e-06
-0.00867372
6.25753e-06
-0.00924154
6.44267e-06
-0.00981381
6.58338e-06
-0.010383
6.33034e-06
-0.0109619
6.16989e-06
-0.0115313
5.37162e-06
-0.0121177
4.84289e-06
-0.0126885
3.36239e-06
-0.0132812
2.00995e-06
-0.000277693
-0.000833132
4.86616e-08
-0.00138871
1.94236e-07
-0.00194461
4.33692e-07
-0.0025008
7.63319e-07
-0.00305756
1.1743e-06
-0.00361482
1.66073e-06
-0.00417282
2.20708e-06
-0.00473164
2.80606e-06
-0.00529121
3.43571e-06
-0.00585201
4.08485e-06
-0.00641363
4.72781e-06
-0.00697666
5.34266e-06
-0.00754093
5.91209e-06
-0.00810633
6.38618e-06
-0.0086739
6.78709e-06
-0.00924168
6.99739e-06
-0.00981355
7.13844e-06
-0.0103828
6.90471e-06
-0.0109611
6.72125e-06
-0.0115308
5.87904e-06
-0.0121162
4.88694e-06
-0.0126872
3.68471e-06
-0.0132792
2.20406e-06
-0.000277742
-0.000833277
5.22521e-08
-0.00138895
2.08545e-07
-0.00194494
4.65609e-07
-0.00250121
8.19293e-07
-0.00305805
1.26027e-06
-0.00361537
1.7818e-06
-0.00417342
2.36776e-06
-0.00473227
3.00966e-06
-0.00529186
3.68503e-06
-0.00585265
4.38132e-06
-0.00641424
5.07221e-06
-0.00697723
5.73434e-06
-0.0075414
6.34832e-06
-0.00810673
6.86336e-06
-0.0086741
7.2952e-06
-0.00924182
7.52899e-06
-0.00981332
7.66905e-06
-0.0103826
7.45101e-06
-0.0109603
7.25198e-06
-0.0115301
6.40149e-06
-0.0121147
5.58462e-06
-0.0126857
4.04145e-06
-0.013277
2.40782e-06
-0.000277794
-0.000833434
5.58105e-08
-0.00138921
2.22727e-07
-0.00194529
4.9725e-07
-0.00250165
8.74794e-07
-0.00305857
1.34548e-06
-0.00361596
1.90172e-06
-0.00417406
2.52659e-06
-0.00473294
3.21041e-06
-0.00529255
3.92987e-06
-0.00585334
4.67119e-06
-0.0064149
5.40715e-06
-0.00697785
6.11352e-06
-0.00754192
6.7689e-06
-0.00810717
7.32257e-06
-0.00867433
7.78454e-06
-0.00924196
8.04312e-06
-0.0098131
8.18963e-06
-0.0103824
7.97331e-06
-0.0109594
7.7445e-06
-0.0115292
6.85888e-06
-0.0121132
6.00746e-06
-0.012684
4.35867e-06
-0.0132745
2.59032e-06
-0.00027785
-0.000833601
5.93291e-08
-0.00138948
2.36758e-07
-0.00194567
5.28575e-07
-0.00250212
9.29801e-07
-0.00305913
1.43e-06
-0.00361658
2.02075e-06
-0.00417475
2.68423e-06
-0.00473366
3.40948e-06
-0.0052933
4.17207e-06
-0.00585408
4.95693e-06
-0.00641561
5.73565e-06
-0.0069785
6.48332e-06
-0.00754247
7.17653e-06
-0.00810763
7.76527e-06
-0.00867459
8.25444e-06
-0.00924211
8.53606e-06
-0.00981288
8.68929e-06
-0.0103822
8.4707e-06
-0.0109585
8.20753e-06
-0.0115284
7.28511e-06
-0.0121116
6.3725e-06
-0.0126823
4.65442e-06
-0.013272
2.76219e-06
-0.000277909
-0.000833778
6.28068e-08
-0.00138977
2.5063e-07
-0.00194607
5.59571e-07
-0.00250262
9.84295e-07
-0.00305972
1.51384e-06
-0.00361724
2.13899e-06
-0.00417547
2.84097e-06
-0.00473442
3.60754e-06
-0.00529408
4.41294e-06
-0.00585486
5.24066e-06
-0.00641636
6.06075e-06
-0.0069792
6.84752e-06
-0.00754306
7.5754e-06
-0.00810813
8.19547e-06
-0.00867487
8.70815e-06
-0.00924226
9.00969e-06
-0.00981266
9.16735e-06
-0.010382
8.94935e-06
-0.0109576
8.64592e-06
-0.0115275
7.67775e-06
-0.0121098
6.70377e-06
-0.0126804
4.89845e-06
-0.0132692
2.91037e-06
-0.000277972
-0.000833966
6.6245e-08
-0.00139008
2.64344e-07
-0.00194649
5.90216e-07
-0.00250315
1.0382e-06
-0.00306034
1.59683e-06
-0.00361795
2.25615e-06
-0.00417624
2.99645e-06
-0.00473523
3.80427e-06
-0.00529491
4.65243e-06
-0.00585568
5.52286e-06
-0.00641714
6.38381e-06
-0.00697992
7.2085e-06
-0.00754368
7.96885e-06
-0.00810864
8.61694e-06
-0.00867516
9.14905e-06
-0.00924242
9.46637e-06
-0.00981244
9.62671e-06
-0.0103817
9.41108e-06
-0.0109566
9.0653e-06
-0.0115265
8.05258e-06
-0.012108
7.00832e-06
-0.0126784
5.05776e-06
-0.0132663
3.03769e-06
-0.000278039
-0.000834165
6.96503e-08
-0.00139041
2.77917e-07
-0.00194694
6.20524e-07
-0.00250371
1.09147e-06
-0.003061
1.67879e-06
-0.00361869
2.37184e-06
-0.00417705
3.15003e-06
-0.00473608
3.99878e-06
-0.00529578
4.88951e-06
-0.00585654
5.80266e-06
-0.00641797
6.70454e-06
-0.00698068
7.56698e-06
-0.00754433
8.35905e-06
-0.00810918
9.0332e-06
-0.00867548
9.58129e-06
-0.00924258
9.90948e-06
-0.00981222
1.00685e-05
-0.0103813
9.85276e-06
-0.0109556
9.46554e-06
-0.0115254
8.41462e-06
-0.0121061
7.30679e-06
-0.0126764
5.2807e-06
-0.0132632
3.17155e-06
-0.000278108
-0.000834373
7.30251e-08
-0.00139075
2.91361e-07
-0.00194741
6.50493e-07
-0.0025043
1.14404e-06
-0.0030617
1.75951e-06
-0.00361947
2.48559e-06
-0.0041779
3.30086e-06
-0.00473697
4.18974e-06
-0.00529669
5.12242e-06
-0.00585744
6.07797e-06
-0.00641883
7.02084e-06
-0.00698148
7.92136e-06
-0.007545
8.74561e-06
-0.00810973
9.44572e-06
-0.0086758
1.00087e-05
-0.00924274
1.03443e-05
-0.00981201
1.04954e-05
-0.0103809
1.02668e-05
-0.0109546
9.84486e-06
-0.0115243
8.75647e-06
-0.012104
7.58749e-06
-0.0126743
5.49929e-06
-0.0132601
3.29591e-06
-0.000278181
-0.000834592
7.636e-08
-0.00139111
3.0463e-07
-0.00194791
6.80015e-07
-0.00250491
1.19571e-06
-0.00306242
1.8386e-06
-0.00362028
2.59673e-06
-0.00417879
3.44786e-06
-0.0047379
4.37556e-06
-0.00529765
5.34888e-06
-0.00585838
6.34581e-06
-0.00641973
7.32917e-06
-0.0069823
8.26789e-06
-0.0075457
9.12515e-06
-0.0081103
9.85233e-06
-0.00867613
1.04314e-05
-0.00924289
1.07748e-05
-0.00981178
1.09166e-05
-0.0103805
1.06714e-05
-0.0109535
1.02138e-05
-0.0115232
9.08906e-06
-0.0121019
7.85793e-06
-0.0126721
5.69995e-06
-0.0132568
3.41221e-06
-0.000278258
-0.00083482
7.96287e-08
-0.00139149
3.17623e-07
-0.00194842
7.08871e-07
-0.00250555
1.24609e-06
-0.00306318
1.91552e-06
-0.00362113
2.70452e-06
-0.00417971
3.58999e-06
-0.00473887
4.55473e-06
-0.00529864
5.5668e-06
-0.00585936
6.60334e-06
-0.00642067
7.6258e-06
-0.00698316
8.60202e-06
-0.00754643
9.49262e-06
-0.00811088
1.02481e-05
-0.00867647
1.08455e-05
-0.00924303
1.11988e-05
-0.00981153
1.13334e-05
-0.0103801
1.10737e-05
-0.0109524
1.05764e-05
-0.0115219
9.41814e-06
-0.0120998
8.12481e-06
-0.0126698
5.89475e-06
-0.0132534
3.52291e-06
-0.000278337
-0.000835058
8.27735e-08
-0.00139188
3.30117e-07
-0.00194896
7.366e-07
-0.00250622
1.29445e-06
-0.00306397
1.98925e-06
-0.00362202
2.80763e-06
-0.00418068
3.72563e-06
-0.00473989
4.72531e-06
-0.00529968
5.77373e-06
-0.00586039
6.84737e-06
-0.00642165
7.90659e-06
-0.00698405
8.91846e-06
-0.00754718
9.84154e-06
-0.00811147
1.06257e-05
-0.00867682
1.12434e-05
-0.00924317
1.16096e-05
-0.00981127
1.17409e-05
-0.0103796
1.14695e-05
-0.0109512
1.09322e-05
-0.0115207
9.74707e-06
-0.0120975
8.39476e-06
-0.0126674
6.08882e-06
-0.0132499
3.63091e-06
-0.00027842
-0.000835305
8.57171e-08
-0.00139228
3.41816e-07
-0.00194952
7.62577e-07
-0.00250692
1.33979e-06
-0.00306479
2.0584e-06
-0.00362294
2.90436e-06
-0.00418168
3.85282e-06
-0.00474094
4.88505e-06
-0.00530076
5.96714e-06
-0.00586144
7.07491e-06
-0.00642266
8.16779e-06
-0.00698497
9.21236e-06
-0.00754797
1.01656e-05
-0.00811209
1.09771e-05
-0.00867719
1.1616e-05
-0.0092433
1.19975e-05
-0.009811
1.21307e-05
-0.010379
1.18521e-05
-0.01095
1.12795e-05
-0.0115193
1.00758e-05
-0.0120952
8.66865e-06
-0.0126649
6.28891e-06
-0.0132463
3.74056e-06
-0.000278506
-0.000835562
8.83705e-08
-0.0013927
3.52372e-07
-0.0019501
7.86064e-07
-0.00250764
1.38089e-06
-0.00306564
2.12126e-06
-0.00362389
2.99252e-06
-0.00418271
3.96898e-06
-0.00474202
5.03111e-06
-0.00530186
6.14395e-06
-0.00586254
7.28265e-06
-0.0064237
8.40566e-06
-0.00698593
9.47922e-06
-0.00754878
1.04591e-05
-0.00811273
1.1295e-05
-0.00867757
1.19533e-05
-0.00924343
1.23506e-05
-0.00981072
1.24896e-05
-0.0103785
1.22114e-05
-0.0109488
1.1618e-05
-0.0115179
1.03959e-05
-0.0120928
8.93977e-06
-0.0126623
6.49539e-06
-0.0132425
3.8546e-06
-0.000278594
-0.000835826
9.06475e-08
-0.00139314
3.61446e-07
-0.00195069
8.06312e-07
-0.00250838
1.41646e-06
-0.00306651
2.17594e-06
-0.00362486
3.0696e-06
-0.00418377
4.07104e-06
-0.00474313
5.15997e-06
-0.005303
6.30037e-06
-0.00586366
7.4666e-06
-0.00642477
8.61604e-06
-0.0069869
9.71454e-06
-0.00754961
1.07168e-05
-0.00811339
1.15729e-05
-0.00867796
1.2247e-05
-0.00924357
1.26573e-05
-0.00981044
1.28021e-05
-0.0103779
1.25281e-05
-0.0109476
1.19255e-05
-0.0115164
1.06865e-05
-0.0120904
9.18822e-06
-0.0126597
6.69872e-06
-0.0132387
3.97018e-06
-0.000278685
-0.000836097
9.24777e-08
-0.00139358
3.68754e-07
-0.0019513
8.22672e-07
-0.00250914
1.44535e-06
-0.0030674
2.2206e-06
-0.00362587
3.13302e-06
-0.00418486
4.15564e-06
-0.00474427
5.26757e-06
-0.00530417
6.43178e-06
-0.00586481
7.62181e-06
-0.00642587
8.79384e-06
-0.00698791
9.91315e-06
-0.00755047
1.09333e-05
-0.00811406
1.18048e-05
-0.00867837
1.24901e-05
-0.00924372
1.29091e-05
-0.00981016
1.30567e-05
-0.0103773
1.27847e-05
-0.0109463
1.21722e-05
-0.011515
1.09233e-05
-0.0120879
9.38904e-06
-0.012657
6.8726e-06
-0.0132347
4.07118e-06
-0.000278777
-0.000836373
9.38128e-08
-0.00139404
3.74093e-07
-0.00195192
8.34659e-07
-0.00250991
1.46661e-06
-0.00306831
2.2537e-06
-0.00362689
3.1804e-06
-0.00418597
4.21947e-06
-0.00474544
5.3496e-06
-0.00530536
6.53296e-06
-0.00586598
7.74236e-06
-0.00642699
8.93271e-06
-0.00698893
1.00686e-05
-0.00755134
1.11023e-05
-0.00811475
1.19844e-05
-0.00867879
1.26758e-05
-0.00924387
1.30985e-05
-0.00980989
1.32444e-05
-0.0103767
1.29709e-05
-0.0109451
1.23468e-05
-0.0115134
1.10913e-05
-0.0120854
9.5157e-06
-0.0126542
6.97276e-06
-0.0132307
4.1244e-06
-0.000278871
-0.000836653
9.46412e-08
-0.0013945
3.77407e-07
-0.00195256
8.42107e-07
-0.0025107
1.47987e-06
-0.00306924
2.27445e-06
-0.00362793
3.21042e-06
-0.0041871
4.26039e-06
-0.00474662
5.40305e-06
-0.00530657
6.59991e-06
-0.00586717
7.82355e-06
-0.00642812
9.02738e-06
-0.00698996
1.01759e-05
-0.00755222
1.12189e-05
-0.00811544
1.2108e-05
-0.00867922
1.28008e-05
-0.00924401
1.32232e-05
-0.00980961
1.33617e-05
-0.0103761
1.30833e-05
-0.0109438
1.24459e-05
-0.0115119
1.11861e-05
-0.0120828
9.55766e-06
-0.0126513
6.96273e-06
-0.0132266
4.10255e-06
-0.000278966
-0.000836936
9.5343e-08
-0.00139496
3.80207e-07
-0.00195319
8.48382e-07
-0.0025115
1.49102e-06
-0.00307018
2.29193e-06
-0.00362898
3.23583e-06
-0.00418825
4.29541e-06
-0.00474782
5.44958e-06
-0.00530779
6.6596e-06
-0.00586837
7.89807e-06
-0.00642927
9.11757e-06
-0.006991
1.02821e-05
-0.00755311
1.13401e-05
-0.00811613
1.22426e-05
-0.00867964
1.29448e-05
-0.00924415
1.33741e-05
-0.00980933
1.35141e-05
-0.0103754
1.32376e-05
-0.0109426
1.2596e-05
-0.0115102
1.13377e-05
-0.0120802
9.67704e-06
-0.0126484
7.0556e-06
-0.0132225
4.20665e-06
-0.000279061
-0.000837221
9.56502e-08
-0.00139543
3.81423e-07
-0.00195384
8.51079e-07
-0.0025123
1.49578e-06
-0.00307112
2.29937e-06
-0.00363004
3.24677e-06
-0.0041894
4.31085e-06
-0.00474903
5.47086e-06
-0.00530903
6.68828e-06
-0.00586959
7.93593e-06
-0.00643044
9.16632e-06
-0.00699206
1.03432e-05
-0.00755401
1.14143e-05
-0.00811684
1.23295e-05
-0.00868007
1.30425e-05
-0.00924429
1.34797e-05
-0.00980906
1.36229e-05
-0.0103748
1.33483e-05
-0.0109413
1.27032e-05
-0.0115086
1.14437e-05
-0.0120776
9.7701e-06
-0.0126455
7.14204e-06
-0.0132183
4.39779e-06
-0.000279157
-0.000837506
9.54521e-08
-0.0013959
3.80617e-07
-0.00195448
8.49224e-07
-0.0025131
1.49245e-06
-0.00307207
2.29417e-06
-0.0036311
3.23951e-06
-0.00419056
4.30154e-06
-0.00475025
5.45995e-06
-0.00531028
6.67653e-06
-0.00587082
7.92478e-06
-0.00643161
9.15755e-06
-0.00699313
1.03391e-05
-0.00755492
1.1417e-05
-0.00811755
1.23404e-05
-0.00868051
1.30617e-05
-0.00924444
1.35059e-05
-0.00980879
1.36521e-05
-0.0103741
1.3378e-05
-0.01094
1.27274e-05
-0.0115069
1.1471e-05
-0.0120749
9.79251e-06
-0.0126427
7.14416e-06
-0.013214
4.01384e-06
-0.000279252
-0.000837792
9.4785e-08
-0.00139637
3.77942e-07
-0.00195513
8.43203e-07
-0.0025139
1.48179e-06
-0.00307301
2.27766e-06
-0.00363217
3.21614e-06
-0.00419172
4.27049e-06
-0.00475146
5.42083e-06
-0.00531152
6.62929e-06
-0.00587205
7.87022e-06
-0.00643279
9.09708e-06
-0.00699421
1.02753e-05
-0.00755585
1.13529e-05
-0.00811827
1.22794e-05
-0.00868096
1.30067e-05
-0.00924458
1.34585e-05
-0.00980852
1.36107e-05
-0.0103735
1.33404e-05
-0.0109388
1.26855e-05
-0.0115053
1.14307e-05
-0.0120723
9.75094e-06
-0.0126398
7.13833e-06
-0.0132097
3.96186e-06
-0.000279347
-0.000838075
9.36744e-08
-0.00139684
3.7351e-07
-0.00195576
8.333e-07
-0.0025147
1.4644e-06
-0.00307395
2.2509e-06
-0.00363322
3.17843e-06
-0.00419287
4.22044e-06
-0.00475267
5.35743e-06
-0.00531276
6.55182e-06
-0.00587328
7.77874e-06
-0.00643397
8.99236e-06
-0.00699528
1.01595e-05
-0.00755677
1.12293e-05
-0.008119
1.21527e-05
-0.00868141
1.28818e-05
-0.00924473
1.33407e-05
-0.00980825
1.35033e-05
-0.0103728
1.32446e-05
-0.0109375
1.25957e-05
-0.0115036
1.13444e-05
-0.0120697
9.64867e-06
-0.0126368
7.09639e-06
-0.0132055
4.18792e-06
-0.00027944
-0.000838354
9.21467e-08
-0.0013973
3.6743e-07
-0.0019564
8.19776e-07
-0.00251549
1.44076e-06
-0.00307488
2.21478e-06
-0.00363426
3.12783e-06
-0.004194
4.15366e-06
-0.00475387
5.27315e-06
-0.00531399
6.44896e-06
-0.00587449
7.65685e-06
-0.00643514
8.85154e-06
-0.00699635
1.00013e-05
-0.0075577
1.10561e-05
-0.00811973
1.19694e-05
-0.00868187
1.26942e-05
-0.0092449
1.31567e-05
-0.009808
1.33306e-05
-0.0103722
1.30906e-05
-0.0109363
1.24621e-05
-0.0115019
1.12332e-05
-0.0120671
9.54327e-06
-0.0126339
7.01625e-06
-0.0132014
4.16905e-06
-0.000279533
-0.00083863
9.02411e-08
-0.00139775
3.59857e-07
-0.00195702
8.02968e-07
-0.00251626
1.41148e-06
-0.00307579
2.17022e-06
-0.00363529
3.06568e-06
-0.00419512
4.07208e-06
-0.00475504
5.17077e-06
-0.0053152
6.32468e-06
-0.00587569
7.51012e-06
-0.00643629
8.68215e-06
-0.00699741
9.81018e-06
-0.00755861
1.08448e-05
-0.00812045
1.17418e-05
-0.00868233
1.24554e-05
-0.00924507
1.29152e-05
-0.00980777
1.30967e-05
-0.0103715
1.28762e-05
-0.0109351
1.22766e-05
-0.0115002
1.10871e-05
-0.0120646
9.43379e-06
-0.012631
6.93805e-06
-0.0131972
4.12118e-06
-0.000279623
-0.000838899
8.80154e-08
-0.00139819
3.51016e-07
-0.00195763
7.83353e-07
-0.00251702
1.37734e-06
-0.00307669
2.11832e-06
-0.0036363
2.99343e-06
-0.00419622
3.97755e-06
-0.0047562
5.05263e-06
-0.00531638
6.18206e-06
-0.00587686
7.34276e-06
-0.00643741
8.49005e-06
-0.00699844
9.59418e-06
-0.00755951
1.06059e-05
-0.00812117
1.14829e-05
-0.00868279
1.218e-05
-0.00924525
1.26305e-05
-0.00980755
1.28124e-05
-0.0103709
1.26065e-05
-0.0109339
1.20361e-05
-0.0114986
1.08934e-05
-0.0120621
9.29037e-06
-0.0126282
6.85691e-06
-0.0131931
4.06704e-06
-0.000279711
-0.000839162
8.55442e-08
-0.00139862
3.41194e-07
-0.00195822
7.61548e-07
-0.00251776
1.33933e-06
-0.00307756
2.0605e-06
-0.00363728
2.91289e-06
-0.0041973
3.87214e-06
-0.00475733
4.92102e-06
-0.00531755
6.02369e-06
-0.00587801
7.15777e-06
-0.00643852
8.27905e-06
-0.00699945
9.35861e-06
-0.00756038
1.0347e-05
-0.00812186
1.12033e-05
-0.00868324
1.1882e-05
-0.00924543
1.23194e-05
-0.00980735
1.24947e-05
-0.0103704
1.22948e-05
-0.0109327
1.17459e-05
-0.011497
1.06476e-05
-0.0120597
9.10811e-06
-0.0126254
6.77526e-06
-0.013189
4.00734e-06
-0.000279796
-0.000839418
8.291e-08
-0.00139904
3.30716e-07
-0.0019588
7.38249e-07
-0.00251849
1.29864e-06
-0.00307842
1.99842e-06
-0.00363824
2.82615e-06
-0.00419834
3.75831e-06
-0.00475843
4.77859e-06
-0.00531868
5.85214e-06
-0.00587913
6.95761e-06
-0.0064396
8.05156e-06
-0.00700044
9.10612e-06
-0.00756124
1.0072e-05
-0.00812254
1.09089e-05
-0.00868367
1.15712e-05
-0.00924561
1.1996e-05
-0.00980714
1.21623e-05
-0.0103698
1.19619e-05
-0.0109316
1.14223e-05
-0.0114954
1.03541e-05
-0.0120573
8.87405e-06
-0.0126227
6.64857e-06
-0.013185
3.93058e-06
-0.000279879
-0.000839666
8.01894e-08
-0.00139945
3.19883e-07
-0.00195936
7.14123e-07
-0.00251919
1.25639e-06
-0.00307924
1.93375e-06
-0.00363917
2.73543e-06
-0.00419936
3.63872e-06
-0.0047595
4.62829e-06
-0.00531979
5.67037e-06
-0.00588022
6.74489e-06
-0.00644065
7.8095e-06
-0.00700141
8.83784e-06
-0.00756208
9.78125e-06
-0.00812321
1.06007e-05
-0.0086841
1.12501e-05
-0.00924578
1.16667e-05
-0.00980694
1.18278e-05
-0.0103693
1.16276e-05
-0.0109306
1.10918e-05
-0.011494
1.00393e-05
-0.0120551
8.59111e-06
-0.0126199
6.42126e-06
-0.0131811
3.8204e-06
-0.000279959
-0.000839905
7.74403e-08
-0.00139985
3.08927e-07
-0.0019599
6.89688e-07
-0.00251986
1.21351e-06
-0.00308005
1.8679e-06
-0.00364007
2.64268e-06
-0.00420035
3.51587e-06
-0.00476054
4.47307e-06
-0.00532086
5.48156e-06
-0.00588129
6.52262e-06
-0.00644168
7.55523e-06
-0.00700235
8.55486e-06
-0.0075629
9.47424e-06
-0.00812386
1.0276e-05
-0.00868452
1.09151e-05
-0.00924594
1.13282e-05
-0.00980673
1.14918e-05
-0.0103687
1.12991e-05
-0.0109295
1.07738e-05
-0.0114925
9.73738e-06
-0.0120529
8.31242e-06
-0.0126173
6.18967e-06
-0.0131773
3.67719e-06
-0.000280037
-0.000840137
7.46944e-08
-0.00140023
2.97977e-07
-0.00196043
6.65244e-07
-0.00252052
1.17053e-06
-0.00308082
1.80175e-06
-0.00364095
2.54921e-06
-0.00420131
3.39155e-06
-0.00476155
4.31525e-06
-0.0053219
5.2885e-06
-0.00588232
6.29381e-06
-0.00644268
7.29147e-06
-0.00700327
8.25898e-06
-0.0075637
9.15093e-06
-0.0081245
9.9322e-06
-0.00868493
1.05599e-05
-0.0092461
1.09711e-05
-0.00980653
1.11431e-05
-0.0103682
1.09665e-05
-0.0109285
1.04657e-05
-0.0114911
9.45553e-06
-0.0120508
8.05787e-06
-0.0126148
5.97336e-06
-0.0131736
3.49143e-06
-0.000280111
-0.00084036
7.19508e-08
-0.00140059
2.87034e-07
-0.00196093
6.40804e-07
-0.00252115
1.12752e-06
-0.00308157
1.73544e-06
-0.00364179
2.45531e-06
-0.00420223
3.26632e-06
-0.00476252
4.15571e-06
-0.00532291
5.0925e-06
-0.00588332
6.06019e-06
-0.00644365
7.02018e-06
-0.00700417
7.95197e-06
-0.00756448
8.81208e-06
-0.00812512
9.56786e-06
-0.00868534
1.01795e-05
-0.00924627
1.0585e-05
-0.00980635
1.07655e-05
-0.0103677
1.06084e-05
-0.0109275
1.01462e-05
-0.0114897
9.17952e-06
-0.0120487
7.83584e-06
-0.0126123
5.79418e-06
-0.0131701
3.31785e-06
-0.000280183
-0.000840575
6.91875e-08
-0.00140095
2.76013e-07
-0.00196142
6.16189e-07
-0.00252176
1.08418e-06
-0.00308229
1.66855e-06
-0.0036426
2.36043e-06
-0.00420312
3.1396e-06
-0.00476346
3.99391e-06
-0.00532387
4.89326e-06
-0.00588428
5.8218e-06
-0.00644459
6.7419e-06
-0.00700503
7.63473e-06
-0.00756523
8.45876e-06
-0.00812573
9.18321e-06
-0.00868575
9.77172e-06
-0.00924645
1.01635e-05
-0.00980619
1.03456e-05
-0.0103673
1.02021e-05
-0.0109265
9.78187e-06
-0.0114883
8.86757e-06
-0.0120467
7.60886e-06
-0.0126098
5.649e-06
-0.0131668
3.29374e-06
-0.000280253
-0.000840782
6.63557e-08
-0.00140129
2.64723e-07
-0.00196189
5.9097e-07
-0.00252234
1.03974e-06
-0.00308298
1.59992e-06
-0.00364338
2.263e-06
-0.00420397
3.00933e-06
-0.00476436
3.82741e-06
-0.0053248
4.68797e-06
-0.00588521
5.57569e-06
-0.00644548
6.45387e-06
-0.00700585
7.30489e-06
-0.00756596
8.08923e-06
-0.00812632
8.77697e-06
-0.00868614
9.3352e-06
-0.00924663
9.70375e-06
-0.00980605
9.87644e-06
-0.0103668
9.73399e-06
-0.0109256
9.34523e-06
-0.0114871
8.4745e-06
-0.0120447
7.30509e-06
-0.0126075
5.4374e-06
-0.0131635
3.22913e-06
-0.000280319
-0.00084098
6.33889e-08
-0.00140162
2.52887e-07
-0.00196234
5.64521e-07
-0.0025229
9.93115e-07
-0.00308364
1.52783e-06
-0.00364412
2.16058e-06
-0.00420479
2.87225e-06
-0.00476522
3.6521e-06
-0.00532569
4.47157e-06
-0.00588609
5.31618e-06
-0.00644633
6.14956e-06
-0.00700664
6.95621e-06
-0.00756665
7.6967e-06
-0.00812687
8.34416e-06
-0.00868651
8.86433e-06
-0.0092468
9.20332e-06
-0.00980592
9.35227e-06
-0.0103664
9.20128e-06
-0.0109247
8.82056e-06
-0.0114859
7.98206e-06
-0.0120429
6.87777e-06
-0.0126053
5.10255e-06
-0.0131603
3.04668e-06
-0.000280382
-0.00084117
6.05435e-08
-0.00140193
2.41524e-07
-0.00196277
5.39127e-07
-0.00252344
9.48369e-07
-0.00308428
1.45867e-06
-0.00364483
2.06238e-06
-0.00420557
2.74091e-06
-0.00476604
3.48447e-06
-0.00532654
4.26499e-06
-0.00588692
5.06932e-06
-0.00644714
5.86089e-06
-0.00700738
6.62729e-06
-0.00756729
7.32757e-06
-0.00812739
7.94016e-06
-0.00868685
8.42538e-06
-0.00924695
8.7405e-06
-0.00980577
8.86529e-06
-0.0103661
8.71012e-06
-0.0109239
8.3259e-06
-0.0114848
7.5184e-06
-0.0120411
6.45468e-06
-0.0126032
4.76004e-06
-0.0131572
2.81989e-06
-0.000280443
-0.000841351
5.80315e-08
-0.00140222
2.31502e-07
-0.00196318
5.16753e-07
-0.00252395
9.08993e-07
-0.00308488
1.39792e-06
-0.00364551
1.9763e-06
-0.00420631
2.62622e-06
-0.00476682
3.33861e-06
-0.00532734
4.08647e-06
-0.00588771
4.85715e-06
-0.00644791
5.6156e-06
-0.00700808
6.34997e-06
-0.00756791
7.0218e-06
-0.00812787
7.60906e-06
-0.00868717
8.07542e-06
-0.00924708
8.3769e-06
-0.00980563
8.49865e-06
-0.0103657
8.34703e-06
-0.0109231
7.97982e-06
-0.0114837
7.19978e-06
-0.0120394
6.19569e-06
-0.0126013
4.55615e-06
-0.0131544
2.74358e-06
-0.000280501
-0.000841524
5.53223e-08
-0.00140251
2.20692e-07
-0.00196357
4.92609e-07
-0.00252444
8.66501e-07
-0.00308546
1.33235e-06
-0.00364616
1.88338e-06
-0.00420702
2.50238e-06
-0.00476756
3.18104e-06
-0.00532811
3.89348e-06
-0.00588848
4.62764e-06
-0.00644865
5.35029e-06
-0.00700875
6.04978e-06
-0.0075685
6.69056e-06
-0.00812834
7.24989e-06
-0.00868747
7.69631e-06
-0.0092472
7.98347e-06
-0.00980548
8.10425e-06
-0.0103653
7.95733e-06
-0.0109223
7.6083e-06
-0.0114827
6.85107e-06
-0.0120378
5.89607e-06
-0.0125995
4.3057e-06
-0.0131517
2.66332e-06
-0.000280556
-0.00084169
5.23875e-08
-0.00140278
2.08978e-07
-0.00196394
4.6645e-07
-0.0025249
8.20479e-07
-0.00308601
1.26137e-06
-0.00364678
1.78285e-06
-0.0042077
2.36846e-06
-0.00476828
3.01064e-06
-0.00532885
3.68478e-06
-0.0058892
4.37944e-06
-0.00644935
5.06345e-06
-0.00700939
5.72516e-06
-0.00756906
6.33195e-06
-0.00812878
6.86047e-06
-0.00868775
7.28498e-06
-0.00924732
7.55686e-06
-0.00980533
7.67759e-06
-0.010365
7.53812e-06
-0.0109215
7.21619e-06
-0.0114818
6.48455e-06
-0.0120362
5.57561e-06
-0.0125978
4.00758e-06
-0.013149
2.46903e-06
-0.000280609
-0.000841846
4.92015e-08
-0.00140304
1.96261e-07
-0.0019643
4.38064e-07
-0.00252534
7.70585e-07
-0.00308653
1.18449e-06
-0.00364737
1.67411e-06
-0.00420834
2.22373e-06
-0.00476895
2.8266e-06
-0.00532954
3.45948e-06
-0.00588989
4.11159e-06
-0.00645001
4.7543e-06
-0.00701
5.37538e-06
-0.00756959
5.94559e-06
-0.00812921
6.44025e-06
-0.00868801
6.84131e-06
-0.00924743
7.09557e-06
-0.00980519
7.2146e-06
-0.0103646
7.08094e-06
-0.0109208
6.79604e-06
-0.0114809
6.09522e-06
-0.0120345
5.28487e-06
-0.0125963
4.00507e-06
-0.0131465
2.32428e-06
-0.000280658
-0.000841993
4.57418e-08
-0.00140328
1.8245e-07
-0.00196463
4.07259e-07
-0.00252576
7.16488e-07
-0.00308702
1.10125e-06
-0.00364791
1.55651e-06
-0.00420894
2.06737e-06
-0.00476958
2.62793e-06
-0.00533019
3.21653e-06
-0.00589053
3.823e-06
-0.00645064
4.42178e-06
-0.00701058
4.99935e-06
-0.00757009
5.53074e-06
-0.00812961
5.98865e-06
-0.00868826
6.36599e-06
-0.00924755
6.60056e-06
-0.00980506
6.7152e-06
-0.0103643
6.58065e-06
-0.0109201
6.32742e-06
-0.01148
5.64818e-06
-0.0120331
4.96679e-06
-0.0125948
3.65736e-06
-0.0131442
2.16528e-06
-0.000280703
-0.00084213
4.19966e-08
-0.00140351
1.67497e-07
-0.00196494
3.73911e-07
-0.00252614
6.57961e-07
-0.00308748
1.01127e-06
-0.00364843
1.42954e-06
-0.0042095
1.89867e-06
-0.00477017
2.41373e-06
-0.0053308
2.95492e-06
-0.00589113
3.51256e-06
-0.00645121
4.06479e-06
-0.00701111
4.59577e-06
-0.00757055
5.0863e-06
-0.00812999
5.50419e-06
-0.00868848
5.85883e-06
-0.00924767
6.07271e-06
-0.00980492
6.18485e-06
-0.0103641
6.04406e-06
-0.0109194
5.8248e-06
-0.0114794
5.14138e-06
-0.0120318
4.60928e-06
-0.0125933
3.34827e-06
-0.0131421
1.98597e-06
-0.000280745
-0.000842255
3.79743e-08
-0.00140371
1.51414e-07
-0.00196522
3.38023e-07
-0.0025265
5.94946e-07
-0.0030879
9.1443e-07
-0.0036489
1.29297e-06
-0.00421002
1.71726e-06
-0.00477071
2.18341e-06
-0.00533136
2.67396e-06
-0.00589168
3.1794e-06
-0.00645175
3.68257e-06
-0.00701161
4.16356e-06
-0.00757096
4.61153e-06
-0.00813034
4.98519e-06
-0.00868868
5.31851e-06
-0.00924779
5.50931e-06
-0.00980478
5.62366e-06
-0.0103639
5.47105e-06
-0.0109187
5.33857e-06
-0.0114789
4.97258e-06
-0.0120305
4.10708e-06
-0.012592
3.03384e-06
-0.0131401
1.79302e-06
-0.000280783
-0.000842368
3.36982e-08
-0.0014039
1.3428e-07
-0.00196548
2.99714e-07
-0.00252682
5.27617e-07
-0.00308827
8.10875e-07
-0.00364932
1.14696e-06
-0.00421049
1.52332e-06
-0.0047712
1.93706e-06
-0.00533186
2.3736e-06
-0.00589219
2.82313e-06
-0.00645223
3.27482e-06
-0.00701206
3.70207e-06
-0.00757134
4.10675e-06
-0.00813067
4.43086e-06
-0.00868886
4.74605e-06
-0.00924791
4.90698e-06
-0.00980461
5.03143e-06
-0.0103637
4.82958e-06
-0.0109181
4.81772e-06
-0.0114783
4.37076e-06
-0.0120294
3.66511e-06
-0.0125908
2.71911e-06
-0.0131383
1.60823e-06
-0.000280817
-0.000842469
2.91827e-08
-0.00140406
1.16164e-07
-0.0019657
2.59146e-07
-0.0025271
4.5625e-07
-0.00308861
7.01025e-07
-0.0036497
9.92142e-07
-0.0042109
1.31774e-06
-0.00477164
1.67567e-06
-0.00533231
2.05482e-06
-0.00589264
2.44424e-06
-0.00645265
2.84232e-06
-0.00701247
3.21101e-06
-0.00757167
3.57392e-06
-0.00813097
3.8411e-06
-0.00868901
4.14679e-06
-0.00924805
4.26514e-06
-0.00980436
4.43781e-06
-0.0103638
4.52605e-06
-0.0109176
4.15316e-06
-0.0114776
3.76768e-06
-0.0120285
3.20119e-06
-0.0125896
2.38788e-06
-0.0131367
1.4115e-06
-0.000280846
-0.000842556
2.43896e-08
-0.00140421
9.70773e-08
-0.0019659
2.16462e-07
-0.00252734
3.81271e-07
-0.0030889
5.85657e-07
-0.00365002
8.29623e-07
-0.00421126
1.10195e-06
-0.00477201