/*--------------------------------*- C++ -*----------------------------------*\
  =========                 |
  \\      /  F ield         | OpenFOAM: The Open Source CFD Toolbox
   \\    /   O peration     | Website:  https://openfoam.org
    \\  /    A nd           | Version:  10
     \\/     M anipulation  |
\*---------------------------------------------------------------------------*/
FoamFile
{
    format      ascii;
    class       volScalarField;
    location    "0.35";
    object      rho;
}
// * * * * * * * * * * * * * * * * * * * * * * * * * * * * * * * * * * * * * //

dimensions      [1 -3 0 0 0 0 0];

internalField   nonuniform List<scalar> 
4176
(
0.0308487
0.0308517
0.0308579
0.0308683
0.0308814
0.0308978
0.0309186
0.0309401
0.0309693
0.0309955
0.0310323
0.0310647
0.0311069
0.0311476
0.0311923
0.031244
0.0312871
0.0313549
0.0313932
0.0314791
0.0315106
0.0316162
0.0316363
0.0317504
0.0308567
0.0308596
0.0308648
0.0308748
0.0308858
0.0309016
0.0309192
0.0309399
0.0309649
0.0309899
0.031022
0.0310523
0.0310899
0.0311271
0.0311679
0.0312142
0.0312541
0.0313144
0.0313499
0.0314268
0.0314538
0.0315541
0.0315749
0.0317036
0.030876
0.0308789
0.0308844
0.0308946
0.0309062
0.0309224
0.030941
0.0309621
0.0309884
0.031014
0.0310477
0.0310787
0.0311183
0.0311563
0.0311993
0.0312468
0.0312891
0.031352
0.0313876
0.0314682
0.0314954
0.0315945
0.0316135
0.0317343
0.0309047
0.0309076
0.0309129
0.0309229
0.0309341
0.0309498
0.0309679
0.0309884
0.0310141
0.0310387
0.031072
0.0311016
0.0311408
0.0311771
0.0312198
0.0312655
0.0313074
0.0313703
0.0314013
0.0314843
0.0315091
0.0316069
0.0316247
0.0317367
0.0309442
0.0309471
0.0309523
0.0309623
0.0309735
0.0309894
0.0310072
0.031028
0.0310534
0.0310784
0.0311113
0.0311412
0.0311801
0.0312166
0.0312594
0.0313045
0.0313484
0.0314082
0.0314428
0.0315237
0.0315503
0.0316475
0.0316668
0.0317803
0.0309937
0.0309965
0.0310017
0.0310116
0.0310225
0.0310383
0.0310558
0.0310764
0.0311013
0.0311261
0.0311583
0.0311881
0.0312263
0.0312624
0.0313048
0.0313488
0.0313931
0.0314499
0.031488
0.0315649
0.0315923
0.0316884
0.0317085
0.0318236
0.0310536
0.0310564
0.0310615
0.0310714
0.0310822
0.0310979
0.0311151
0.0311356
0.0311603
0.0311849
0.0312168
0.0312463
0.0312842
0.0313198
0.0313621
0.0314054
0.0314499
0.0315051
0.031544
0.031619
0.0316477
0.0317422
0.0317626
0.0318758
0.0311237
0.0311265
0.0311315
0.0311414
0.031152
0.0311675
0.0311845
0.0312048
0.0312291
0.0312534
0.0312849
0.031314
0.0313516
0.0313866
0.0314286
0.031471
0.0315155
0.0315689
0.031609
0.0316813
0.031711
0.031804
0.0318249
0.0319368
0.0312042
0.031207
0.0312119
0.0312217
0.0312321
0.0312476
0.0312643
0.0312844
0.0313084
0.0313324
0.0313635
0.0313922
0.0314293
0.0314638
0.0315055
0.031547
0.0315916
0.0316432
0.0316842
0.0317541
0.0317848
0.0318758
0.0318971
0.0320072
0.031295
0.0312979
0.0313027
0.0313124
0.0313226
0.0313379
0.0313544
0.0313743
0.0313979
0.0314216
0.0314523
0.0314805
0.0315172
0.031551
0.0315924
0.0316329
0.0316774
0.0317274
0.031769
0.0318365
0.0318688
0.0319563
0.0319787
0.032087
0.0313963
0.0313991
0.0314039
0.0314135
0.0314235
0.0314386
0.0314549
0.0314745
0.0314977
0.0315211
0.0315513
0.0315791
0.0316153
0.0316485
0.0316894
0.031729
0.0317732
0.0318217
0.0318639
0.031929
0.0319616
0.0320475
0.0320699
0.0321762
0.031508
0.0315108
0.0315155
0.031525
0.0315348
0.0315498
0.0315657
0.0315851
0.0316079
0.0316309
0.0316607
0.0316879
0.0317236
0.0317561
0.0317966
0.0318351
0.0318791
0.0319261
0.0319686
0.0320313
0.0320646
0.0321481
0.0321707
0.0322749
0.0316303
0.0316331
0.0316376
0.0316471
0.0316567
0.0316714
0.031687
0.0317061
0.0317285
0.0317511
0.0317804
0.0318071
0.0318423
0.031874
0.031914
0.0319515
0.0319951
0.0320406
0.0320834
0.0321437
0.0321778
0.0322584
0.0322813
0.0323832
0.0317632
0.031766
0.0317704
0.0317797
0.0317891
0.0318036
0.0318189
0.0318376
0.0318596
0.0318818
0.0319106
0.0319367
0.0319713
0.0320023
0.0320417
0.0320782
0.0321212
0.0321653
0.0322082
0.0322662
0.0323005
0.032379
0.0324017
0.0325012
0.0319068
0.0319096
0.0319139
0.0319231
0.0319322
0.0319465
0.0319614
0.0319798
0.0320013
0.032023
0.0320512
0.0320768
0.0321107
0.0321409
0.0321797
0.0322151
0.0322577
0.0323002
0.0323431
0.0323986
0.0324337
0.0325091
0.032532
0.032629
0.0320612
0.0320639
0.0320682
0.0320772
0.0320861
0.0321001
0.0321146
0.0321326
0.0321537
0.0321748
0.0322025
0.0322273
0.0322606
0.03229
0.0323281
0.0323624
0.0324044
0.0324455
0.0324882
0.0325412
0.0325766
0.0326493
0.0326726
0.0327667
0.0322265
0.0322292
0.0322333
0.0322422
0.0322508
0.0322645
0.0322787
0.0322963
0.0323168
0.0323374
0.0323644
0.0323885
0.0324211
0.0324496
0.032487
0.0325202
0.0325615
0.0326011
0.0326434
0.0326941
0.0327299
0.0327994
0.0328232
0.0329144
0.0324028
0.0324054
0.0324094
0.0324181
0.0324265
0.0324399
0.0324536
0.0324708
0.0324907
0.0325107
0.032537
0.0325604
0.0325923
0.0326198
0.0326564
0.0326884
0.0327291
0.0327671
0.032809
0.0328572
0.0328932
0.0329599
0.032984
0.0330722
0.0325901
0.0325928
0.0325966
0.0326051
0.0326132
0.0326263
0.0326396
0.0326562
0.0326756
0.032695
0.0327206
0.0327432
0.0327742
0.0328007
0.0328365
0.0328672
0.0329071
0.0329435
0.0329849
0.0330307
0.033067
0.0331306
0.033155
0.0332401
0.0327887
0.0327913
0.032795
0.0328033
0.0328111
0.0328238
0.0328366
0.0328528
0.0328715
0.0328902
0.032915
0.0329368
0.0329669
0.0329924
0.0330273
0.0330567
0.0330957
0.0331305
0.0331714
0.0332147
0.0332511
0.0333116
0.0333363
0.0334182
0.0329986
0.0330011
0.0330046
0.0330128
0.0330202
0.0330326
0.0330448
0.0330605
0.0330785
0.0330966
0.0331206
0.0331415
0.0331707
0.0331951
0.033229
0.0332571
0.0332951
0.0333283
0.0333683
0.0334093
0.0334457
0.0335031
0.033528
0.0336066
0.0332199
0.0332224
0.0332257
0.0332336
0.0332407
0.0332527
0.0332644
0.0332795
0.0332968
0.0333141
0.0333373
0.0333573
0.0333855
0.0334088
0.0334417
0.0334684
0.0335054
0.0335368
0.033576
0.0336147
0.033651
0.0337051
0.0337303
0.0338054
0.0334527
0.0334551
0.0334583
0.033466
0.0334726
0.0334842
0.0334953
0.0335098
0.0335264
0.033543
0.0335653
0.0335843
0.0336115
0.0336337
0.0336654
0.0336907
0.0337266
0.0337562
0.0337945
0.0338309
0.033867
0.0339177
0.033943
0.0340146
0.0336971
0.0336995
0.0337025
0.0337099
0.0337161
0.0337273
0.0337378
0.0337517
0.0337675
0.0337832
0.0338046
0.0338226
0.0338488
0.0338698
0.0339004
0.0339242
0.033959
0.0339868
0.0340241
0.034058
0.0340938
0.0341412
0.0341665
0.0342344
0.0339531
0.0339555
0.0339583
0.0339655
0.0339713
0.033982
0.0339919
0.0340051
0.0340202
0.034035
0.0340555
0.0340724
0.0340976
0.0341172
0.0341467
0.034169
0.0342026
0.0342285
0.0342648
0.0342963
0.0343317
0.0343756
0.0344008
0.0344649
0.034221
0.0342233
0.0342259
0.0342328
0.0342382
0.0342485
0.0342578
0.0342703
0.0342845
0.0342985
0.0343179
0.0343338
0.0343578
0.0343761
0.0344044
0.0344252
0.0344575
0.0344816
0.0345167
0.0345458
0.0345805
0.0346212
0.0346461
0.0347064
0.0345007
0.0345029
0.0345053
0.034512
0.034517
0.0345268
0.0345354
0.0345472
0.0345606
0.0345737
0.0345921
0.0346068
0.0346297
0.0346467
0.0346737
0.0346929
0.034724
0.0347462
0.03478
0.0348068
0.0348407
0.0348778
0.0349027
0.0349594
0.0347923
0.0347945
0.0347967
0.0348031
0.0348077
0.034817
0.034825
0.0348361
0.0348486
0.0348608
0.0348781
0.0348917
0.0349134
0.034929
0.0349547
0.0349723
0.035002
0.0350222
0.0350548
0.0350792
0.0351121
0.0351459
0.0351707
0.0352232
0.035096
0.0350981
0.0351001
0.0351062
0.0351103
0.0351192
0.0351265
0.035137
0.0351486
0.0351598
0.0351761
0.0351885
0.035209
0.0352231
0.0352475
0.0352634
0.0352917
0.03531
0.0353413
0.0353633
0.0353952
0.0354252
0.0354507
0.0354979
0.0354117
0.0354138
0.0354156
0.0354215
0.0354251
0.0354335
0.0354401
0.0354499
0.0354607
0.0354709
0.0354862
0.0354974
0.0355166
0.0355293
0.0355523
0.0355665
0.0355933
0.0356097
0.0356395
0.0356591
0.0356899
0.0357165
0.0357417
0.0357846
0.0357397
0.0357418
0.0357433
0.0357489
0.0357521
0.03576
0.035766
0.035775
0.0357849
0.0357942
0.0358084
0.0358184
0.0358364
0.0358477
0.0358692
0.0358817
0.035907
0.0359213
0.0359496
0.0359668
0.0359965
0.0360196
0.0360441
0.0360836
0.03608
0.036082
0.0360834
0.0360887
0.0360914
0.0360988
0.0361041
0.0361124
0.0361214
0.0361298
0.0361429
0.0361517
0.0361684
0.0361783
0.0361984
0.0362091
0.036233
0.0362451
0.0362719
0.0362866
0.0363149
0.0363349
0.0363592
0.0363938
0.0364327
0.0364347
0.0364358
0.0364408
0.0364431
0.03645
0.0364545
0.0364621
0.0364703
0.0364777
0.0364897
0.0364974
0.0365128
0.0365212
0.03654
0.0365489
0.0365713
0.0365813
0.0366065
0.0366186
0.0366456
0.0366623
0.0366863
0.0367163
0.0367978
0.0367998
0.0368007
0.0368054
0.0368072
0.0368136
0.0368175
0.0368244
0.0368316
0.0368381
0.036849
0.0368555
0.0368697
0.0368766
0.036894
0.0369011
0.0369221
0.03693
0.0369536
0.0369632
0.0369887
0.0370021
0.0370257
0.037051
0.0371755
0.0371774
0.0371781
0.0371826
0.037184
0.0371899
0.0371931
0.0371993
0.0372056
0.0372111
0.0372209
0.0372262
0.0372391
0.0372445
0.0372606
0.0372659
0.0372855
0.0372912
0.0373134
0.0373203
0.0373444
0.0373544
0.0373774
0.037398
0.0375659
0.0375677
0.0375682
0.0375725
0.0375734
0.0375788
0.0375813
0.0375868
0.0375922
0.0375968
0.0376056
0.0376096
0.0376213
0.0376252
0.0376399
0.0376434
0.0376615
0.0376651
0.0376858
0.0376902
0.0377128
0.0377196
0.0377417
0.0377576
0.037969
0.0379708
0.037971
0.0379751
0.0379755
0.0379805
0.0379824
0.0379872
0.0379917
0.0379953
0.038003
0.0380058
0.0380163
0.0380187
0.038032
0.0380337
0.0380503
0.0380518
0.038071
0.0380728
0.0380942
0.0380978
0.0381186
0.0381298
0.0383849
0.0383867
0.0383868
0.0383905
0.0383906
0.0383951
0.0383963
0.0384004
0.0384041
0.0384068
0.0384134
0.038415
0.0384242
0.0384251
0.038437
0.0384369
0.038452
0.0384513
0.0384691
0.0384683
0.0384883
0.0384888
0.0385086
0.0385149
0.0388139
0.0388156
0.0388155
0.038819
0.0388186
0.0388227
0.0388232
0.0388267
0.0388295
0.0388313
0.0388368
0.0388373
0.0388452
0.0388446
0.0388551
0.0388532
0.0388668
0.0388638
0.0388802
0.0388767
0.0388954
0.0388927
0.0389115
0.0389131
0.0392559
0.0392576
0.0392573
0.0392606
0.0392597
0.0392634
0.0392633
0.0392661
0.039268
0.0392689
0.0392734
0.0392726
0.0392794
0.0392773
0.0392864
0.0392827
0.0392948
0.0392895
0.0393044
0.0392982
0.0393154
0.0393097
0.0393274
0.0393248
0.0397112
0.0397128
0.0397123
0.0397154
0.0397141
0.0397173
0.0397165
0.0397187
0.0397198
0.0397197
0.0397232
0.0397213
0.0397268
0.0397233
0.0397311
0.0397255
0.0397362
0.0397286
0.0397421
0.039733
0.0397489
0.0397396
0.0397561
0.0397499
0.0401798
0.0401814
0.0401807
0.0401836
0.0401818
0.0401846
0.0401832
0.0401846
0.0401849
0.0401839
0.0401863
0.0401832
0.0401876
0.0401826
0.040189
0.0401816
0.040191
0.0401811
0.0401932
0.0401813
0.0401957
0.0401831
0.0401985
0.0401879
0.040662
0.0406635
0.0406626
0.0406652
0.040663
0.0406654
0.0406632
0.0406641
0.0406634
0.0406615
0.0406629
0.0406586
0.0406617
0.0406553
0.0406604
0.0406512
0.0406592
0.0406471
0.0406579
0.0406431
0.0406565
0.0406401
0.0406546
0.0406393
0.0411577
0.0411592
0.0411581
0.0411604
0.0411578
0.0411597
0.0411569
0.041157
0.0411555
0.0411527
0.041153
0.0411476
0.0411495
0.0411415
0.0411453
0.0411343
0.041141
0.0411266
0.0411361
0.0411184
0.0411307
0.0411108
0.0411246
0.0411045
0.041667
0.0416685
0.0416672
0.0416693
0.0416662
0.0416677
0.0416642
0.0416637
0.0416613
0.0416575
0.0416568
0.0416501
0.0416508
0.0416414
0.0416439
0.041631
0.0416363
0.0416197
0.0416279
0.0416074
0.0416188
0.0415951
0.0416082
0.0415839
0.0421902
0.0421916
0.0421901
0.042192
0.0421884
0.0421894
0.0421853
0.042184
0.0421807
0.0421761
0.0421743
0.0421664
0.0421658
0.042155
0.0421561
0.0421414
0.0421453
0.0421264
0.0421334
0.0421099
0.0421205
0.0420931
0.0421059
0.0420765
0.0427271
0.0427285
0.0427268
0.0427285
0.0427244
0.042725
0.0427201
0.0427182
0.042714
0.0427084
0.0427055
0.0426965
0.0426947
0.0426824
0.0426821
0.0426655
0.0426681
0.0426468
0.0426527
0.0426262
0.042636
0.0426044
0.0426177
0.0425828
0.0432779
0.0432793
0.0432773
0.0432788
0.0432742
0.0432744
0.0432688
0.0432662
0.0432611
0.0432546
0.0432506
0.0432404
0.0432374
0.0432235
0.043222
0.0432034
0.0432048
0.0431811
0.0431859
0.0431562
0.0431653
0.0431292
0.0431436
0.0431033
0.0438425
0.0438439
0.0438417
0.0438429
0.0438379
0.0438376
0.0438313
0.0438281
0.0438221
0.0438146
0.0438096
0.0437982
0.043794
0.0437785
0.0437758
0.0437552
0.0437555
0.0437292
0.043733
0.0437
0.0437088
0.0436684
0.0436827
0.0436377
0.044421
0.0444223
0.04442
0.0444209
0.0444154
0.0444147
0.0444077
0.0444038
0.0443969
0.0443885
0.0443825
0.0443698
0.0443644
0.0443474
0.0443435
0.0443209
0.0443201
0.0442912
0.0442943
0.0442576
0.0442667
0.0442216
0.0442357
0.044186
0.0450132
0.0450145
0.0450119
0.0450127
0.0450067
0.0450056
0.0449979
0.0449934
0.0449856
0.0449763
0.0449692
0.0449552
0.0449488
0.0449302
0.0449252
0.0449004
0.0448988
0.044867
0.0448696
0.0448285
0.0448395
0.0447885
0.044803
0.0447486
0.0456191
0.0456203
0.0456176
0.0456181
0.0456117
0.0456102
0.0456018
0.0455966
0.045588
0.0455778
0.0455698
0.0455545
0.0455471
0.0455268
0.0455209
0.0454939
0.0454916
0.0454565
0.0454594
0.0454144
0.0454246
0.0453704
0.0453841
0.0453255
0.0462385
0.0462397
0.0462368
0.0462371
0.0462303
0.0462284
0.0462193
0.0462135
0.0462041
0.0461929
0.0461841
0.0461675
0.0461593
0.0461371
0.0461305
0.046101
0.0460985
0.0460593
0.0460641
0.0460144
0.0460238
0.0459662
0.0459795
0.0459166
0.0468713
0.0468725
0.0468694
0.0468696
0.0468623
0.04686
0.0468504
0.046844
0.0468338
0.0468217
0.0468121
0.0467941
0.0467852
0.046761
0.0467542
0.0467219
0.0467195
0.0466774
0.0466808
0.0466284
0.0466373
0.0465766
0.0465889
0.046522
0.0475174
0.0475186
0.0475153
0.0475153
0.0475076
0.047505
0.0474948
0.0474878
0.047477
0.0474638
0.0474537
0.0474341
0.0474251
0.0473983
0.0473919
0.0473567
0.0473543
0.047309
0.0473118
0.0472571
0.0472646
0.0472008
0.0472126
0.0471417
0.0481765
0.0481777
0.0481743
0.0481741
0.048166
0.0481632
0.0481523
0.0481448
0.0481334
0.0481191
0.0481089
0.0480872
0.0480787
0.0480488
0.0480436
0.0480046
0.0480025
0.0479548
0.0479568
0.0478995
0.047906
0.0478395
0.0478504
0.0477758
0.0488484
0.0488497
0.048846
0.0488458
0.0488373
0.0488343
0.0488228
0.0488146
0.0488032
0.0487873
0.0487776
0.0487534
0.0487456
0.0487137
0.0487073
0.0486674
0.0486639
0.048615
0.048615
0.0485561
0.0485613
0.0484922
0.0485022
0.0484241
0.0495329
0.0495344
0.0495302
0.0495303
0.0495211
0.0495182
0.0495061
0.0494972
0.049486
0.0494686
0.0494588
0.0494336
0.0494247
0.0493922
0.0493844
0.0493436
0.0493386
0.0492882
0.0492875
0.0492264
0.0492305
0.0491589
0.0491682
0.0490866
0.0502298
0.0502313
0.0502269
0.0502272
0.0502173
0.0502146
0.0502018
0.0501929
0.0501808
0.0501631
0.0501525
0.0501267
0.0501169
0.0500835
0.050075
0.0500328
0.0500269
0.0499754
0.049973
0.0499105
0.0499135
0.0498395
0.049848
0.0497632
0.0509389
0.0509404
0.050936
0.050936
0.0509262
0.0509231
0.0509097
0.0509014
0.0508879
0.0508703
0.0508589
0.0508325
0.0508219
0.050788
0.0507783
0.0507354
0.0507281
0.0506754
0.0506723
0.050608
0.0506099
0.0505338
0.0505415
0.0504536
0.05166
0.0516616
0.0516572
0.0516571
0.0516471
0.0516439
0.05163
0.0516219
0.0516069
0.0515903
0.0515774
0.0515509
0.0515396
0.0515049
0.0514945
0.0514506
0.0514425
0.0513889
0.0513843
0.0513188
0.0513197
0.0512416
0.0512486
0.0511579
0.052393
0.0523946
0.0523902
0.05239
0.0523799
0.0523766
0.0523624
0.0523543
0.0523384
0.0523224
0.0523077
0.0522821
0.0522695
0.0522343
0.0522231
0.0521786
0.0521695
0.0521149
0.0521094
0.0520427
0.0520425
0.0519627
0.0519688
0.0518755
0.0531377
0.0531393
0.0531349
0.0531347
0.0531245
0.0531211
0.0531067
0.0530985
0.053082
0.0530663
0.0530504
0.0530254
0.0530115
0.0529759
0.0529642
0.0529189
0.0529091
0.0528535
0.052847
0.0527793
0.052778
0.0526966
0.0527021
0.0526064
0.0538941
0.0538958
0.0538913
0.0538911
0.0538808
0.0538774
0.0538627
0.0538546
0.0538374
0.053822
0.0538051
0.0537804
0.053765
0.0537302
0.0537171
0.0536713
0.0536607
0.0536043
0.0535968
0.0535281
0.053526
0.0534431
0.0534478
0.05335
0.0546621
0.0546639
0.0546594
0.0546592
0.0546487
0.0546454
0.0546304
0.0546222
0.0546046
0.0545893
0.0545716
0.054547
0.0545305
0.0544959
0.0544817
0.0544355
0.0544241
0.0543668
0.0543586
0.054289
0.0542859
0.0542017
0.0542057
0.054106
0.0554419
0.0554437
0.0554391
0.055439
0.0554283
0.055425
0.0554097
0.0554014
0.0553834
0.0553682
0.0553496
0.0553251
0.0553078
0.0552726
0.0552576
0.0552113
0.055199
0.0551409
0.055132
0.0550612
0.0550576
0.0549722
0.0549754
0.054874
0.0562333
0.0562352
0.0562305
0.0562305
0.0562195
0.0562161
0.0562005
0.0561921
0.0561735
0.0561583
0.0561387
0.0561144
0.0560959
0.0560607
0.0560446
0.055998
0.0559849
0.0559262
0.0559164
0.0558448
0.0558401
0.0557539
0.0557564
0.0556535
0.0570364
0.0570384
0.0570335
0.0570335
0.0570222
0.0570187
0.0570026
0.0569939
0.0569748
0.0569594
0.0569388
0.0569145
0.056895
0.0568594
0.0568425
0.0567955
0.0567816
0.0567219
0.0567118
0.056639
0.0566338
0.0565466
0.0565484
0.0564442
0.0578509
0.0578529
0.0578479
0.0578477
0.0578361
0.0578323
0.0578157
0.0578067
0.0577869
0.0577711
0.0577493
0.0577253
0.0577041
0.0576688
0.0576503
0.0576033
0.0575887
0.0575283
0.0575171
0.0574439
0.0574376
0.0573499
0.057351
0.0572459
0.0586762
0.0586783
0.058673
0.0586727
0.0586606
0.0586564
0.0586393
0.0586298
0.0586092
0.058593
0.0585701
0.0585461
0.0585233
0.0584884
0.0584682
0.0584212
0.0584055
0.0583444
0.0583329
0.0582588
0.058252
0.0581636
0.058164
0.0580581
0.0595114
0.0595135
0.059508
0.0595074
0.059495
0.0594903
0.0594726
0.0594625
0.0594413
0.0594244
0.0594006
0.0593766
0.0593519
0.0593177
0.059296
0.0592485
0.0592316
0.059171
0.0591582
0.059084
0.0590762
0.0589876
0.0589874
0.0588809
0.0603547
0.0603568
0.0603513
0.0603504
0.0603378
0.0603327
0.0603146
0.060304
0.0602822
0.0602648
0.0602401
0.060216
0.0601897
0.0601564
0.0601324
0.0600861
0.0600663
0.0600074
0.0599937
0.0599191
0.0599107
0.0598218
0.059821
0.0597143
0.0612042
0.0612063
0.0612009
0.0611998
0.0611872
0.061182
0.0611637
0.0611529
0.0611308
0.0611132
0.0610881
0.0610639
0.0610365
0.0610039
0.0609778
0.0609332
0.0609121
0.0608529
0.0608383
0.0607643
0.060755
0.0606664
0.0606652
0.0605584
0.0620576
0.0620597
0.0620545
0.0620537
0.0620413
0.0620363
0.0620184
0.0620078
0.061986
0.0619686
0.0619436
0.0619198
0.0618919
0.0618602
0.0618327
0.0617897
0.0617666
0.0617088
0.061692
0.0616204
0.06161
0.0615215
0.0615201
0.0614135
0.0629129
0.0629153
0.0629104
0.0629101
0.0628983
0.0628941
0.062877
0.0628673
0.0628464
0.0628299
0.0628057
0.0627829
0.0627554
0.0627249
0.0626968
0.0626557
0.0626307
0.0625756
0.0625561
0.0624868
0.0624755
0.0623876
0.0623861
0.0622798
0.0637695
0.063772
0.0637677
0.0637681
0.0637573
0.0637543
0.0637385
0.0637303
0.063711
0.0636962
0.0636735
0.0636524
0.0636263
0.0635976
0.0635701
0.063531
0.0635057
0.0634525
0.0634332
0.0633628
0.0633526
0.0632648
0.0632634
0.0631575
0.064628
0.0646309
0.0646272
0.0646286
0.0646189
0.0646174
0.0646032
0.0645969
0.0645796
0.0645669
0.0645464
0.0645278
0.0645037
0.0644776
0.0644517
0.0644154
0.0643904
0.0643408
0.0643205
0.0642522
0.0642414
0.0641538
0.0641525
0.0640466
0.0654919
0.065495
0.0654919
0.0654942
0.0654856
0.0654856
0.0654729
0.0654686
0.0654533
0.065443
0.0654249
0.065409
0.0653873
0.0653641
0.0653409
0.0653074
0.0652848
0.0652377
0.0652191
0.0651532
0.0651435
0.0650556
0.0650546
0.0649477
0.0663665
0.0663702
0.0663672
0.0663705
0.0663622
0.0663637
0.0663517
0.0663492
0.0663351
0.066327
0.0663106
0.0662972
0.0662776
0.0662572
0.0662373
0.0662056
0.0661875
0.0661415
0.066128
0.0660626
0.0660572
0.0659705
0.0659707
0.0658631
0.06726
0.0672644
0.0672605
0.0672652
0.0672556
0.0672589
0.0672454
0.0672453
0.0672296
0.067224
0.0672072
0.0671958
0.0671772
0.0671582
0.0671424
0.0671083
0.0670995
0.0670479
0.0670452
0.0669775
0.066979
0.0668945
0.0668983
0.0667963
0.0681814
0.0681853
0.0681822
0.068185
0.0681765
0.068177
0.0681648
0.0681614
0.0681471
0.0681386
0.0681223
0.0681098
0.0680904
0.0680733
0.0680548
0.0680237
0.0680144
0.0679649
0.0679638
0.0678977
0.0679028
0.0678203
0.0678289
0.0677347
0.0691391
0.0691427
0.069139
0.0691409
0.0691308
0.0691297
0.0691152
0.0691096
0.0690927
0.0690815
0.0690624
0.0690471
0.069025
0.0690061
0.0689828
0.0689549
0.0689381
0.0688917
0.0688896
0.0688226
0.0688297
0.0687454
0.0687574
0.0686635
0.0701396
0.0701429
0.0701383
0.0701389
0.0701268
0.0701233
0.0701057
0.0700968
0.0700758
0.0700604
0.0700367
0.0700165
0.0699893
0.0699655
0.0699363
0.0699052
0.0698817
0.0698354
0.0698259
0.0697567
0.0697637
0.0696745
0.0696888
0.0695908
0.0711861
0.0711898
0.0711836
0.0711832
0.0711686
0.0711628
0.0711416
0.0711291
0.0711032
0.0710831
0.0710531
0.0710272
0.0709927
0.0709621
0.0709247
0.0708865
0.0708547
0.070801
0.0707851
0.070707
0.0707118
0.0706137
0.0706287
0.0705223
0.0722789
0.0722831
0.0722751
0.0722743
0.0722571
0.0722496
0.0722244
0.0722096
0.0721775
0.0721548
0.0721163
0.0720867
0.0720422
0.072005
0.0719581
0.0719101
0.07187
0.071801
0.0717786
0.0716867
0.0716838
0.0715724
0.071585
0.0714648
0.0734145
0.073418
0.0734108
0.0734076
0.0733904
0.0733797
0.0733537
0.0733341
0.0733012
0.0732713
0.0732317
0.0731931
0.0731453
0.0730992
0.0730436
0.0729896
0.0729317
0.0728582
0.0728176
0.0727132
0.0726958
0.0725657
0.07257
0.0724279
0.0745864
0.0745896
0.0745824
0.0745787
0.0745606
0.074549
0.0745215
0.0745004
0.0744654
0.0744331
0.0743905
0.0743485
0.0742965
0.0742455
0.0741843
0.0741234
0.0740542
0.07398
0.0739121
0.0738093
0.0737655
0.073618
0.0736057
0.0734304
0.0757865
0.0757897
0.0757825
0.0757787
0.0757604
0.0757485
0.0757207
0.075699
0.0756633
0.0756302
0.0755865
0.0755431
0.0754897
0.0754365
0.0753728
0.0753088
0.0752356
0.0751573
0.0750787
0.0749782
0.0749047
0.0747601
0.0747207
0.0745079
0.0770062
0.0770093
0.0770024
0.0769989
0.0769808
0.0769694
0.0769418
0.0769206
0.0768853
0.0768526
0.0768094
0.0767665
0.0767134
0.0766607
0.0765974
0.0765338
0.0764609
0.0763829
0.0763038
0.0762044
0.0761252
0.0759888
0.0759319
0.0757072
0.0782366
0.0782401
0.0782335
0.0782306
0.078213
0.0782025
0.0781757
0.0781557
0.0781215
0.0780902
0.0780484
0.0780072
0.077956
0.0779054
0.0778443
0.0777833
0.0777128
0.0776379
0.0775639
0.0774656
0.0773984
0.0772604
0.07722
0.0770227
0.0794701
0.0794739
0.0794676
0.0794654
0.0794486
0.0794393
0.0794136
0.0793952
0.0793626
0.0793333
0.0792936
0.0792549
0.0792062
0.0791586
0.0791007
0.0790433
0.0789767
0.0789065
0.0788369
0.0787445
0.0786829
0.0785527
0.0785152
0.0783323
0.0806994
0.0807035
0.0806976
0.0806963
0.0806803
0.0806724
0.080648
0.0806315
0.0806007
0.0805738
0.0805364
0.0805007
0.0804549
0.0804109
0.0803565
0.0803034
0.0802409
0.0801761
0.080111
0.0800254
0.0799682
0.0798477
0.0798127
0.0796436
0.0819183
0.0819231
0.0819174
0.0819172
0.0819019
0.0818956
0.0818724
0.0818581
0.081829
0.081805
0.0817697
0.0817377
0.0816944
0.0816547
0.0816037
0.0815552
0.0814972
0.0814379
0.0813774
0.0812984
0.0812464
0.0811353
0.0811026
0.0809472
0.0831223
0.0831276
0.0831215
0.0831231
0.0831078
0.0831039
0.0830812
0.08307
0.0830417
0.0830217
0.0829875
0.0829603
0.0829186
0.0828845
0.0828357
0.0827931
0.0827386
0.0826854
0.0826288
0.0825578
0.0825091
0.0824081
0.0823777
0.0822359
0.0843067
0.0843121
0.0843064
0.0843092
0.0842943
0.0842925
0.0842704
0.0842623
0.0842347
0.0842189
0.0841855
0.0841637
0.0841226
0.0840952
0.0840472
0.0840124
0.0839595
0.0839128
0.0838618
0.083796
0.0837519
0.0836609
0.0836326
0.0835041
0.0854682
0.0854736
0.0854687
0.0854714
0.0854587
0.0854567
0.085438
0.0854297
0.0854064
0.0853907
0.0853623
0.0853413
0.0853056
0.08528
0.0852373
0.0852058
0.0851578
0.0851173
0.0850688
0.0850105
0.0849705
0.0848893
0.084863
0.0847475
0.086604
0.0866091
0.086605
0.0866081
0.0865967
0.0865956
0.0865787
0.0865717
0.0865512
0.0865368
0.0865123
0.0864926
0.086462
0.0864379
0.0864009
0.0863718
0.0863292
0.0862932
0.0862482
0.0861987
0.0861623
0.0860898
0.0860653
0.0859623
0.0877111
0.0877165
0.0877129
0.0877165
0.0877061
0.0877061
0.0876908
0.0876853
0.0876671
0.0876546
0.0876331
0.0876155
0.0875887
0.0875671
0.0875348
0.0875089
0.087471
0.0874396
0.0873985
0.0873575
0.0873219
0.0872591
0.0872369
0.0871458
0.0887883
0.0887939
0.0887906
0.0887948
0.0887853
0.0887864
0.0887725
0.0887686
0.0887523
0.0887418
0.088723
0.0887077
0.0886843
0.0886656
0.088637
0.0886147
0.088581
0.088554
0.0885177
0.0884829
0.0884487
0.0883959
0.0883759
0.0882961
0.0898343
0.0898397
0.0898368
0.0898415
0.0898328
0.0898349
0.0898223
0.0898199
0.0898056
0.0897969
0.0897806
0.0897677
0.0897473
0.0897313
0.0897065
0.0896874
0.089658
0.0896352
0.0896026
0.0895735
0.0895423
0.0894977
0.0894808
0.0894113
0.0908474
0.0908528
0.0908503
0.0908555
0.0908476
0.0908506
0.0908393
0.0908383
0.0908256
0.0908188
0.0908048
0.0907941
0.0907766
0.0907632
0.0907418
0.0907259
0.0907002
0.0906813
0.0906532
0.090629
0.0906008
0.0905651
0.0905485
0.09049
0.0918271
0.0918326
0.0918302
0.0918361
0.0918285
0.0918329
0.0918222
0.0918229
0.0918117
0.0918067
0.0917947
0.0917862
0.0917713
0.0917605
0.0917423
0.0917294
0.0917074
0.0916922
0.0916675
0.091648
0.0916235
0.0915957
0.0915798
0.091531
0.0927729
0.0927782
0.0927763
0.0927822
0.0927759
0.0927804
0.0927715
0.0927729
0.0927634
0.0927599
0.09275
0.0927434
0.0927311
0.0927226
0.0927073
0.0926973
0.0926785
0.0926667
0.092646
0.0926307
0.0926097
0.0925878
0.0925743
0.0925338
0.0936846
0.0936899
0.0936876
0.093695
0.0936876
0.0936948
0.093685
0.0936891
0.09368
0.0936786
0.0936702
0.0936656
0.0936554
0.0936493
0.0936368
0.0936294
0.0936138
0.0936053
0.0935877
0.0935764
0.093559
0.0935424
0.0935302
0.0934985
0.0945617
0.0945668
0.0945659
0.0945711
0.0945679
0.0945715
0.0945668
0.0945685
0.094563
0.0945616
0.0945557
0.0945525
0.0945446
0.0945405
0.0945304
0.0945256
0.0945128
0.0945071
0.094493
0.0944854
0.0944709
0.0944593
0.0944486
0.0944249
0.0954049
0.0954102
0.095408
0.0954166
0.0954092
0.095419
0.0954095
0.0954169
0.0954091
0.0954114
0.0954056
0.0954047
0.0953984
0.0953964
0.0953886
0.0953861
0.0953759
0.0953733
0.0953615
0.0953573
0.0953457
0.0953384
0.0953302
0.0953134
0.0962141
0.0962187
0.0962188
0.0962234
0.0962226
0.0962256
0.0962244
0.0962261
0.0962244
0.0962244
0.0962221
0.0962217
0.0962176
0.0962172
0.0962115
0.0962112
0.0962034
0.096203
0.0961944
0.0961933
0.0961842
0.0961807
0.0961747
0.0961643
0.0969899
0.0969948
0.0969934
0.0970013
0.0969963
0.0970054
0.0969989
0.097007
0.0970017
0.0970062
0.097003
0.0970051
0.0970021
0.0970035
0.0969998
0.0970014
0.0969958
0.0969982
0.0969915
0.0969932
0.0969867
0.0969873
0.0969834
0.096978
0.0977327
0.097737
0.0977373
0.0977427
0.0977417
0.0977468
0.0977459
0.0977496
0.0977496
0.0977517
0.0977519
0.097754
0.0977531
0.0977558
0.0977538
0.0977572
0.0977538
0.0977579
0.0977538
0.0977584
0.0977539
0.0977578
0.097756
0.0977555
0.0984433
0.0984475
0.0984477
0.0984534
0.0984526
0.0984583
0.0984571
0.098463
0.098462
0.0984667
0.0984666
0.0984707
0.0984706
0.0984749
0.0984744
0.0984794
0.0984778
0.0984842
0.0984817
0.0984885
0.0984861
0.0984935
0.098493
0.0984971
0.0991223
0.0991264
0.0991265
0.0991329
0.0991311
0.0991388
0.0991369
0.0991437
0.0991437
0.0991486
0.09915
0.0991547
0.0991561
0.0991615
0.0991623
0.0991689
0.0991688
0.0991767
0.0991761
0.0991855
0.0991844
0.0991945
0.0991955
0.0992037
0.0997707
0.0997742
0.0997758
0.0997796
0.0997819
0.0997852
0.0997884
0.0997918
0.0997951
0.0997991
0.0998022
0.0998074
0.0998099
0.0998164
0.0998185
0.0998263
0.0998277
0.0998374
0.0998382
0.0998491
0.0998497
0.0998627
0.0998643
0.0998762
0.100389
0.100393
0.100393
0.100399
0.100399
0.100406
0.100405
0.100413
0.100414
0.100421
0.100423
0.10043
0.100433
0.100441
0.100444
0.100453
0.100455
0.100466
0.100468
0.100482
0.100483
0.100498
0.100501
0.100516
0.100979
0.100982
0.100984
0.100988
0.10099
0.100994
0.100998
0.101002
0.101007
0.101011
0.101016
0.101023
0.101027
0.101035
0.101039
0.101049
0.101053
0.101065
0.101069
0.101083
0.101086
0.101103
0.101106
0.101124
0.101541
0.101544
0.101545
0.101549
0.101552
0.101557
0.101559
0.101566
0.101568
0.101576
0.10158
0.101588
0.101592
0.101601
0.101606
0.101617
0.101622
0.101635
0.101639
0.101656
0.101659
0.101678
0.101682
0.101702
0.102076
0.102078
0.10208
0.102084
0.102086
0.102092
0.102095
0.102101
0.102105
0.102111
0.102117
0.102125
0.10213
0.10214
0.102145
0.102157
0.102163
0.102177
0.102182
0.102199
0.102204
0.102224
0.102229
0.10225
0.102585
0.102587
0.102589
0.102593
0.102596
0.1026
0.102605
0.10261
0.102615
0.102622
0.102627
0.102636
0.102642
0.102652
0.102658
0.102671
0.102677
0.102692
0.102697
0.102716
0.102721
0.102742
0.102748
0.102772
0.103069
0.103071
0.103073
0.103077
0.10308
0.103084
0.103088
0.103095
0.103099
0.103107
0.103112
0.103122
0.103128
0.103139
0.103145
0.103158
0.103165
0.103181
0.103188
0.103206
0.103212
0.103235
0.10324
0.103267
0.103529
0.103531
0.103533
0.103537
0.103539
0.103545
0.103549
0.103555
0.10356
0.103567
0.103574
0.103583
0.10359
0.103601
0.103608
0.103622
0.103629
0.103646
0.103652
0.103672
0.103678
0.103702
0.103708
0.103736
0.103966
0.103968
0.103971
0.103973
0.103978
0.103981
0.103987
0.103992
0.103998
0.104005
0.104012
0.104021
0.104028
0.10404
0.104047
0.104061
0.104069
0.104086
0.104094
0.104114
0.104121
0.104146
0.104151
0.104181
0.104382
0.104384
0.104385
0.104389
0.104391
0.104398
0.104401
0.104408
0.104413
0.104421
0.104428
0.104438
0.104445
0.104457
0.104465
0.104479
0.104487
0.104505
0.104512
0.104533
0.104541
0.104566
0.104572
0.104603
0.104776
0.104778
0.10478
0.104783
0.104787
0.104791
0.104796
0.104802
0.104808
0.104815
0.104823
0.104832
0.10484
0.104852
0.10486
0.104875
0.104884
0.104901
0.10491
0.104931
0.104938
0.104964
0.104971
0.105002
0.10515
0.105152
0.105155
0.105157
0.105161
0.105165
0.10517
0.105176
0.105182
0.10519
0.105197
0.105207
0.105215
0.105227
0.105235
0.105251
0.105259
0.105277
0.105286
0.105308
0.105316
0.105342
0.105348
0.105381
0.105506
0.105508
0.105509
0.105514
0.105514
0.105522
0.105524
0.105532
0.105537
0.105546
0.105552
0.105563
0.105571
0.105583
0.105591
0.105607
0.105616
0.105634
0.105643
0.105665
0.105673
0.105699
0.105706
0.105739
0.105843
0.105844
0.105847
0.105848
0.105854
0.105855
0.105864
0.105867
0.105875
0.105882
0.10589
0.1059
0.105908
0.10592
0.105929
0.105944
0.105953
0.105972
0.10598