/*--------------------------------*- C++ -*----------------------------------*\
  =========                 |
  \\      /  F ield         | OpenFOAM: The Open Source CFD Toolbox
   \\    /   O peration     | Website:  https://openfoam.org
    \\  /    A nd           | Version:  10
     \\/     M anipulation  |
\*---------------------------------------------------------------------------*/
FoamFile
{
    format      ascii;
    class       volScalarField;
    location    "0.35";
    object      T;
}
// * * * * * * * * * * * * * * * * * * * * * * * * * * * * * * * * * * * * * //

dimensions      [0 0 0 1 0 0 0];

internalField   nonuniform List<scalar> 
4176
(
180.347
180.351
180.373
180.382
180.426
180.444
180.507
180.538
180.614
180.661
180.749
180.809
180.913
180.985
181.102
181.191
181.307
181.43
181.535
181.702
181.778
182.01
182.024
182.326
180.356
180.36
180.382
180.392
180.436
180.456
180.519
180.552
180.628
180.677
180.767
180.83
180.935
181.009
181.129
181.221
181.339
181.465
181.572
181.742
181.819
182.061
182.078
182.411
180.384
180.388
180.41
180.42
180.462
180.482
180.542
180.575
180.649
180.698
180.785
180.847
180.95
181.022
181.14
181.228
181.346
181.468
181.573
181.739
181.812
182.049
182.066
182.409
180.436
180.44
180.461
180.471
180.514
180.534
180.594
180.627
180.701
180.749
180.836
180.897
181.001
181.073
181.192
181.279
181.399
181.522
181.622
181.793
181.864
182.097
182.112
182.439
180.511
180.515
180.536
180.546
180.588
180.607
180.667
180.699
180.772
180.82
180.907
180.967
181.07
181.14
181.258
181.344
181.464
181.586
181.684
181.856
181.925
182.156
182.171
182.488
180.61
180.614
180.635
180.645
180.687
180.706
180.765
180.797
180.869
180.917
181.002
181.062
181.164
181.234
181.352
181.435
181.558
181.673
181.777
181.944
182.016
182.243
182.262
182.578
180.733
180.737
180.758
180.767
180.809
180.828
180.886
180.918
180.989
181.037
181.12
181.18
181.28
181.349
181.466
181.548
181.671
181.782
181.89
182.051
182.124
182.349
182.369
182.684
180.88
180.884
180.904
180.914
180.955
180.974
181.031
181.063
181.133
181.18
181.263
181.321
181.421
181.489
181.605
181.685
181.808
181.914
182.025
182.18
182.256
182.477
182.499
182.809
181.05
181.055
181.075
181.084
181.125
181.143
181.2
181.231
181.3
181.347
181.428
181.486
181.584
181.651
181.766
181.845
181.967
182.07
182.182
182.332
182.41
182.626
182.649
182.955
181.245
181.249
181.269
181.278
181.318
181.336
181.392
181.423
181.491
181.537
181.618
181.674
181.771
181.837
181.95
182.027
182.149
182.248
182.361
182.506
182.584
182.799
182.822
183.122
181.463
181.467
181.487
181.496
181.536
181.553
181.609
181.638
181.706
181.751
181.83
181.886
181.981
182.045
182.157
182.233
182.353
182.449
182.563
182.702
182.783
182.99
183.015
183.311
181.705
181.709
181.729
181.737
181.776
181.793
181.848
181.877
181.944
181.988
182.066
182.121
182.215
182.277
182.387
182.461
182.58
182.673
182.787
182.921
183.004
183.203
183.231
183.52
181.971
181.975
181.994
182.002
182.041
182.057
182.112
182.14
182.205
182.248
182.325
182.379
182.471
182.532
182.64
182.713
182.83
182.92
183.034
183.163
183.245
183.441
183.467
183.752
182.26
182.264
182.283
182.291
182.329
182.345
182.398
182.426
182.49
182.532
182.608
182.66
182.751
182.81
182.916
182.987
183.102
183.189
183.303
183.427
183.511
183.699
183.726
184.004
182.573
182.577
182.596
182.603
182.641
182.656
182.709
182.735
182.799
182.839
182.913
182.964
183.053
183.111
183.215
183.284
183.397
183.481
183.594
183.713
183.796
183.98
184.006
184.278
182.91
182.914
182.932
182.939
182.977
182.991
183.043
183.068
183.13
183.17
183.242
183.292
183.379
183.435
183.537
183.603
183.714
183.796
183.907
184.021
184.106
184.282
184.309
184.574
183.271
183.274
183.293
183.299
183.336
183.349
183.4
183.425
183.485
183.523
183.595
183.642
183.728
183.782
183.882
183.946
184.055
184.133
184.243
184.352
184.435
184.606
184.633
184.892
183.655
183.659
183.677
183.683
183.719
183.731
183.781
183.804
183.864
183.901
183.97
184.016
184.099
184.151
184.249
184.311
184.417
184.492
184.6
184.704
184.789
184.952
184.98
185.231
184.063
184.066
184.084
184.09
184.125
184.137
184.186
184.208
184.266
184.301
184.369
184.413
184.494
184.544
184.639
184.698
184.802
184.874
184.98
185.079
185.163
185.32
185.348
185.591
184.495
184.498
184.515
184.521
184.555
184.566
184.614
184.635
184.691
184.725
184.79
184.833
184.912
184.959
185.052
185.109
185.21
185.279
185.382
185.477
185.559
185.71
185.738
185.974
184.95
184.953
184.97
184.975
185.009
185.019
185.065
185.085
185.14
185.172
185.235
185.276
185.352
185.398
185.488
185.541
185.64
185.706
185.806
185.896
185.978
186.122
186.15
186.378
185.429
185.432
185.449
185.453
185.486
185.495
185.54
185.558
185.612
185.642
185.704
185.742
185.816
185.859
185.946
185.997
186.092
186.155
186.252
186.338
186.418
186.555
186.583
186.803
185.932
185.935
185.951
185.955
185.987
185.995
186.039
186.055
186.107
186.135
186.195
186.231
186.303
186.343
186.427
186.475
186.567
186.626
186.721
186.802
186.88
187.011
187.038
187.251
186.458
186.461
186.477
186.48
186.511
186.518
186.56
186.576
186.626
186.652
186.709
186.743
186.812
186.85
186.931
186.976
187.065
187.12
187.212
187.288
187.365
187.488
187.515
187.719
187.008
187.011
187.026
187.028
187.058
187.064
187.105
187.119
187.167
187.192
187.247
187.278
187.344
187.379
187.458
187.499
187.585
187.637
187.725
187.796
187.871
187.988
188.014
188.209
187.581
187.583
187.598
187.6
187.629
187.634
187.674
187.686
187.732
187.754
187.807
187.836
187.899
187.932
188.007
188.045
188.128
188.176
188.26
188.327
188.399
188.509
188.534
188.721
188.177
188.179
188.194
188.194
188.223
188.227
188.265
188.275
188.32
188.34
188.39
188.416
188.477
188.507
188.579
188.614
188.693
188.737
188.818
188.88
188.949
189.053
189.077
189.255
188.796
188.798
188.812
188.812
188.84
188.842
188.879
188.888
188.93
188.948
188.996
189.02
189.078
189.104
189.173
189.205
189.28
189.32
189.398
189.455
189.522
189.618
189.641
189.811
189.438
189.44
189.453
189.453
189.479
189.481
189.516
189.523
189.564
189.579
189.625
189.646
189.701
189.724
189.79
189.818
189.89
189.926
190
190.053
190.116
190.205
190.225
190.39
190.102
190.104
190.117
190.116
190.142
190.142
190.176
190.181
190.22
190.233
190.276
190.295
190.347
190.367
190.429
190.454
190.522
190.554
190.624
190.672
190.733
190.814
190.832
190.99
190.789
190.791
190.803
190.802
190.826
190.825
190.858
190.861
190.898
190.909
190.95
190.966
191.015
191.032
191.091
191.112
191.177
191.204
191.271
191.314
191.371
191.446
191.465
191.609
191.498
191.5
191.512
191.509
191.533
191.531
191.562
191.564
191.599
191.608
191.646
191.659
191.706
191.72
191.775
191.792
191.854
191.877
191.94
191.978
192.031
192.099
192.116
192.252
192.229
192.231
192.243
192.239
192.262
192.259
192.289
192.289
192.321
192.329
192.365
192.375
192.419
192.429
192.482
192.495
192.553
192.572
192.631
192.664
192.713
192.776
192.79
192.917
192.983
192.984
192.995
192.991
193.013
193.009
193.037
193.036
193.066
193.071
193.105
193.113
193.154
193.161
193.21
193.22
193.274
193.289
193.344
193.372
193.417
193.473
193.486
193.604
193.758
193.759
193.77
193.765
193.786
193.78
193.807
193.804
193.833
193.836
193.867
193.872
193.91
193.915
193.961
193.967
194.017
194.028
194.08
194.102
194.143
194.194
194.204
194.313
194.554
194.555
194.565
194.56
194.58
194.573
194.599
194.594
194.621
194.622
194.651
194.653
194.689
194.69
194.733
194.736
194.783
194.789
194.837
194.855
194.892
194.936
194.944
195.043
195.371
195.372
195.382
195.376
195.396
195.388
195.412
195.406
195.431
195.429
195.456
195.456
195.489
195.487
195.527
195.526
195.569
195.571
195.616
195.629
195.662
195.7
195.705
195.795
196.21
196.211
196.22
196.214
196.232
196.223
196.246
196.238
196.262
196.258
196.283
196.28
196.31
196.305
196.342
196.337
196.378
196.376
196.416
196.425
196.454
196.486
196.489
196.569
197.069
197.07
197.079
197.072
197.09
197.079
197.101
197.092
197.113
197.108
197.13
197.125
197.153
197.145
197.179
197.17
197.207
197.201
197.238
197.242
197.267
197.294
197.293
197.365
197.949
197.95
197.959
197.951
197.968
197.956
197.977
197.966
197.986
197.979
197.999
197.992
198.016
198.006
198.037
198.024
198.058
198.048
198.081
198.079
198.102
198.122
198.119
198.182
198.85
198.85
198.859
198.85
198.866
198.854
198.873
198.861
198.879
198.87
198.888
198.878
198.901
198.887
198.915
198.899
198.93
198.915
198.945
198.938
198.958
198.972
198.966
199.021
199.77
199.771
199.779
199.77
199.785
199.772
199.79
199.776
199.793
199.782
199.798
199.786
199.806
199.789
199.815
199.795
199.823
199.803
199.831
199.818
199.835
199.842
199.833
199.882
200.711
200.711
200.719
200.71
200.724
200.71
200.727
200.712
200.727
200.714
200.728
200.713
200.731
200.711
200.734
200.711
200.736
200.712
200.737
200.719
200.733
200.734
200.722
200.762
201.672
201.672
201.679
201.669
201.683
201.668
201.683
201.667
201.68
201.666
201.678
201.661
201.676
201.654
201.674
201.647
201.67
201.641
201.663
201.64
201.652
201.646
201.632
201.663
202.652
202.652
202.659
202.648
202.662
202.645
202.66
202.642
202.654
202.637
202.647
202.628
202.641
202.616
202.633
202.603
202.623
202.59
202.61
202.581
202.591
202.578
202.563
202.585
203.652
203.652
203.658
203.647
203.659
203.642
203.655
203.636
203.646
203.628
203.636
203.615
203.625
203.597
203.612
203.579
203.596
203.559
203.576
203.542
203.55
203.53
203.514
203.528
204.67
204.67
204.676
204.665
204.676
204.658
204.67
204.649
204.658
204.638
204.644
204.621
204.629
204.598
204.611
204.574
204.588
204.547
204.562
204.522
204.528
204.502
204.485
204.49
205.707
205.707
205.713
205.701
205.712
205.692
205.703
205.681
205.688
205.667
205.671
205.645
205.651
205.617
205.628
205.588
205.6
205.554
205.567
205.521
205.527
205.494
205.474
205.471
206.763
206.762
206.768
206.755
206.765
206.745
206.755
206.732
206.737
206.714
206.716
206.688
206.692
206.655
206.663
206.62
206.63
206.579
206.591
206.539
206.543
206.503
206.485
206.472
207.836
207.836
207.841
207.827
207.837
207.816
207.824
207.8
207.804
207.779
207.779
207.749
207.751
207.712
207.717
207.671
207.678
207.623
207.633
207.576
207.579
207.529
207.514
207.491
208.926
208.926
208.931
208.917
208.926
208.903
208.911
208.885
208.888
208.861
208.86
208.828
208.827
208.785
208.789
208.739
208.744
208.685
208.694
208.632
208.632
208.577
208.56
208.53
210.033
210.033
210.038
210.023
210.031
210.008
210.015
209.988
209.989
209.961
209.957
209.923
209.921
209.876
209.879
209.825
209.829
209.765
209.772
209.703
209.706
209.641
209.625
209.586
211.157
211.156
211.16
211.145
211.153
211.129
211.135
211.107
211.107
211.077
211.072
211.035
211.032
210.984
210.985
210.927
210.93
210.863
210.867
210.791
210.796
210.724
210.707
210.661
212.295
212.294
212.299
212.283
212.29
212.266
212.271
212.241
212.24
212.208
212.202
212.164
212.159
212.108
212.108
212.045
212.049
211.973
211.982
211.899
211.902
211.824
211.807
211.753
213.449
213.448
213.452
213.436
213.442
213.417
213.421
213.391
213.388
213.355
213.348
213.307
213.301
213.247
213.248
213.178
213.185
213.102
213.112
213.023
213.025
212.942
212.923
212.863
214.616
214.615
214.619
214.603
214.609
214.583
214.586
214.554
214.551
214.517
214.509
214.465
214.46
214.402
214.402
214.328
214.335
214.249
214.254
214.164
214.163
214.076
214.056
213.989
215.797
215.796
215.8
215.783
215.788
215.762
215.765
215.732
215.728
215.692
215.684
215.637
215.633
215.57
215.572
215.494
215.498
215.409
215.415
215.32
215.318
215.226
215.205
215.132
216.99
216.989
216.993
216.976
216.981
216.954
216.956
216.923
216.919
216.88
216.873
216.822
216.818
216.753
216.754
216.673
216.677
216.586
216.588
216.491
216.487
216.391
216.37
216.29
218.195
218.195
218.197
218.181
218.185
218.159
218.159
218.125
218.121
218.081
218.073
218.022
218.016
217.95
217.948
217.868
217.869
217.775
217.777
217.677
217.671
217.571
217.549
217.464
219.412
219.411
219.414
219.397
219.401
219.374
219.374
219.34
219.335
219.294
219.286
219.233
219.227
219.159
219.156
219.075
219.074
218.979
218.978
218.876
218.869
218.766
218.743
218.653
220.639
220.638
220.641
220.624
220.628
220.601
220.6
220.567
220.559
220.519
220.509
220.457
220.449
220.381
220.375
220.294
220.291
220.195
220.193
220.088
220.08
219.974
219.95
219.855
221.875
221.875
221.878
221.861
221.864
221.837
221.836
221.803
221.794
221.755
221.742
221.691
221.681
221.613
221.606
221.525
221.521
221.423
221.42
221.312
221.304
221.194
221.171
221.07
223.122
223.121
223.124
223.107
223.111
223.083
223.082
223.049
223.038
223.001
222.986
222.936
222.923
222.857
222.848
222.766
222.76
222.662
222.658
222.548
222.539
222.427
222.403
222.298
224.377
224.376
224.379
224.362
224.366
224.338
224.337
224.304
224.293
224.256
224.239
224.19
224.176
224.109
224.099
224.018
224.01
223.911
223.906
223.795
223.784
223.67
223.646
223.537
225.641
225.64
225.643
225.626
225.63
225.602
225.6
225.568
225.556
225.52
225.501
225.453
225.438
225.371
225.36
225.278
225.269
225.17
225.163
225.051
225.04
224.924
224.899
224.787
226.913
226.913
226.916
226.898
226.902
226.874
226.872
226.839
226.827
226.792
226.772
226.725
226.707
226.642
226.629
226.546
226.537
226.437
226.429
226.317
226.304
226.186
226.162
226.047
228.193
228.193
228.196
228.179
228.182
228.154
228.152
228.119
228.106
228.071
228.05
228.004
227.985
227.919
227.906
227.822
227.812
227.712
227.703
227.59
227.577
227.457
227.433
227.315
229.481
229.481
229.484
229.467
229.47
229.442
229.44
229.407
229.393
229.358
229.336
229.29
229.269
229.204
229.19
229.104
229.094
228.994
228.983
228.871
228.856
228.735
228.711
228.591
230.777
230.777
230.78
230.762
230.765
230.737
230.734
230.7
230.686
230.651
230.627
230.582
230.56
230.494
230.481
230.392
230.383
230.281
230.27
230.157
230.142
230.02
229.996
229.874
232.079
232.079
232.082
232.064
232.067
232.038
232.034
232
231.985
231.95
231.924
231.88
231.855
231.791
231.775
231.686
231.677
231.575
231.562
231.45
231.433
231.311
231.286
231.163
233.387
233.387
233.389
233.371
233.373
233.344
233.34
233.305
233.289
233.253
233.226
233.182
233.155
233.092
233.072
232.987
232.975
232.871
232.859
232.747
232.73
232.607
232.582
232.458
234.697
234.697
234.699
234.681
234.683
234.653
234.648
234.613
234.596
234.559
234.531
234.488
234.458
234.397
234.374
234.291
234.279
234.172
234.16
234.048
234.031
233.908
233.884
233.758
236.008
236.008
236.011
235.992
235.994
235.963
235.958
235.923
235.905
235.868
235.839
235.796
235.764
235.705
235.679
235.599
235.581
235.48
235.466
235.353
235.337
235.214
235.19
235.064
237.317
237.317
237.319
237.3
237.303
237.272
237.268
237.232
237.215
237.178
237.149
237.106
237.073
237.016
236.987
236.91
236.888
236.791
236.777
236.662
236.646
236.525
236.501
236.376
238.619
238.619
238.622
238.604
238.607
238.577
238.573
238.539
238.522
238.487
238.458
238.417
238.384
238.328
238.298
238.224
238.201
238.105
238.093
237.975
237.962
237.841
237.818
237.693
239.914
239.914
239.918
239.9
239.905
239.876
239.874
239.841
239.826
239.793
239.766
239.727
239.695
239.643
239.612
239.542
239.516
239.426
239.408
239.298
239.282
239.162
239.141
239.016
241.2
241.201
241.206
241.189
241.195
241.168
241.169
241.138
241.126
241.096
241.072
241.036
241.006
240.957
240.929
240.862
240.837
240.749
240.732
240.625
240.609
240.489
240.469
240.344
242.481
242.482
242.488
242.473
242.48
242.456
242.459
242.431
242.422
242.395
242.374
242.342
242.316
242.271
242.246
242.184
242.161
242.079
242.062
241.957
241.942
241.823
241.804
241.679
243.763
243.764
243.77
243.757
243.765
243.743
243.748
243.723
243.716
243.693
243.675
243.647
243.625
243.584
243.563
243.505
243.487
243.407
243.395
243.294
243.284
243.165
243.147
243.022
245.053
245.056
245.061
245.049
245.058
245.038
245.042
245.02
245.015
244.994
244.978
244.954
244.933
244.897
244.881
244.823
244.815
244.734
244.732
244.63
244.627
244.512
244.498
244.375
246.365
246.367
246.373
246.361
246.369
246.349
246.353
246.331
246.325
246.306
246.29
246.267
246.247
246.214
246.199
246.142
246.141
246.059
246.065
245.964
245.969
245.856
245.849
245.735
247.708
247.71
247.716
247.702
247.711
247.688
247.692
247.667
247.66
247.637
247.62
247.595
247.574
247.541
247.522
247.47
247.465
247.388
247.391
247.294
247.304
247.192
247.191
247.083
249.094
249.096
249.101
249.085
249.092
249.066
249.067
249.038
249.028
249.001
248.979
248.95
248.923
248.887
248.861
248.81
248.796
248.721
248.722
248.622
248.635
248.519
248.523
248.414
250.529
250.53
250.534
250.517
250.52
250.491
250.488
250.455
250.438
250.406
250.377
250.341
250.307
250.264
250.229
250.172
250.148
250.069
250.064
249.956
249.967
249.844
249.852
249.734
252.014
252.015
252.018
251.999
251.999
251.967
251.96
251.922
251.899
251.861
251.823
251.781
251.736
251.684
251.637
251.571
251.536
251.444
251.429
251.308
251.315
251.177
251.184
251.053
253.546
253.548
253.549
253.529
253.527
253.492
253.481
253.439
253.411
253.367
253.322
253.272
253.218
253.157
253.098
253.022
252.97
252.865
252.836
252.697
252.69
252.533
252.535
252.381
255.119
255.12
255.121
255.099
255.097
255.059
255.047
255
254.97
254.921
254.872
254.815
254.755
254.685
254.616
254.533
254.461
254.353
254.294
254.149
254.117
253.937
253.924
253.735
256.721
256.722
256.724
256.701
256.698
256.659
256.646
256.598
256.566
256.514
256.463
256.403
256.339
256.265
256.19
256.1
256.017
255.907
255.823
255.68
255.612
255.421
255.384
255.148
258.342
258.343
258.344
258.321
258.319
258.28
258.267
258.219
258.187
258.135
258.084
258.023
257.958
257.883
257.806
257.715
257.628
257.516
257.422
257.284
257.191
257.004
256.94
256.669
259.968
259.969
259.972
259.949
259.947
259.909
259.897
259.85
259.819
259.769
259.718
259.659
259.595
259.523
259.447
259.359
259.273
259.165
259.071
258.936
258.843
258.662
258.595
258.326
261.589
261.591
261.594
261.572
261.571
261.534
261.523
261.478
261.449
261.402
261.354
261.298
261.237
261.168
261.095
261.013
260.93
260.828
260.74
260.611
260.528
260.352
260.296
260.051
263.196
263.197
263.201
263.18
263.181
263.146
263.136
263.094
263.067
263.022
262.977
262.926
262.868
262.805
262.736
262.659
262.582
262.488
262.405
262.285
262.21
262.046
261.995
261.77
264.779
264.781
264.785
264.765
264.767
264.734
264.727
264.687
264.662
264.622
264.58
264.533
264.479
264.421
264.357
264.287
264.214
264.129
264.052
263.941
263.874
263.723
263.675
263.47
266.333
266.335
266.34
266.321
266.324
266.293
266.287
266.251
266.228
266.192
266.152
266.111
266.06
266.01
265.948
265.887
265.819
265.742
265.673
265.568
265.508
265.372
265.327
265.14
267.851
267.854
267.859
267.842
267.846
267.817
267.812
267.78
267.758
267.728
267.689
267.655
267.605
267.563
267.504
267.452
267.387
267.32
267.254
267.163
267.106
266.984
266.942
266.774
269.331
269.334
269.339
269.323
269.328
269.301
269.299
269.269
269.25
269.223
269.188
269.158
269.112
269.077
269.021
268.977
268.915
268.857
268.796
268.716
268.663
268.554
268.515
268.365
270.768
270.772
270.778
270.762
270.769
270.743
270.744
270.714
270.7
270.674
270.644
270.617
270.577
270.544
270.495
270.456
270.4
270.35
270.293
270.225
270.172
270.079
270.042
269.91
272.161
272.165
272.171
272.156
272.165
272.14
272.143
272.115
272.105
272.081
272.055
272.031
271.995
271.967
271.923
271.888
271.839
271.795
271.742
271.686
271.637
271.554
271.52
271.405
273.509
273.511
273.519
273.504
273.515
273.49
273.496
273.47
273.462
273.441
273.419
273.397
273.366
273.341
273.303
273.273
273.229
273.192
273.142
273.095
273.05
272.98
272.947
272.848
274.808
274.811
274.819
274.805
274.817
274.794
274.801
274.777
274.772
274.753
274.734
274.715
274.689
274.667
274.633
274.608
274.568
274.538
274.494
274.456
274.41
274.356
274.321
274.239
276.06
276.063
276.072
276.058
276.072
276.048
276.059
276.035
276.033
276.016
276
275.984
275.961
275.943
275.914
275.893
275.858
275.833
275.793
275.763
275.721
275.677
275.645
275.576
277.264
277.267
277.276
277.263
277.276
277.256
277.266
277.246
277.244
277.231
277.217
277.205
277.185
277.17
277.144
277.128
277.097
277.077
277.042
277.018
276.98
276.945
276.916
276.86
278.42
278.423
278.433
278.418
278.437
278.412
278.429
278.406
278.409
278.396
278.386
278.375
278.358
278.347
278.325
278.312
278.286
278.271
278.239
278.221
278.186
278.163
278.133
278.089
279.529
279.532
279.541
279.53
279.543
279.528
279.537
279.522
279.523
279.514
279.505
279.498
279.483
279.475
279.456
279.447
279.424
279.413
279.386
279.374
279.343
279.326
279.298
279.265
280.591
280.593
280.604
280.591
280.608
280.589
280.605
280.586
280.593
280.583
280.577
280.571
280.56
280.555
280.538
280.533
280.513
280.507
280.482
280.475
280.448
280.438
280.411
280.389
281.607
281.609
281.619
281.609
281.623
281.609
281.621
281.609
281.612
281.607
281.602
281.599
281.589
281.586
281.573
281.57
281.554
281.55
281.53
281.528
281.504
281.499
281.474
281.461
282.577
282.58
282.59
282.58
282.595
282.581
282.595
282.582
282.589
282.583
282.581
282.579
282.572
282.572
282.56
282.561
282.547
282.548
282.529
282.531
282.51
282.511
282.488
282.484
283.504
283.507
283.514
283.51
283.519
283.513
283.52
283.515
283.518
283.517
283.514
283.515
283.51
283.511
283.502
283.505
283.494
283.497
283.483
283.489
283.47
283.475
283.455
283.457
284.388
284.39
284.4
284.389
284.409
284.392
284.411
284.397
284.409
284.404
284.406
284.407
284.403
284.407
284.4
284.405
284.396
284.404
284.39
284.399
284.383
284.393
284.375
284.384
285.23
285.234
285.237
285.241
285.24
285.247
285.244
285.251
285.248
285.254
285.252
285.257
285.254
285.259
285.254
285.262
285.255
285.264
285.253
285.267
285.253
285.266
285.249
285.264
286.032
286.033
286.045
286.032
286.056
286.036
286.061
286.044
286.061
286.056
286.061
286.064
286.064
286.071
286.068
286.077
286.071
286.083
286.075
286.089
286.078
286.095
286.08
286.1
286.795
286.8
286.8
286.809
286.802
286.818
286.808
286.824
286.816
286.829
286.825
286.834
286.834
286.842
286.84
286.851
286.848
286.861
286.854
286.872
286.862
286.882
286.868
286.893
287.521
287.522
287.533
287.523
287.543
287.528
287.551
287.537
287.555
287.55
287.559
287.563
287.566
287.574
287.574
287.587
287.584
287.6
287.595
287.614
287.606
287.629
287.616
287.644
288.211
288.215
288.215
288.223
288.22
288.233
288.226
288.242
288.235
288.25
288.248
288.259
288.26
288.27
288.271
288.285
288.284
288.301
288.296
288.319
288.311
288.337
288.325
288.356
288.867
288.868
288.875
288.872
288.883
288.879
288.892
288.888
288.9
288.901
288.909
288.915
288.92
288.93
288.933
288.947
288.947
288.965
288.964
288.986
288.98
289.008
288.997
289.03
289.488
289.492
289.493
289.499
289.5
289.507
289.509
289.517
289.519
289.529
289.531
289.542
289.545
289.557
289.561
289.576
289.577
289.596
289.594
289.62
289.614
289.644
289.632
289.671
290.079
290.081
290.085
290.087
290.093
290.096
290.101
290.106
290.112
290.119
290.124
290.134
290.139
290.151
290.156
290.172
290.173
290.193
290.194
290.218
290.215
290.246
290.234
290.276
290.639
290.643
290.644
290.649
290.651
290.657
290.661
290.667
290.673
290.68
290.687
290.696
290.702
290.714
290.72
290.736
290.739
290.76
290.76
290.787
290.783
290.816
290.808
290.846
291.171
291.173
291.177
291.177
291.185
291.186
291.194
291.199
291.204
291.214
291.218
291.23
291.235
291.248
291.254
291.271
291.274
291.296
291.298
291.324
291.322
291.356
291.347
291.389
291.675
291.678
291.678
291.685
291.684
291.694
291.695
291.704
291.709
291.717
291.724
291.734
291.741
291.754
291.761
291.778
291.782
291.805
291.806
291.834
291.832
291.866
291.859
291.9
292.152
292.154
292.158
292.159
292.166
292.167
292.176
292.18
292.188
292.195
292.202
292.213
292.22
292.234
292.24
292.258
292.262
292.285
292.288
292.316
292.314
292.35
292.342
292.386
292.605
292.607
292.609
292.613
292.616
292.622
292.626
292.635
292.639
292.65
292.654
292.667
292.673
292.687
292.695
292.713
292.717
292.741
292.743
292.772
292.771
292.807
292.801
292.844
293.034
293.036
293.037
293.043
293.043
293.052
293.054
293.063
293.069
293.077
293.085
293.096
293.103
293.117
293.125
293.143
293.148
293.171
293.175
293.204
293.203
293.24
293.233
293.278
293.44
293.441
293.446
293.445
293.455
293.453
293.465
293.466
293.476
293.483
293.491
293.503
293.509
293.524
293.532
293.55
293.555
293.58
293.582
293.611
293.611
293.649
293.643
293.687
293.825
293.828
293.827
293.836
293.831
293.847
293.841
293.858
293.856
293.871
293.874
293.888
293.894
293.909
293.917
293.935
293.941
293.965
293.968
293.998
293.997
294.036
294.029
294.074
294.19
294.191
294.196
294.193
294.205
294.2
294.216
294.212
294.228
294.23
294.241
294.251
294.259
294.274
294.282
294.3
294.306
294.33
294.333
294.362
294.363
294.401
294.395
294.439
294.535
294.538
294.536
294.545
294.541
294.556
294.55
294.568
294.564
294.581
294.583
294.598
294.604
294.619
294.627
294.645
294.651
294.675
294.678
294.708
294.708
294.746
294.74
294.785
294.863
294.863
294.867
294.866
294.876
294.873
294.886
294.885
294.899
294.902
294.913
294.923
294.931
294.945
294.953
294.971
294.978
295.002
295.005
295.034
295.035
295.072
295.068
295.11
295.171
295.175
295.172
295.182
295.177
295.191
295.187
295.202
295.202
295.215
295.219
295.233
295.239
295.254
295.262
295.281
295.286
295.31
295.314
295.343
295.344
295.38
295.376
295.419
295.465
295.465
295.47
295.467
295.479
295.475
295.488
295.488
295.499
295.505
295.513
295.525
295.532
295.547
295.555
295.573
295.579
295.603
295.607
295.635
295.636
295.672
295.669
295.71
295.742
295.745
295.742
295.752
295.747
295.761
295.757
295.771
295.772
295.784
295.789
295.802
295.809
295.823
295.831
295.849
295.856
295.879
295.883
295.911
295.913
295.948
295.945
295.986
296.005
296.005
296.009
296.008
296.017
296.016
296.026
296.028
296.038
296.044
296.052
296.064
296.071
296.085
296.093
296.111
296.118
296.14
296.145
296.173
296.174
296.209
296.206
296.247
296.254
296.256
296.255
296.261
296.261
296.269
296.27
296.28
296.283
296.295
296.299
296.312
296.319
296.333
296.341
296.359
296.365
296.387
296.392
296.42
296.421
296.456
296.454
296.493
296.489
296.49
296.491
296.496
296.497
296.504
296.506
296.514
296.519
296.528
296.535
296.546
296.553
296.567
296.575
296.593
296.599
296.622
296.626
296.653
296.653
296.69
296.687
296.727
296.712
296.713
296.715
296.716
296.722
296.723
296.732
296.734
296.743
296.75
296.758
296.768
296.776
296.789
296.797
296.815
296.821
296.843
296.847
296.874
296.877
296.908
296.908
296.946
296.923
296.925
296.924
296.931
296.928
296.94
296.936
296.95
296.949
296.963
296.966
296.979
296.985
296.999
297.006
297.024
297.03
297.052
297.056
297.083
297.084
297.118
297.116
297.155
297.123
297.123
297.127
297.125
297.134
297.131
297.144
297.142
297.154
297.158
297.168
297.177
297.185
297.198
297.205
297.223
297.228
297.25
297.254
297.28
297.284
297.314
297.314
297.35
297.311
297.314
297.311
297.321
297.314
297.329
297.323
297.339
297.336
297.351
297.353
297.366
297.372
297.386
297.392
297.41
297.416
297.437
297.442
297.467
297.468
297.501
297.498
297.537
297.491
297.49
297.495
297.491
297.503
297.497
297.511
297.509
297.521
297.525
297.534
297.543
297.55
297.564
297.57
297.587
297.593
297.614
297.618
297.644
297.646
297.676
297.676
297.71
297.659
297.661
297.659
297.668
297.662
297.676
297.671
297.686
297.683
297.697
297.7
297.712
297.718
297.732
297.737
297.755
297.76
297.781
297.784
297.812
297.811
297.843
297.841
297.877
297.82
297.819
297.823
297.821
297.83
297.828
297.838
297.839
297.848
297.853
297.861
297.871
297.877
297.891
297.896
297.913
297.919
297.94
297.943
297.968
297.971
297.999
297.999
298.033
297.97
297.972
297.972
297.977
297.976
297.984
297.984
297.994
297.996
298.006
298.01
298.022
298.027
298.041
298.046
298.064
298.069
298.089
298.092
298.119
298.117
298.149
298.147
298.181
298.114
298.114
298.117
298.116
298.123
298.123
298.13
298.134
298.14
298.147
298.153
298.164
298.169
298.183
298.187
298.205
298.209
298.232
298.234
298.258
298.26
298.288
298.287
298.321
298.249
298.25
298.25
298.254
298.255
298.261
298.263
298.27
298.274
298.283
298.287
298.298
298.304
298.317
298.321
298.339
298.345
298.363
298.366
298.392
298.392
298.421
298.42
298.452
298.377
298.377
298.379
298.38
298.385
298.387
298.392
298.396
298.402
298.41
298.415
298.425
298.43
298.444
298.449
298.465
298.469
298.491
298.493
298.516
298.518
298.546
298.544
298.577
298.497
298.498
298.499
298.502
298.504
298.509
298.511
298.518
298.521
298.531
298.534
298.546
298.549
298.564
298.568
298.585
298.589
298.608
298.61
298.637
298.636
298.664
298.664
298.694
298.611
298.612
298.613
298.615
298.618
298.622
298.625
298.631
298.635
298.644
298.647
298.659
298.663
298.677
298.681
298.698
298.7
298.722
298.725
298.746
298.747
298.777
298.773
298.805
298.719
298.719
298.721
298.723
298.726
298.729
298.733
298.738
298.743
298.751
298.755
298.766
298.769
298.784
298.787
298.805
298.808
298.826
298.828
298.854
298.854
298.88
298.879
298.909
298.82
298.821
298.821
298.825
298.826
298.832
298.833
298.841
298.842
298.853
298.855
298.867
298.87
298.884
298.888
298.904
298.906
298.928
298.93
298.952
298.951
298.982
298.977
299.008
298.916
298.916
298.917
298.92
298.922
298.926
298.929
298.935
298.938
298.947
298.95
298.962
298.964
298.979
298.982
298.999
299.002
299.02
299.022
299.046
299.047
299.072
299.071
299.1
299.005
299.006
299.007
299.01
299.012
299.015
299.019
299.025
299.028
299.037
299.039
299.051
299.054
299.067
299.071
299.088
299.089
299.11
299.111
299.134
299.133
299.163
299.158
299.188
299.09
299.091
299.091
299.096
299.094
299.103
299.1
299.111
299.111
299.122
299.123
299.135
299.137
299.152
299.155
299.172
299.173
299.193
299.194
299.216
299.218
299.243
299.241
299.269
299.17
299.17
299.173
299.172
299.178
299.177
299.185
299.186
299.193
299.199
299.203
299.214
299.217
299.23
299.233
299.25
299.251
299.271
299.272
299.295
299.294
299.321
299.318
299.347
299.244
299.246
299.244
299.251
299.246
299.259
299.252
299.266
299.263
299.276
299.276
299.288
299.29
299.304
299.307
299.323
299.325
299.345
299.346
299.366
299.368
299.393
299.391
299.418
299.315
299.314
299.318
299.315
299.324
299.319
299.331
299.329
299.338
299.342
299.347
299.357
299.36
299.373
299.376
299.392
299.394
299.412
299.413
299.436
299.436
299.46