/*--------------------------------*- C++ -*----------------------------------*\
  =========                 |
  \\      /  F ield         | OpenFOAM: The Open Source CFD Toolbox
   \\    /   O peration     | Website:  https://openfoam.org
    \\  /    A nd           | Version:  10
     \\/     M anipulation  |
\*---------------------------------------------------------------------------*/
FoamFile
{
    format      ascii;
    class       volVectorField;
    location    "0.35";
    object      U;
}
// * * * * * * * * * * * * * * * * * * * * * * * * * * * * * * * * * * * * * //

dimensions      [0 1 -1 0 0 0 0];

internalField   nonuniform List<vector> 
4176
(
(497.488 -0.0141291 -5.72792e-09)
(497.474 0.0637683 1.74833e-09)
(497.449 0.00144067 -5.4909e-10)
(497.4 0.0904987 4.84538e-11)
(497.346 0.0509887 -6.51822e-11)
(497.271 0.089667 -5.71734e-10)
(497.181 0.125744 -4.73509e-10)
(497.088 0.0606124 1.45987e-10)
(496.954 0.22507 5.48853e-10)
(496.849 0.00498322 6.0382e-10)
(496.672 0.344202 4.51248e-10)
(496.549 -0.0688718 4.07648e-10)
(496.338 0.469635 1.91767e-10)
(496.191 -0.139257 -2.02925e-10)
(495.957 0.567587 -3.90795e-10)
(495.773 -0.135312 -2.82211e-10)
(495.536 0.528331 -2.30958e-10)
(495.286 0.0239053 -2.498e-11)
(495.073 0.334616 3.1094e-10)
(494.73 0.323175 1.83635e-10)
(494.576 -0.0172543 -1.35786e-10)
(494.097 0.772121 -1.7265e-10)
(494.067 -0.516331 9.23025e-11)
(493.444 1.44231 2.097e-10)
(497.47 0.00494129 -5.72644e-09)
(497.455 0.114589 1.74862e-09)
(497.43 0.0764862 -5.49298e-10)
(497.379 0.203407 4.77582e-11)
(497.325 0.18624 -6.51365e-11)
(497.247 0.264386 -5.7156e-10)
(497.156 0.321648 -4.74237e-10)
(497.059 0.295702 1.46093e-10)
(496.924 0.482025 5.49441e-10)
(496.814 0.298114 6.04049e-10)
(496.636 0.662716 4.50831e-10)
(496.508 0.278957 4.07546e-10)
(496.293 0.850216 1.90162e-10)
(496.142 0.258623 -2.02824e-10)
(495.901 1.01227 -3.90612e-10)
(495.713 0.30236 -2.81704e-10)
(495.47 1.04207 -2.3212e-10)
(495.215 0.510945 -2.50914e-11)
(494.996 0.914155 3.09913e-10)
(494.646 0.85538 1.83227e-10)
(494.492 0.628304 -1.35758e-10)
(493.992 1.33112 -1.74987e-10)
(493.956 0.125118 9.30704e-11)
(493.27 1.99262 2.09304e-10)
(497.413 0.023288 -5.72871e-09)
(497.399 0.161241 1.74788e-09)
(497.375 0.147657 -5.51332e-10)
(497.324 0.307742 4.88069e-11)
(497.273 0.313836 -6.54796e-11)
(497.195 0.42657 -5.7243e-10)
(497.108 0.505764 -4.71631e-10)
(497.011 0.514931 1.47927e-10)
(496.882 0.722743 5.51467e-10)
(496.772 0.572777 6.04377e-10)
(496.599 0.960494 4.49877e-10)
(496.473 0.606365 4.06709e-10)
(496.263 1.20601 1.91751e-10)
(496.116 0.634211 -2.02744e-10)
(495.878 1.42848 -3.90864e-10)
(495.697 0.714114 -2.80482e-10)
(495.454 1.52257 -2.3484e-10)
(495.209 0.966195 -2.66872e-11)
(494.994 1.45696 3.10564e-10)
(494.653 1.34405 1.82776e-10)
(494.506 1.24755 -1.36741e-10)
(494.016 1.88228 -1.72335e-10)
(493.981 0.838729 9.33832e-11)
(493.271 2.60877 2.10271e-10)
(497.309 0.0420186 -5.72751e-09)
(497.294 0.208741 1.75164e-09)
(497.271 0.220144 -5.52376e-10)
(497.22 0.414052 5.1888e-11)
(497.169 0.443797 -6.63078e-11)
(497.091 0.591921 -5.76915e-10)
(497.004 0.693318 -4.71645e-10)
(496.907 0.738561 1.45438e-10)
(496.777 0.967954 5.44801e-10)
(496.668 0.853089 6.07927e-10)
(496.494 1.26383 4.50847e-10)
(496.37 0.940727 4.05001e-10)
(496.158 1.56869 1.93252e-10)
(496.013 1.01842 -2.04314e-10)
(495.771 1.85336 -3.98018e-10)
(495.593 1.1356 -2.8172e-10)
(495.346 2.01701 -2.3242e-10)
(495.097 1.42673 -2.70371e-11)
(494.891 2.0091 3.12836e-10)
(494.54 1.84089 1.82139e-10)
(494.399 1.85817 -1.39582e-10)
(493.915 2.42017 -1.73153e-10)
(493.885 1.52572 9.16339e-11)
(493.206 3.20551 2.00793e-10)
(497.157 0.0603455 -5.72906e-09)
(497.143 0.255257 1.75816e-09)
(497.12 0.291052 -5.48636e-10)
(497.069 0.518227 5.18571e-11)
(497.019 0.570922 -6.31087e-11)
(496.941 0.754083 -5.71661e-10)
(496.856 0.876785 -4.73563e-10)
(496.76 0.958107 1.47606e-10)
(496.632 1.20783 5.50405e-10)
(496.524 1.12857 6.05982e-10)
(496.351 1.56062 4.51092e-10)
(496.229 1.26953 4.07904e-10)
(496.018 1.92395 1.89801e-10)
(495.876 1.39618 -2.05344e-10)
(495.634 2.27109 -3.96124e-10)
(495.461 1.5503 -2.84246e-10)
(495.21 2.51235 -2.33524e-10)
(494.966 1.86991 -2.62441e-11)
(494.764 2.55414 3.07364e-10)
(494.41 2.33878 1.87897e-10)
(494.271 2.45266 -1.31891e-10)
(493.793 2.94599 -1.70234e-10)
(493.763 2.16832 9.52409e-11)
(493.103 3.76338 2.11613e-10)
(496.957 0.0786642 -5.74145e-09)
(496.942 0.301476 1.75624e-09)
(496.919 0.361806 -5.47175e-10)
(496.869 0.621814 4.71067e-11)
(496.819 0.697742 -7.43692e-11)
(496.742 0.915389 -5.76826e-10)
(496.658 1.05982 -4.71199e-10)
(496.561 1.17661 1.4377e-10)
(496.435 1.44712 5.51152e-10)
(496.327 1.40297 6.11579e-10)
(496.157 1.85652 4.51446e-10)
(496.035 1.59749 4.02179e-10)
(495.825 2.2776 1.87009e-10)
(495.684 1.77383 -2.03015e-10)
(495.443 2.68551 -3.99211e-10)
(495.274 1.96926 -2.81688e-10)
(495.018 3.003 -2.23013e-10)
(494.787 2.31282 -2.33615e-11)
(494.571 3.10366 3.17186e-10)
(494.229 2.83557 1.90019e-10)
(494.085 3.0489 -1.36173e-10)
(493.611 3.474 -1.80974e-10)
(493.575 2.81519 9.20135e-11)
(492.914 4.32029 2.11895e-10)
(496.708 0.0968054 -5.7416e-09)
(496.694 0.347031 1.75381e-09)
(496.671 0.431768 -5.63233e-10)
(496.621 0.723962 4.7096e-11)
(496.572 0.823105 -5.97845e-11)
(496.495 1.07448 -5.7617e-10)
(496.412 1.24075 -4.82673e-10)
(496.316 1.39217 1.48467e-10)
(496.192 1.68367 5.57937e-10)
(496.084 1.67388 6.07045e-10)
(495.916 2.14898 4.48752e-10)
(495.795 1.92167 4.13177e-10)
(495.587 2.62686 2.02714e-10)
(495.448 2.14783 -2.01241e-10)
(495.208 3.09384 -3.94861e-10)
(495.043 2.38656 -2.78422e-10)
(494.785 3.48264 -2.32497e-10)
(494.565 2.75751 -2.89716e-11)
(494.338 3.65109 3.11683e-10)
(494.009 3.32045 1.87531e-10)
(493.86 3.64404 -1.37653e-10)
(493.392 4.00156 -1.81092e-10)
(493.352 3.47176 9.43755e-11)
(492.693 4.88254 2.16995e-10)
(496.41 0.11481 -5.75805e-09)
(496.396 0.392119 1.76437e-09)
(496.374 0.501108 -5.43026e-10)
(496.324 0.82509 5.06994e-11)
(496.276 0.947298 -7.27409e-11)
(496.199 1.23197 -5.73495e-10)
(496.117 1.41994 -4.66248e-10)
(496.022 1.60558 1.4742e-10)
(495.899 1.91789 5.40049e-10)
(495.793 1.94217 6.04845e-10)
(495.626 2.43851 4.59781e-10)
(495.506 2.24295 4.07535e-10)
(495.301 2.97251 1.77045e-10)
(495.163 2.51887 -2.10051e-10)
(494.924 3.49766 -3.87908e-10)
(494.763 2.80135 -2.86539e-10)
(494.504 3.95487 -2.28896e-10)
(494.292 3.1998 -1.23685e-11)
(494.059 4.19388 3.15542e-10)
(493.742 3.80086 1.72769e-10)
(493.586 4.23736 -1.37921e-10)
(493.126 4.52433 -1.65005e-10)
(493.083 4.123 9.18945e-11)
(492.431 5.43757 1.93823e-10)
(496.065 0.132633 -5.76932e-09)
(496.051 0.436654 1.75112e-09)
(496.029 0.569666 -5.65204e-10)
(495.979 0.924992 3.84865e-11)
(495.931 1.07003 -7.29629e-11)
(495.855 1.38752 -5.821e-10)
(495.775 1.59694 -4.8166e-10)
(495.681 1.81634 1.4452e-10)
(495.559 2.14919 5.47012e-10)
(495.454 2.20717 6.02063e-10)
(495.289 2.72436 4.48104e-10)
(495.171 2.56046 4.06061e-10)
(494.967 3.31369 1.85274e-10)
(494.832 2.8859 -2.08968e-10)
(494.594 3.89605 -3.94723e-10)
(494.436 3.21231 -2.83508e-10)
(494.177 4.41861 -2.33216e-10)
(493.973 3.63911 -2.33746e-11)
(493.735 4.72985 3.12117e-10)
(493.43 4.27453 1.79592e-10)
(493.268 4.82823 -1.39983e-10)
(492.817 5.04247 -1.76114e-10)
(492.77 4.76979 9.36954e-11)
(492.127 5.98598 2.10251e-10)
(495.671 0.150273 -5.75377e-09)
(495.657 0.480644 1.78044e-09)
(495.635 0.637439 -5.46715e-10)
(495.586 1.02369 6.16316e-11)
(495.539 1.19131 -5.45146e-11)
(495.463 1.54117 -5.65364e-10)
(495.384 1.77177 -4.648e-10)
(495.29 2.02447 1.6219e-10)
(495.17 2.37753 5.65789e-10)
(495.066 2.46885 6.19111e-10)
(494.903 3.00644 4.66567e-10)
(494.787 2.87407 4.2188e-10)
(494.585 3.65028 2.03668e-10)
(494.452 3.24869 -1.96526e-10)
(494.216 4.28891 -3.81256e-10)
(494.062 3.61913 -2.72859e-10)
(493.803 4.87422 -2.19415e-10)
(493.607 4.07466 -1.23661e-11)
(493.364 5.25827 3.26028e-10)
(493.071 4.74191 1.91114e-10)
(492.903 5.41452 -1.27956e-10)
(492.464 5.55404 -1.63989e-10)
(492.412 5.41031 1.03202e-10)
(491.779 6.52603 2.19493e-10)
(495.228 0.167704 -5.77522e-09)
(495.214 0.524036 1.7698e-09)
(495.193 0.70433 -5.56758e-10)
(495.144 1.12107 5.41427e-11)
(495.098 1.31098 -6.16182e-11)
(495.023 1.69276 -5.73724e-10)
(494.944 1.94421 -4.69989e-10)
(494.852 2.22978 1.60698e-10)
(494.734 2.60265 5.64557e-10)
(494.631 2.72692 6.17791e-10)
(494.47 3.28441 4.67053e-10)
(494.355 3.18336 4.24393e-10)
(494.155 3.98182 2.06131e-10)
(494.025 3.60666 -1.95069e-10)
(493.791 4.67574 -3.76781e-10)
(493.641 4.0211 -2.66907e-10)
(493.382 5.32158 -2.11869e-10)
(493.194 4.50595 -6.08365e-12)
(492.947 5.7784 3.36517e-10)
(492.666 5.20381 2.01799e-10)
(492.492 5.99319 -1.39755e-10)
(492.065 6.0566 -1.97925e-10)
(492.009 6.04532 7.40689e-11)
(491.387 7.05732 1.88463e-10)
(494.737 0.184903 -5.78441e-09)
(494.723 0.566784 1.77337e-09)
(494.702 0.770263 -5.60492e-10)
(494.653 1.21703 4.8699e-11)
(494.608 1.42891 -6.69453e-11)
(494.534 1.84217 -5.80114e-10)
(494.457 2.11414 -4.78184e-10)
(494.365 2.43211 1.51177e-10)
(494.249 2.82441 5.55257e-10)
(494.147 2.9812 6.08776e-10)
(493.988 3.55807 4.56756e-10)
(493.875 3.48807 4.15175e-10)
(493.678 4.30803 1.94965e-10)
(493.551 3.9594 -2.05085e-10)
(493.318 5.05617 -3.91605e-10)
(493.173 4.41761 -2.80664e-10)
(492.914 5.76075 -2.28944e-10)
(492.733 4.93257 -1.93606e-11)
(492.484 6.28949 3.18108e-10)
(492.214 5.65805 1.83262e-10)
(492.035 6.56458 -1.34945e-10)
(491.62 6.55072 -1.68616e-10)
(491.561 6.67229 1.00137e-10)
(490.95 7.57916 2.15078e-10)
(494.197 0.201841 -5.79442e-09)
(494.183 0.608832 1.77389e-09)
(494.162 0.835137 -5.67262e-10)
(494.114 1.31146 4.27474e-11)
(494.07 1.54495 -7.55246e-11)
(493.997 1.98921 -5.92922e-10)
(493.921 2.28133 -4.92813e-10)
(493.83 2.63127 1.35061e-10)
(493.715 3.04256 5.39097e-10)
(493.616 3.23147 5.9056e-10)
(493.458 3.82715 4.30763e-10)
(493.348 3.78791 3.8908e-10)
(493.152 4.62857 1.61852e-10)
(493.028 4.30648 -2.10942e-10)
(492.798 5.42975 -3.67978e-10)
(492.657 4.80797 -2.63376e-10)
(492.4 6.19156 -2.10816e-10)
(492.225 5.35415 -6.87365e-12)
(491.973 6.79095 3.30719e-10)
(491.715 6.10467 1.93509e-10)
(491.532 7.1271 -1.26926e-10)
(491.13 7.03476 -1.63455e-10)
(491.067 7.29071 1.05629e-10)
(490.468 8.09114 2.18348e-10)
(493.608 0.218495 -5.79662e-09)
(493.594 0.650125 1.79926e-09)
(493.574 0.89886 -5.68725e-10)
(493.526 1.40422 2.34055e-11)
(493.483 1.65893 -7.88153e-11)
(493.411 2.1337 -5.84619e-10)
(493.336 2.44557 -4.71925e-10)
(493.247 2.82701 1.72923e-10)
(493.134 3.25685 5.59333e-10)
(493.036 3.47747 5.91674e-10)
(492.881 4.09141 4.44118e-10)
(492.772 4.08261 4.12568e-10)
(492.579 4.94318 2.03885e-10)
(492.458 4.64755 -1.92123e-10)
(492.23 5.79612 -4.01421e-10)
(492.093 5.19168 -3.04363e-10)
(491.838 6.61363 -2.47151e-10)
(491.67 5.7701 -2.53807e-11)
(491.417 7.28231 3.25066e-10)
(491.17 6.54302 1.99118e-10)
(490.983 7.68023 -1.39437e-10)
(490.594 7.50788 -1.9231e-10)
(490.528 7.89905 8.89546e-11)
(489.942 8.59268 2.15763e-10)
(492.97 0.234841 -5.82203e-09)
(492.956 0.690613 1.76176e-09)
(492.937 0.961342 -5.60797e-10)
(492.89 1.4952 8.00473e-11)
(492.847 1.77069 -5.34631e-11)
(492.776 2.27544 -5.82465e-10)
(492.702 2.60661 -4.92215e-10)
(492.615 3.01906 1.27698e-10)
(492.504 3.46699 5.57556e-10)
(492.407 3.71888 6.34465e-10)
(492.255 4.35053 4.65291e-10)
(492.149 4.37183 4.06857e-10)
(491.958 5.25155 1.69219e-10)
(491.841 4.98226 -2.14062e-10)
(491.615 6.15496 -3.77694e-10)
(491.483 5.56825 -2.75304e-10)
(491.229 7.0265 -2.36863e-10)
(491.068 6.17969 -3.66077e-11)
(490.814 7.76295 2.84514e-10)
(490.578 6.97282 1.69922e-10)
(490.387 8.2236 -1.26641e-10)
(490.011 7.96924 -1.68066e-10)
(489.944 8.49608 8.93034e-11)
(489.37 9.08325 1.90613e-10)
(492.283 0.250857 -5.8181e-09)
(492.269 0.730251 1.81409e-09)
(492.25 1.0225 -5.68783e-10)
(492.203 1.58428 2.03319e-11)
(492.162 1.88006 -8.12344e-11)
(492.092 2.41422 -5.83798e-10)
(492.02 2.7642 -4.64526e-10)
(491.934 3.20713 1.81787e-10)
(491.825 3.67264 5.62759e-10)
(491.731 3.95535 5.94484e-10)
(491.58 4.60414 4.51486e-10)
(491.477 4.65521 4.20799e-10)
(491.289 5.55333 2.13382e-10)
(491.175 5.31025 -2.18058e-10)
(490.952 6.50594 -4.34517e-10)
(490.824 5.93727 -3.00762e-10)
(490.573 7.42981 -2.37151e-10)
(490.419 6.58211 -1.15456e-11)
(490.164 8.23211 3.40637e-10)
(489.94 7.39382 1.7634e-10)
(489.746 8.75652 -1.65792e-10)
(489.384 8.41851 -1.813e-10)
(489.312 9.08121 1.02885e-10)
(488.753 9.56217 2.28373e-10)
(491.546 0.266522 -5.84465e-09)
(491.533 0.768991 1.77964e-09)
(491.514 1.08226 -5.88067e-10)
(491.468 1.67134 1.6493e-11)
(491.427 1.98688 -7.09102e-11)
(491.358 2.54985 -5.58187e-10)
(491.288 2.91809 -4.61234e-10)
(491.204 3.39092 1.64133e-10)
(491.097 3.87346 5.60782e-10)
(491.005 4.18648 6.06743e-10)
(490.857 4.85183 4.40777e-10)
(490.757 4.9323 3.89391e-10)
(490.572 5.84811 1.93763e-10)
(490.461 5.6311 -1.87924e-10)
(490.241 6.8487 -3.84318e-10)
(490.118 6.29834 -2.77481e-10)
(489.87 7.8233 -2.33491e-10)
(489.722 6.9765 -2.77847e-11)
(489.467 8.68897 2.98651e-10)
(489.255 7.80564 1.53096e-10)
(489.057 9.27749 -1.77607e-10)
(488.71 8.85638 -1.78097e-10)
(488.634 9.65489 1.21033e-10)
(488.091 10.0281 2.25356e-10)
(490.76 0.281811 -5.84938e-09)
(490.746 0.806781 1.80746e-09)
(490.728 1.14053 -5.55497e-10)
(490.683 1.75628 7.12935e-11)
(490.644 2.091 -4.79221e-11)
(490.576 2.68213 -5.63679e-10)
(490.507 3.06804 -4.53946e-10)
(490.425 3.57014 1.89162e-10)
(490.32 4.06909 6.02682e-10)
(490.23 4.41189 6.19798e-10)
(490.086 5.09314 4.25288e-10)
(489.988 5.20263 3.86139e-10)
(489.806 6.13539 1.60726e-10)
(489.7 5.9443 -2.40217e-10)
(489.483 7.18283 -4.26909e-10)
(489.365 6.65103 -3.02838e-10)
(489.119 8.20673 -2.50511e-10)
(488.978 7.36213 -3.10449e-11)
(488.724 9.13286 3.12016e-10)
(488.524 8.20802 1.81418e-10)
(488.322 9.78608 -1.34288e-10)
(487.99 9.2824 -1.63815e-10)
(487.91 10.2163 1.10133e-10)
(487.382 10.4806 2.29659e-10)
(489.924 0.296695 -5.86912e-09)
(489.91 0.843556 1.79787e-09)
(489.893 1.19721 -5.77364e-10)
(489.848 1.83894 4.50642e-11)
(489.81 2.19224 -8.10098e-11)
(489.743 2.81084 -6.08062e-10)
(489.677 3.21378 -5.00381e-10)
(489.596 3.74451 1.40019e-10)
(489.494 4.2592 5.45619e-10)
(489.407 4.63118 5.96626e-10)
(489.265 5.32766 4.38883e-10)
(489.171 5.4657 3.90775e-10)
(488.992 6.41467 1.56324e-10)
(488.89 6.24928 -2.49009e-10)
(488.676 7.50778 -4.45501e-10)
(488.563 6.99479 -3.25899e-10)
(488.32 8.57964 -2.37863e-10)
(488.186 7.73848 1.00489e-11)
(487.934 9.56335 3.52223e-10)
(487.745 8.60053 2.07657e-10)
(487.541 10.2818 -1.13713e-10)
(487.224 9.69627 -1.5263e-10)
(487.139 10.7647 1.18604e-10)
(486.628 10.9191 2.34169e-10)
(489.037 0.31114 -5.90034e-09)
(489.024 0.879239 1.81319e-09)
(489.007 1.25217 -5.49597e-10)
(488.963 1.91916 5.00038e-11)
(488.926 2.29039 -5.55623e-11)
(488.861 2.93577 -5.60051e-10)
(488.797 3.35506 -4.79294e-10)
(488.718 3.91374 1.36808e-10)
(488.618 4.44347 5.65123e-10)
(488.534 4.84399 6.36916e-10)
(488.395 5.55497 4.53236e-10)
(488.305 5.72104 4.20921e-10)
(488.13 6.68544 2.06176e-10)
(488.031 6.54548 -2.29637e-10)
(487.822 7.82298 -4.01048e-10)
(487.714 7.32899 -2.66435e-10)
(487.474 8.9415 -2.42859e-10)
(487.347 8.10499 -5.21631e-11)
(487.097 9.98003 3.02976e-10)
(486.919 8.98278 1.80598e-10)
(486.712 10.7641 -1.67326e-10)
(486.41 10.0977 -1.80762e-10)
(486.322 11.2997 1.06437e-10)
(485.828 11.3433 1.97841e-10)
(488.1 0.325106 -5.89505e-09)
(488.087 0.913742 1.82922e-09)
(488.071 1.30527 -5.5146e-10)
(488.028 1.99675 8.45331e-11)
(487.992 2.38523 -3.76882e-11)
(487.929 3.05664 -5.99429e-10)
(487.866 3.49159 -5.25902e-10)
(487.79 4.07751 1.28778e-10)
(487.693 4.62156 5.48492e-10)
(487.611 5.04998 6.07032e-10)
(487.476 5.77467 4.5417e-10)
(487.389 5.96822 4.17237e-10)
(487.218 6.94719 1.96796e-10)
(487.124 6.83233 -2.04944e-10)
(486.918 8.12785 -3.83224e-10)
(486.816 7.65294 -2.62595e-10)
(486.58 9.29172 -2.04849e-10)
(486.46 8.46096 -2.74019e-11)
(486.212 10.3825 2.75246e-10)
(486.046 9.35439 1.48168e-10)
(485.837 11.2324 -1.67928e-10)
(485.551 10.4862 -1.93544e-10)
(485.458 11.8205 8.0256e-11)
(484.981 11.7526 2.06973e-10)
(487.113 0.338554 -5.92951e-09)
(487.1 0.946972 1.78657e-09)
(487.084 1.35636 -5.7657e-10)
(487.042 2.07153 8.49651e-11)
(487.008 2.47652 -6.14833e-11)
(486.946 3.17319 -6.01198e-10)
(486.886 3.62308 -5.03011e-10)
(486.812 4.23552 1.73387e-10)
(486.718 4.79314 6.13366e-10)
(486.639 5.24879 6.46469e-10)
(486.507 5.9864 4.69816e-10)
(486.424 6.20684 4.04252e-10)
(486.257 7.19951 1.52478e-10)
(486.167 7.10933 -2.28482e-10)
(485.966 8.42183 -3.89336e-10)
(485.87 7.966 -2.84835e-10)
(485.638 9.62964 -2.50064e-10)
(485.525 8.80557 -4.87098e-11)
(485.281 10.7705 3.20886e-10)
(485.125 9.715 2.03669e-10)
(484.914 11.6857 -1.34508e-10)
(484.644 10.8616 -1.85238e-10)
(484.547 12.3269 6.67238e-11)
(484.089 12.1468 2.12033e-10)
(486.075 0.351445 -5.94875e-09)
(486.062 0.978843 1.79272e-09)
(486.047 1.40531 -5.78654e-10)
(486.006 2.1433 9.07272e-11)
(485.973 2.56402 -5.18638e-11)
(485.913 3.28515 -5.97788e-10)
(485.855 3.7492 -5.03908e-10)
(485.784 4.38744 1.24543e-10)
(485.692 4.95785 5.6548e-10)
(485.617 5.44007 6.53215e-10)
(485.489 6.18978 4.8104e-10)
(485.409 6.43652 4.14663e-10)
(485.247 7.44197 1.62705e-10)
(485.162 7.37602 -2.2033e-10)
(484.965 8.70443 -3.80113e-10)
(484.875 8.26757 -2.8064e-10)
(484.647 9.95464 -2.45273e-10)
(484.542 9.13798 -3.95425e-11)
(484.301 11.1436 3.32094e-10)
(484.156 10.0642 2.12841e-10)
(483.944 12.123 -1.24882e-10)
(483.69 11.2231 -1.76633e-10)
(483.59 12.818 8.17706e-11)
(483.15 12.5253 1.85183e-10)
(484.985 0.363748 -5.97372e-09)
(484.973 1.00928 1.83924e-09)
(484.959 1.45199 -5.55445e-10)
(484.919 2.21189 4.74105e-11)
(484.888 2.64751 -1.0804e-10)
(484.829 3.39225 -6.15716e-10)
(484.774 3.86966 -4.79142e-10)
(484.705 4.53292 1.41491e-10)
(484.617 5.11533 5.72714e-10)
(484.545 5.62344 6.44985e-10)
(484.421 6.38443 4.56022e-10)
(484.345 6.65688 4.30463e-10)
(484.187 7.6742 2.21046e-10)
(484.107 7.63201 -2.26356e-10)
(483.915 8.97524 -4.50702e-10)
(483.831 8.55716 -3.04889e-10)
(483.608 10.2662 -2.29543e-10)
(483.511 9.45748 -3.46471e-11)
(483.273 11.5014 3.27651e-10)
(483.138 10.4014 1.99329e-10)
(482.927 12.5435 -1.51714e-10)
(482.689 11.57 -1.6299e-10)
(482.585 13.2931 1.33082e-10)
(482.164 12.8877 2.19035e-10)
(483.845 0.375441 -5.96065e-09)
(483.833 1.03824 1.8694e-09)
(483.819 1.49633 -5.42065e-10)
(483.78 2.27718 5.89045e-11)
(483.751 2.72683 -1.03277e-10)
(483.695 3.49427 -6.179e-10)
(483.642 3.98417 -4.85357e-10)
(483.575 4.67164 1.86018e-10)
(483.491 5.26522 6.12681e-10)
(483.422 5.79851 6.26054e-10)
(483.302 6.56993 4.29948e-10)
(483.231 6.8675 4.00389e-10)
(483.077 7.89577 1.82838e-10)
(483.002 7.87689 -2.17532e-10)
(482.815 9.23384 -3.91318e-10)
(482.737 8.83434 -2.56002e-10)
(482.519 10.5639 -2.40808e-10)
(482.43 9.76357 -5.36996e-11)
(482.196 11.8433 3.00972e-10)
(482.073 10.7259 1.71028e-10)
(481.861 12.9464 -1.35986e-10)
(481.64 11.9014 -1.53609e-10)
(481.534 13.7509 1.39007e-10)
(481.132 13.2334 2.19647e-10)
(482.653 0.386509 -5.974e-09)
(482.641 1.06568 1.84537e-09)
(482.629 1.53825 -6.03226e-10)
(482.591 2.33907 7.09976e-11)
(482.563 2.80183 -7.68154e-11)
(482.509 3.59102 -6.25715e-10)
(482.459 4.09252 -4.69877e-10)
(482.395 4.80333 1.65259e-10)
(482.314 5.40718 5.54112e-10)
(482.249 5.96491 6.44501e-10)
(482.133 6.74588 4.70259e-10)
(482.066 7.06798 4.01328e-10)
(481.917 8.10627 2.05432e-10)
(481.848 8.11025 -2.29121e-10)
(481.666 9.47984 -4.44065e-10)
(481.594 9.0987 -2.86984e-10)
(481.381 10.8473 -2.52394e-10)
(481.3 10.0557 -4.3507e-11)
(481.071 12.1688 3.30802e-10)
(480.958 11.037 1.66308e-10)
(480.747 13.3312 -1.76349e-10)
(480.543 12.2164 -1.73699e-10)
(480.434 14.1899 7.95537e-11)
(480.052 13.5619 1.85023e-10)
(481.411 0.396941 -6.05198e-09)
(481.399 1.09158 1.82693e-09)
(481.387 1.57771 -6.05545e-10)
(481.351 2.3975 4.16567e-11)
(481.325 2.87242 -7.70442e-11)
(481.272 3.68239 -6.04693e-10)
(481.225 4.19451 -4.82103e-10)
(481.164 4.92775 1.84045e-10)
(481.086 5.54091 6.02165e-10)
(481.025 6.1223 6.57909e-10)
(480.913 6.91188 5.06218e-10)
(480.852 7.25788 4.07798e-10)
(480.707 8.30524 1.76409e-10)
(480.643 8.33166 -2.35912e-10)
(480.467 9.71282 -4.22321e-10)
(480.402 9.34985 -2.92687e-10)
(480.194 11.1161 -2.35216e-10)
(480.121 10.3336 -7.13179e-12)
(479.896 12.4776 3.43821e-10)
(479.794 11.334 1.96906e-10)
(479.585 13.6972 -1.77159e-10)
(479.397 12.5149 -1.99449e-10)
(479.286 14.6098 8.03022e-11)
(478.924 13.8731 2.01294e-10)
(480.117 0.406726 -6.03103e-09)
(480.105 1.1159 1.88647e-09)
(480.094 1.61467 -5.50824e-10)
(480.059 2.4524 5.43967e-11)
(480.035 2.93852 -1.11756e-10)
(479.984 3.76826 -6.36916e-10)
(479.939 4.29001 -5.0042e-10)
(479.882 5.04473 1.79532e-10)
(479.808 5.6662 6.04596e-10)
(479.75 6.2704 6.71697e-10)
(479.643 7.06758 4.72231e-10)
(479.586 7.43681 3.8596e-10)
(479.446 8.49226 1.64462e-10)
(479.389 8.54065 -2.42789e-10)
(479.217 9.93234 -4.17961e-10)
(479.159 9.58733 -2.76963e-10)
(478.957 11.3699 -2.0558e-10)
(478.892 10.5966 3.03966e-11)
(478.672 12.7695 3.33301e-10)
(478.581 11.616 1.44934e-10)
(478.374 14.0431 -1.65808e-10)
(478.203 12.7969 -1.78826e-10)
(478.089 15.0116 1.15981e-10)
(477.747 14.1673 2.49871e-10)
(478.771 0.415851 -6.03885e-09)
(478.76 1.13863 1.86103e-09)
(478.75 1.6491 -6.28927e-10)
(478.716 2.50372 4.83024e-11)
(478.693 3.00007 -4.16348e-11)
(478.645 3.84855 -6.02102e-10)
(478.603 4.37894 -5.13466e-10)
(478.548 5.15416 1.81087e-10)
(478.478 5.78289 5.71186e-10)
(478.424 6.409 5.96584e-10)
(478.322 7.21272 4.73566e-10)
(478.269 7.60444 4.569e-10)
(478.135 8.66691 1.89136e-10)
(478.083 8.73678 -2.55579e-10)
(477.917 10.1379 -4.13409e-10)
(477.866 9.81067 -2.55091e-10)
(477.67 11.6083 -2.30633e-10)
(477.613 10.8445 -3.46924e-11)
(477.399 13.0441 3.47388e-10)
(477.318 11.8822 1.71912e-10)
(477.115 14.3681 -1.85224e-10)
(476.96 13.0625 -1.84553e-10)
(476.843 15.3941 1.28555e-10)
(476.523 14.4434 2.2346e-10)
(477.375 0.4243 -6.1206e-09)
(477.363 1.15972 1.84122e-09)
(477.354 1.68092 -6.19333e-10)
(477.321 2.55139 3.57338e-11)
(477.301 3.05699 -9.00352e-11)
(477.255 3.92319 -6.29565e-10)
(477.215 4.46119 -5.02619e-10)
(477.163 5.25594 1.70205e-10)
(477.097 5.89087 5.8614e-10)
(477.047 6.53799 6.35219e-10)
(476.949 7.34713 4.81121e-10)
(476.902 7.76055 4.40186e-10)
(476.773 8.82888 2.01966e-10)
(476.727 8.91967 -2.21939e-10)
(476.567 10.3291 -4.08566e-10)
(476.523 10.0194 -2.78379e-10)
(476.333 11.8308 -2.24441e-10)
(476.284 11.0767 -6.5621e-13)
(476.076 13.3011 3.55406e-10)
(476.005 12.1324 2.05275e-10)
(475.805 14.6714 -1.16225e-10)
(475.668 13.3116 -2.06952e-10)
(475.548 15.7557 6.7098e-11)
(475.25 14.6991 1.96283e-10)
(475.926 0.432056 -6.06765e-09)
(475.915 1.17915 1.9121e-09)
(475.907 1.7101 -5.79534e-10)
(475.875 2.59534 7.58018e-11)
(475.856 3.10918 -5.96977e-11)
(475.812 3.99208 -6.0609e-10)
(475.776 4.53668 -4.85146e-10)
(475.727 5.34999 1.84505e-10)
(475.664 5.99005 5.95182e-10)
(475.619 6.65728 6.37489e-10)
(475.525 7.47068 4.76178e-10)
(475.483 7.90502 4.2299e-10)
(475.359 8.97797 1.76559e-10)
(475.319 9.08905 -2.47351e-10)
(475.165 10.5055 -4.48859e-10)
(475.129 10.213 -3.25833e-10)
(474.944 12.0368 -2.77055e-10)
(474.905 11.2928 1.12813e-11)
(474.702 13.5402 3.57374e-10)
(474.642 12.3659 1.94568e-10)
(474.446 14.9528 -1.29491e-10)
(474.325 13.5431 -1.68218e-10)
(474.204 16.0961 1.05771e-10)
(473.927 14.9357 2.25425e-10)
(474.426 0.439105 -6.10785e-09)
(474.415 1.19686 1.89169e-09)
(474.408 1.73658 -6.19398e-10)
(474.377 2.63549 7.58671e-11)
(474.361 3.15658 -7.24829e-11)
(474.319 4.05513 -6.35018e-10)
(474.285 4.60532 -4.73675e-10)
(474.24 5.43622 1.79753e-10)
(474.18 6.08036 5.78593e-10)
(474.139 6.76681 6.65416e-10)
(474.05 7.58333 4.84093e-10)
(474.012 8.03778 4.17888e-10)
(473.894 9.11408 2.15721e-10)
(473.861 9.24479 -2.30351e-10)
(473.712 10.6668 -4.44174e-10)
(473.683 10.3911 -2.78558e-10)
(473.505 12.2259 -2.44579e-10)
(473.474 11.492 -3.51466e-11)
(473.278 13.7606 3.59083e-10)
(473.229 12.5824 1.83358e-10)
(473.037 15.2124 -1.69982e-10)
(472.932 13.757 -1.57001e-10)
(472.809 16.4146 1.06797e-10)
(472.555 15.1527 2.03292e-10)
(472.874 0.445439 -6.18272e-09)
(472.864 1.21286 1.89935e-09)
(472.857 1.76032 -5.84025e-10)
(472.828 2.6718 3.53735e-11)
(472.813 3.19912 -6.6519e-11)
(472.774 4.11226 -5.90284e-10)
(472.742 4.66702 -5.13621e-10)
(472.7 5.51454 1.87964e-10)
(472.645 6.1617 6.26986e-10)
(472.607 6.86651 6.28917e-10)
(472.523 7.68501 4.92056e-10)
(472.491 8.15882 4.70059e-10)
(472.377 9.23716 1.82828e-10)
(472.35 9.38687 -2.25539e-10)
(472.208 10.813 -3.92228e-10)
(472.186 10.5536 -3.09671e-10)
(472.014 12.3977 -2.38481e-10)
(471.993 11.6739 1.30888e-11)
(471.802 13.9619 3.26823e-10)
(471.764 12.7806 1.89569e-10)
(471.578 15.4505 -1.16648e-10)
(471.488 13.9543 -1.86534e-10)
(471.363 16.7099 1.14165e-10)
(471.132 15.349 2.51166e-10)
(471.271 0.451056 -6.16957e-09)
(471.261 1.22713 1.94467e-09)
(471.255 1.78134 -5.54369e-10)
(471.227 2.70427 7.07331e-11)
(471.214 3.23678 -1.05624e-10)
(471.177 4.16345 -6.33852e-10)
(471.148 4.72173 -4.82128e-10)
(471.109 5.58489 2.16491e-10)
(471.058 6.23401 6.5646e-10)
(471.024 6.9563 6.64513e-10)
(470.944 7.77564 4.53254e-10)
(470.917 8.2681 4.26177e-10)
(470.809 9.34721 2.10016e-10)
(470.788 9.51531 -2.0146e-10)
(470.651 10.944 -3.73386e-10)
(470.637 10.7006 -2.9177e-10)
(470.472 12.5521 -2.87502e-10)
(470.459 11.8383 -2.92056e-11)
(470.276 14.1436 3.42305e-10)
(470.249 12.9599 2.02126e-10)
(470.068 15.6666 -9.65869e-11)
(469.992 14.1348 -1.75429e-10)
(469.867 16.9814 6.0151e-11)
(469.659 15.524 2.04212e-10)
(469.616 0.455964 -6.25407e-09)
(469.606 1.2397 1.87814e-09)
(469.601 1.79965 -6.41609e-10)
(469.574 2.73291 2.17661e-11)
(469.563 3.2696 -1.06178e-10)
(469.528 4.2087 -6.57318e-10)
(469.502 4.76945 -5.30048e-10)
(469.466 5.64722 1.49825e-10)
(469.418 6.2972 5.71972e-10)
(469.389 7.03611 6.19881e-10)
(469.314 7.85515 4.54699e-10)
(469.292 8.36552 4.07645e-10)
(469.189 9.44414 1.62362e-10)
(469.174 9.6301 -2.67617e-10)
(469.044 11.0599 -4.6494e-10)
(469.037 10.832 -3.3054e-10)
(468.878 12.6893 -2.81277e-10)
(468.874 11.985 -4.74602e-11)
(468.697 14.3055 3.02063e-10)
(468.681 13.1199 1.4778e-10)
(468.506 15.86 -1.88322e-10)
(468.445 14.2979 -2.12248e-10)
(468.32 17.2287 6.76804e-11)
(468.135 15.6777 1.93005e-10)
(467.909 0.460175 -6.21421e-09)
(467.899 1.25059 1.92522e-09)
(467.894 1.81529 -6.31469e-10)
(467.869 2.75778 8.64911e-11)
(467.86 3.29761 -6.65546e-11)
(467.827 4.24807 -6.38919e-10)
(467.804 4.8102 -4.63892e-10)
(467.771 5.70157 2.00026e-10)
(467.727 6.35129 6.02053e-10)
(467.702 7.10588 6.97364e-10)
(467.631 7.92344 5.11474e-10)
(467.614 8.45099 4.35727e-10)
(467.517 9.52783 2.38995e-10)
(467.508 9.73115 -2.16636e-10)
(467.384 11.1606 -4.31659e-10)
(467.384 10.9479 -3.18398e-10)
(467.231 12.8092 -2.89122e-10)
(467.237 12.1144 -9.2988e-12)
(467.066 14.4478 3.25393e-10)
(467.061 13.2604 1.48239e-10)
(466.892 16.0306 -1.39306e-10)
(466.846 14.4426 -1.8839e-10)
(466.722 17.4507 6.82983e-11)
(466.56 15.8097 2.37074e-10)
(466.149 0.463701 -6.23334e-09)
(466.14 1.25983 1.94174e-09)
(466.136 1.82832 -6.27877e-10)
(466.112 2.77893 9.42606e-11)
(466.104 3.3209 -6.02435e-11)
(466.074 4.28162 -6.34624e-10)
(466.054 4.84408 -4.58296e-10)
(466.024 5.748 2.08868e-10)
(465.984 6.39631 6.11682e-10)
(465.962 7.16564 6.37951e-10)
(465.896 7.98047 4.50436e-10)
(465.885 8.52443 4.5068e-10)
(465.793 9.59817 1.83131e-10)
(465.79 9.81834 -2.71276e-10)
(465.672 11.246 -4.19423e-10)
(465.68 11.0483 -3.06205e-10)
(465.533 12.9118 -2.75932e-10)
(465.548 12.2265 3.99496e-12)
(465.382 14.5706 3.4195e-10)
(465.389 13.3816 1.61228e-10)
(465.225 16.1786 -1.25954e-10)
(465.193 14.5675 -1.76872e-10)
(465.072 17.6458 9.0065e-11)
(464.933 15.9202 2.56919e-10)
(464.338 0.466553 -6.2786e-09)
(464.329 1.26744 1.99738e-09)
(464.326 1.83878 -6.03557e-10)
(464.303 2.79643 3.59017e-11)
(464.297 3.33953 -6.09113e-11)
(464.268 4.30945 -5.79573e-10)
(464.251 4.87117 -4.87137e-10)
(464.224 5.78659 1.60996e-10)
(464.188 6.43235 6.21532e-10)
(464.17 7.21545 7.03469e-10)
(464.109 8.02629 5.01384e-10)
(464.102 8.58584 4.17723e-10)
(464.016 9.65506 2.0467e-10)
(464.02 9.89152 -1.98681e-10)
(463.907 11.3158 -4.35333e-10)
(463.923 11.1329 -3.33434e-10)
(463.782 12.997 -2.47916e-10)
(463.806 12.3213 1.74885e-11)
(463.647 14.6742 3.44209e-10)
(463.664 13.4839 1.49015e-10)
(463.506 16.305 -1.56167e-10)
(463.489 14.6716 -1.58652e-10)
(463.371 17.8124 9.80913e-11)
(463.254 16.009 1.88977e-10)
(462.475 0.468736 -6.3332e-09)
(462.465 1.27344 1.93581e-09)
(462.463 1.84669 -6.40192e-10)
(462.442 2.8103 2.11424e-11)
(462.437 3.35357 -1.23476e-10)
(462.411 4.33162 -6.9136e-10)
(462.396 4.89155 -4.95632e-10)
(462.372 5.81746 2.55928e-10)
(462.339 6.4595 6.73919e-10)
(462.326 7.25541 7.13374e-10)
(462.269 8.06097 5.31615e-10)
(462.267 8.63527 4.67661e-10)
(462.186 9.69851 2.12219e-10)
(462.197 9.95064 -2.34036e-10)
(462.09 11.3699 -4.44309e-10)
(462.113 11.2016 -3.20948e-10)
(461.979 13.0644 -2.77961e-10)
(462.012 12.3986 -4.75674e-11)
(461.86 14.7582 2.94612e-10)
(461.888 13.5673 1.30084e-10)
(461.735 16.4098 -1.50101e-10)
(461.731 14.7558 -1.27236e-10)
(461.617 17.9507 1.58049e-10)
(461.523 16.0755 2.65948e-10)
(460.558 0.470252 -6.38856e-09)
(460.549 1.27783 1.9527e-09)
(460.548 1.85206 -6.08906e-10)
(460.528 2.82056 1.39927e-11)
(460.525 3.36303 -1.03624e-10)
(460.5 4.34815 -6.426e-10)
(460.488 4.90526 -4.90148e-10)
(460.468 5.84064 2.21826e-10)
(460.438 6.47785 5.92017e-10)
(460.429 7.28563 6.59162e-10)
(460.376 8.08463 5.12024e-10)
(460.38 8.67285 4.06137e-10)
(460.304 9.7286 1.76226e-10)
(460.32 9.99577 -2.42356e-10)
(460.22 11.4083 -4.24356e-10)
(460.251 11.2542 -2.74601e-10)
(460.123 13.1138 -2.71318e-10)
(460.166 12.4579 -1.4209e-11)
(460.019 14.8222 3.6335e-10)
(460.059 13.6315 1.43264e-10)
(459.912 16.4929 -1.81452e-10)
(459.922 14.8204 -1.85409e-10)
(459.811 18.0615 1.21408e-10)
(459.738 16.12 2.54083e-10)
(458.589 0.471098 -6.34625e-09)
(458.58 1.28061 1.98578e-09)
(458.58 1.85489 -6.32486e-10)
(458.561 2.82721 2.92005e-11)
(458.56 3.36792 -1.18197e-10)