/*--------------------------------*- C++ -*----------------------------------*\
  =========                 |
  \\      /  F ield         | OpenFOAM: The Open Source CFD Toolbox
   \\    /   O peration     | Website:  https://openfoam.org
    \\  /    A nd           | Version:  10
     \\/     M anipulation  |
\*---------------------------------------------------------------------------*/
FoamFile
{
    format      ascii;
    class       surfaceScalarField;
    location    "0.46";
    object      phi;
}
// * * * * * * * * * * * * * * * * * * * * * * * * * * * * * * * * * * * * * //

dimensions      [1 0 -1 0 0 0 0];

internalField   nonuniform List<scalar> 
8154
(
-5.81396e-09
-2.21294e-08
-5.68934e-08
-9.20651e-08
-1.71812e-07
-2.26241e-07
-3.69983e-07
-4.53936e-07
-6.74274e-07
-8.14189e-07
-1.10505e-06
-1.33863e-06
-1.66884e-06
-2.02782e-06
-2.3619e-06
-2.8675e-06
-3.25689e-06
-3.98594e-06
-4.56482e-06
-5.50566e-06
-6.82607e-06
-7.25562e-06
-6.85155e-06
-0.000277438
-0.000832369
2.40354e-08
-0.00138746
9.62241e-08
-0.00194288
2.13255e-07
-0.00249867
3.77919e-07
-0.00305503
5.76931e-07
-0.00361202
8.23296e-07
-0.00416972
1.08835e-06
-0.00472845
1.39789e-06
-0.00528791
1.71106e-06
-0.00584877
2.05583e-06
-0.00641057
2.40193e-06
-0.00697376
2.74695e-06
-0.00753865
3.11951e-06
-0.00810416
3.43593e-06
-0.00867309
3.84937e-06
-0.00924022
4.12508e-06
-0.00981489
4.573e-06
-0.0103833
4.92506e-06
-0.0109646
5.13966e-06
-0.0115338
5.28058e-06
-0.0121235
5.11686e-06
-0.0126947
4.03123e-06
-0.013293
2.44799e-06
-0.000277462
-0.000832441
2.6346e-08
-0.00138758
1.04757e-07
-0.00194305
2.34647e-07
-0.00249887
4.10012e-07
-0.00305527
6.34864e-07
-0.00361229
8.89336e-07
-0.00417003
1.1945e-06
-0.00472876
1.50113e-06
-0.00528825
1.86676e-06
-0.00584912
2.19023e-06
-0.00641091
2.59237e-06
-0.00697413
2.89159e-06
-0.00753897
3.29826e-06
-0.00810458
3.53915e-06
-0.00867337
3.90362e-06
-0.00924067
4.10391e-06
-0.00981524
4.38948e-06
-0.0103835
5.00275e-06
-0.0109647
4.66729e-06
-0.0115336
5.23287e-06
-0.0121224
5.33238e-06
-0.0126931
5.04415e-06
-0.0132906
4.22764e-06
-0.000277488
-0.000832519
2.12812e-08
-0.00138771
8.48665e-08
-0.00194322
1.87978e-07
-0.0024991
3.30356e-07
-0.00305553
5.0153e-07
-0.00361259
7.07084e-07
-0.00417034
9.2244e-07
-0.00472913
1.16632e-06
-0.00528857
1.39366e-06
-0.00584952
1.64122e-06
-0.00641121
1.84526e-06
-0.00697454
2.0486e-06
-0.00753921
2.19672e-06
-0.00810494
2.28392e-06
-0.00867357
2.35334e-06
-0.00924095
2.20569e-06
-0.00981585
2.34311e-06
-0.0103832
1.90042e-06
-0.0109653
1.78489e-06
-0.0115337
1.39351e-06
-0.0121221
1.15399e-06
-0.0126923
7.22241e-07
-0.0132863
5.20276e-07
-0.00027751
-0.000832583
2.55141e-08
-0.00138781
1.0182e-07
-0.00194337
2.25945e-07
-0.00249927
3.97635e-07
-0.00305574
6.05272e-07
-0.00361281
8.55384e-07
-0.00417059
1.11921e-06
-0.00472936
1.42034e-06
-0.00528882
1.70186e-06
-0.00584972
2.01609e-06
-0.00641142
2.27098e-06
-0.00697468
2.54716e-06
-0.00753929
2.73312e-06
-0.00810502
2.8953e-06
-0.00867342
2.98503e-06
-0.00924109
2.89686e-06
-0.0098154
2.974e-06
-0.010383
2.28507e-06
-0.0109649
2.52219e-06
-0.0115335
1.72675e-06
-0.0121217
1.20318e-06
-0.0126921
3.82652e-07
-0.0132858
-1.64472e-07
-0.000277535
-0.000832659
3.36267e-08
-0.00138794
1.34178e-07
-0.00194354
2.99094e-07
-0.00249947
5.26287e-07
-0.00305599
8.07622e-07
-0.00361307
1.14141e-06
-0.00417089
1.51167e-06
-0.00472964
1.9188e-06
-0.00528914
2.33825e-06
-0.00584998
2.77236e-06
-0.00641169
3.19296e-06
-0.00697487
3.59477e-06
-0.00753946
3.96376e-06
-0.00810511
4.25907e-06
-0.00867333
4.52184e-06
-0.00924116
4.61407e-06
-0.00981471
4.72991e-06
-0.0103833
4.40253e-06
-0.0109641
4.37124e-06
-0.011533
3.6743e-06
-0.0121208
3.20719e-06
-0.0126915
2.27377e-06
-0.013286
1.35928e-06
-0.000277569
-0.00083276
3.75491e-08
-0.0013881
1.49845e-07
-0.00194376
3.34302e-07
-0.00249976
5.88325e-07
-0.00305632
9.04082e-07
-0.00361344
1.27811e-06
-0.00417129
1.69587e-06
-0.00473006
2.1535e-06
-0.00528957
2.63005e-06
-0.0058504
3.11986e-06
-0.0064121
3.60114e-06
-0.00697524
4.05698e-06
-0.00753975
4.4814e-06
-0.00810537
4.82204e-06
-0.00867343
5.12384e-06
-0.00924128
5.24854e-06
-0.00981438
5.36844e-06
-0.0103833
5.08398e-06
-0.0109634
4.97271e-06
-0.0115325
4.21759e-06
-0.0121199
3.67177e-06
-0.0126906
2.64323e-06
-0.0132847
1.62566e-06
-0.000277606
-0.000832872
4.13833e-08
-0.00138829
1.65164e-07
-0.00194402
3.68597e-07
-0.00250007
6.48821e-07
-0.00305669
9.97594e-07
-0.00361386
1.41101e-06
-0.00417175
1.87373e-06
-0.00473054
2.3814e-06
-0.00529006
2.91138e-06
-0.00585088
3.4578e-06
-0.00641255
3.99519e-06
-0.00697566
4.50782e-06
-0.00754009
4.9823e-06
-0.00810567
5.37153e-06
-0.00867355
5.7073e-06
-0.0092414
5.86146e-06
-0.00981409
5.99617e-06
-0.0103831
5.71973e-06
-0.0109626
5.60257e-06
-0.011532
4.81143e-06
-0.0121189
4.19771e-06
-0.0126896
2.99331e-06
-0.013283
1.80823e-06
-0.000277648
-0.000832996
4.50801e-08
-0.00138849
1.79912e-07
-0.0019443
4.01574e-07
-0.00250042
7.06785e-07
-0.00305711
1.08703e-06
-0.00361432
1.53751e-06
-0.00417226
2.04283e-06
-0.00473107
2.597e-06
-0.00529061
3.17772e-06
-0.00585141
3.77639e-06
-0.00641306
4.36789e-06
-0.00697613
4.93273e-06
-0.00754048
5.45652e-06
-0.00810601
5.88962e-06
-0.00867371
6.25851e-06
-0.00924153
6.44076e-06
-0.00981381
6.58067e-06
-0.010383
6.3295e-06
-0.0109618
6.18045e-06
-0.0115314
5.3758e-06
-0.0121177
4.82073e-06
-0.0126884
3.36475e-06
-0.0132812
2.02664e-06
-0.000277693
-0.000833131
4.87274e-08
-0.00138871
1.94452e-07
-0.0019446
4.34028e-07
-0.0025008
7.63729e-07
-0.00305756
1.17462e-06
-0.00361483
1.66106e-06
-0.00417282
2.20728e-06
-0.00473165
2.80608e-06
-0.00529121
3.43487e-06
-0.00585201
4.08344e-06
-0.00641363
4.72607e-06
-0.00697666
5.34123e-06
-0.00754091
5.91222e-06
-0.00810638
6.38816e-06
-0.00867389
6.78882e-06
-0.00924167
6.99663e-06
-0.00981355
7.13713e-06
-0.0103829
6.90451e-06
-0.010961
6.73171e-06
-0.0115307
5.89495e-06
-0.0121163
4.90152e-06
-0.0126871
3.69417e-06
-0.0132792
2.2176e-06
-0.000277741
-0.000833277
5.23235e-08
-0.00138895
2.08784e-07
-0.00194493
4.65996e-07
-0.00250121
8.19769e-07
-0.00305805
1.26066e-06
-0.00361537
1.78218e-06
-0.00417341
2.36797e-06
-0.00473228
3.00965e-06
-0.00529185
3.68414e-06
-0.00585265
4.37984e-06
-0.00641424
5.07041e-06
-0.00697723
5.73289e-06
-0.00754139
6.34852e-06
-0.00810678
6.86557e-06
-0.0086741
7.29737e-06
-0.00924181
7.52858e-06
-0.00981332
7.66807e-06
-0.0103827
7.44921e-06
-0.0109602
7.24681e-06
-0.0115301
6.39873e-06
-0.0121148
5.59721e-06
-0.0126856
4.03492e-06
-0.013277
2.39972e-06
-0.000277794
-0.000833433
5.58831e-08
-0.00138921
2.22974e-07
-0.00194529
4.97656e-07
-0.00250165
8.75293e-07
-0.00305857
1.34591e-06
-0.00361596
1.90212e-06
-0.00417406
2.52683e-06
-0.00473295
3.21042e-06
-0.00529255
3.929e-06
-0.00585334
4.66973e-06
-0.00641491
5.40535e-06
-0.00697784
6.11206e-06
-0.0075419
6.76915e-06
-0.00810721
7.32497e-06
-0.00867434
7.78708e-06
-0.00924195
8.04281e-06
-0.0098131
8.18796e-06
-0.0103825
7.97104e-06
-0.0109593
7.74324e-06
-0.0115293
6.86382e-06
-0.0121132
6.01015e-06
-0.0126839
4.35599e-06
-0.0132746
2.58654e-06
-0.00027785
-0.0008336
5.93985e-08
-0.00138948
2.36995e-07
-0.00194567
5.28972e-07
-0.00250212
9.30281e-07
-0.00305912
1.43042e-06
-0.00361658
2.02113e-06
-0.00417474
2.68448e-06
-0.00473367
3.40952e-06
-0.00529329
4.17131e-06
-0.00585407
4.9556e-06
-0.00641561
5.73393e-06
-0.0069785
6.48188e-06
-0.00754245
7.17678e-06
-0.00810767
7.7678e-06
-0.00867459
8.25735e-06
-0.0092421
8.53607e-06
-0.00981288
8.68772e-06
-0.0103823
8.46845e-06
-0.0109585
8.20584e-06
-0.0115284
7.28882e-06
-0.0121116
6.37692e-06
-0.0126822
4.65071e-06
-0.013272
2.75602e-06
-0.000277909
-0.000833778
6.28695e-08
-0.00138977
2.50846e-07
-0.00194607
5.59932e-07
-0.00250262
9.84722e-07
-0.00305971
1.51421e-06
-0.00361725
2.13933e-06
-0.00417547
2.84123e-06
-0.00473443
3.60766e-06
-0.00529408
4.41236e-06
-0.00585485
5.23956e-06
-0.00641636
6.05921e-06
-0.00697919
6.84614e-06
-0.00754304
7.57559e-06
-0.00810816
8.19801e-06
-0.00867487
8.71127e-06
-0.00924225
9.0098e-06
-0.00981266
9.16538e-06
-0.010382
8.94646e-06
-0.0109575
8.64425e-06
-0.0115275
7.68229e-06
-0.0121098
6.70956e-06
-0.0126803
4.89422e-06
-0.0132693
2.90253e-06
-0.000277972
-0.000833966
6.62982e-08
-0.00139008
2.64527e-07
-0.00194649
5.90524e-07
-0.00250315
1.03855e-06
-0.00306034
1.59713e-06
-0.00361795
2.25642e-06
-0.00417623
2.99672e-06
-0.00473524
3.8045e-06
-0.0052949
4.6521e-06
-0.00585567
5.52209e-06
-0.00641715
6.38257e-06
-0.00697992
7.20725e-06
-0.00754366
7.96897e-06
-0.00810868
8.61937e-06
-0.00867517
9.15223e-06
-0.0092424
9.46656e-06
-0.00981244
9.62454e-06
-0.0103817
9.40801e-06
-0.0109566
9.064e-06
-0.0115265
8.05715e-06
-0.012108
7.01463e-06
-0.0126783
5.0531e-06
-0.0132664
3.02783e-06
-0.000278038
-0.000834164
6.9692e-08
-0.00139041
2.78061e-07
-0.00194694
6.20767e-07
-0.00250371
1.09173e-06
-0.003061
1.67901e-06
-0.00361869
2.37204e-06
-0.00417704
3.15031e-06
-0.00473609
3.99912e-06
-0.00529577
4.88948e-06
-0.00585653
5.80231e-06
-0.00641797
6.70371e-06
-0.00698068
7.56594e-06
-0.00754431
8.35907e-06
-0.00810921
9.03539e-06
-0.00867549
9.58435e-06
-0.00924256
9.90962e-06
-0.00981223
1.00661e-05
-0.0103813
9.84947e-06
-0.0109556
9.46479e-06
-0.0115255
8.4192e-06
-0.0121061
7.31347e-06
-0.0126763
5.27299e-06
-0.0132633
3.15981e-06
-0.000278108
-0.000834373
7.30539e-08
-0.00139075
2.9146e-07
-0.00194741
6.50665e-07
-0.0025043
1.14421e-06
-0.00306169
1.75965e-06
-0.00361947
2.48574e-06
-0.00417789
3.30117e-06
-0.00473698
4.19022e-06
-0.00529669
5.12272e-06
-0.00585743
6.0781e-06
-0.00641884
7.0205e-06
-0.00698148
7.92063e-06
-0.00754498
8.74556e-06
-0.00810976
9.44758e-06
-0.00867581
1.00114e-05
-0.00924272
1.03443e-05
-0.00981201
1.04928e-05
-0.010381
1.02634e-05
-0.0109545
9.84496e-06
-0.0115244
8.76102e-06
-0.012104
7.59407e-06
-0.0126742
5.49168e-06
-0.0132602
3.28342e-06
-0.000278181
-0.000834591
7.63745e-08
-0.00139111
3.04681e-07
-0.00194791
6.80114e-07
-0.00250491
1.19579e-06
-0.00306242
1.83869e-06
-0.00362028
2.59686e-06
-0.00417878
3.44823e-06
-0.00473791
4.37618e-06
-0.00529764
5.34952e-06
-0.00585838
6.34644e-06
-0.00641974
7.32937e-06
-0.0069823
8.26752e-06
-0.00754568
9.12505e-06
-0.00811032
9.85378e-06
-0.00867615
1.04337e-05
-0.00924287
1.07745e-05
-0.00981178
1.09141e-05
-0.0103805
1.06683e-05
-0.0109534
1.0215e-05
-0.0115232
9.09316e-06
-0.0121019
7.8639e-06
-0.012672
5.69269e-06
-0.0132569
3.39983e-06
-0.000278257
-0.00083482
7.96279e-08
-0.00139149
3.17622e-07
-0.00194842
7.08896e-07
-0.00250556
1.24609e-06
-0.00306318
1.91558e-06
-0.00362113
2.70465e-06
-0.00417971
3.59045e-06
-0.00473888
4.55553e-06
-0.00529864
5.56778e-06
-0.00585936
6.60444e-06
-0.00642068
7.62653e-06
-0.00698316
8.60203e-06
-0.00754641
9.49249e-06
-0.0081109
1.02491e-05
-0.00867649
1.08472e-05
-0.00924301
1.11982e-05
-0.00981154
1.13311e-05
-0.0103801
1.10711e-05
-0.0109523
1.05786e-05
-0.011522
9.42172e-06
-0.0120998
8.12986e-06
-0.0126697
5.88789e-06
-0.0132534
3.51174e-06
-0.000278337
-0.000835058
8.27564e-08
-0.00139188
3.30061e-07
-0.00194896
7.3655e-07
-0.00250623
1.29439e-06
-0.00306397
1.98931e-06
-0.00362202
2.80782e-06
-0.00418067
3.72625e-06
-0.0047399
4.72633e-06
-0.00529968
5.77505e-06
-0.00586038
6.84892e-06
-0.00642165
7.90779e-06
-0.00698405
8.91881e-06
-0.00754717
9.84138e-06
-0.00811149
1.06262e-05
-0.00867684
1.12446e-05
-0.00924315
1.16087e-05
-0.00981128
1.17389e-05
-0.0103796
1.14675e-05
-0.0109512
1.09355e-05
-0.0115207
9.75033e-06
-0.0120975
8.39813e-06
-0.0126673
6.08256e-06
-0.0132499
3.62179e-06
-0.00027842
-0.000835305
8.5683e-08
-0.00139228
3.41703e-07
-0.00194952
7.62455e-07
-0.00250692
1.33967e-06
-0.00306479
2.0585e-06
-0.00362294
2.90467e-06
-0.00418167
3.85365e-06
-0.00474094
4.88633e-06
-0.00530075
5.96881e-06
-0.00586144
7.07686e-06
-0.00642266
8.16937e-06
-0.00698498
9.21296e-06
-0.00754795
1.01654e-05
-0.00811211
1.09772e-05
-0.00867721
1.16166e-05
-0.00924328
1.19964e-05
-0.00981101
1.21292e-05
-0.0103791
1.18508e-05
-0.01095
1.12834e-05
-0.0115193
1.00785e-05
-0.0120952
8.67136e-06
-0.0126648
6.28281e-06
-0.0132463
3.73327e-06
-0.000278506
-0.000835561
8.83192e-08
-0.00139271
3.52203e-07
-0.0019501
7.85871e-07
-0.00250764
1.38072e-06
-0.00306563
2.12142e-06
-0.00362389
2.99299e-06
-0.0041827
3.97009e-06
-0.00474203
5.0327e-06
-0.00530186
6.14599e-06
-0.00586253
7.28495e-06
-0.00642371
8.40753e-06
-0.00698593
9.47996e-06
-0.00754876
1.04587e-05
-0.00811275
1.12945e-05
-0.00867759
1.19534e-05
-0.00924341
1.23493e-05
-0.00981073
1.24885e-05
-0.0103785
1.22107e-05
-0.0109488
1.16223e-05
-0.0115179
1.03988e-05
-0.0120928
8.94207e-06
-0.0126623
6.48956e-06
-0.0132426
3.84771e-06
-0.000278594
-0.000835825
9.0579e-08
-0.00139314
3.61221e-07
-0.00195069
8.06051e-07
-0.00250838
1.41627e-06
-0.0030665
2.17618e-06
-0.00362486
3.07026e-06
-0.00418377
4.07246e-06
-0.00474314
5.16192e-06
-0.005303
6.30279e-06
-0.00586366
7.46922e-06
-0.00642478
8.61812e-06
-0.00698691
9.71532e-06
-0.0075496
1.07161e-05
-0.0081134
1.15718e-05
-0.00867798
1.22465e-05
-0.00924355
1.26559e-05
-0.00981046
1.28014e-05
-0.0103779
1.25278e-05
-0.0109476
1.19298e-05
-0.0115164
1.06899e-05
-0.0120904
9.19227e-06
-0.0126597
6.69261e-06
-0.0132387
3.96038e-06
-0.000278685
-0.000836096
9.23926e-08
-0.00139358
3.68475e-07
-0.0019513
8.22347e-07
-0.00250914
1.44512e-06
-0.0030674
2.22093e-06
-0.00362586
3.13389e-06
-0.00418486
4.15741e-06
-0.00474428
5.26989e-06
-0.00530416
6.43459e-06
-0.00586481
7.62473e-06
-0.00642588
8.79607e-06
-0.00698791
9.91389e-06
-0.00755045
1.09324e-05
-0.00811407
1.18031e-05
-0.0086784
1.24891e-05
-0.0092437
1.29074e-05
-0.00981018
1.30561e-05
-0.0103773
1.27843e-05
-0.0109463
1.21763e-05
-0.0115149
1.09282e-05
-0.0120879
9.3968e-06
-0.0126569
6.86624e-06
-0.0132347
4.05379e-06
-0.000278777
-0.000836373
9.37121e-08
-0.00139404
3.73764e-07
-0.00195192
8.34276e-07
-0.00250991
1.46637e-06
-0.00306831
2.25412e-06
-0.00362689
3.18148e-06
-0.00418597
4.22157e-06
-0.00474544
5.35228e-06
-0.00530535
6.53614e-06
-0.00586598
7.74555e-06
-0.006427
8.93505e-06
-0.00698893
1.00693e-05
-0.00755132
1.11011e-05
-0.00811475
1.19822e-05
-0.00867882
1.26745e-05
-0.00924385
1.30966e-05
-0.00980992
1.32436e-05
-0.0103767
1.29701e-05
-0.0109451
1.23503e-05
-0.0115134
1.10981e-05
-0.0120854
9.52937e-06
-0.0126542
6.96672e-06
-0.0132306
4.09481e-06
-0.000278871
-0.000836653
9.45263e-08
-0.0013945
3.77033e-07
-0.00195256
8.41673e-07
-0.0025107
1.47962e-06
-0.00306924
2.27496e-06
-0.00362793
3.2117e-06
-0.0041871
4.26279e-06
-0.00474663
5.40606e-06
-0.00530656
6.60341e-06
-0.00586717
7.82696e-06
-0.00642813
9.0298e-06
-0.00698997
1.01764e-05
-0.0075522
1.12174e-05
-0.00811544
1.21054e-05
-0.00867924
1.27992e-05
-0.00924399
1.32211e-05
-0.00980965
1.33607e-05
-0.010376
1.30815e-05
-0.0109438
1.24479e-05
-0.0115118
1.1194e-05
-0.0120828
9.57908e-06
-0.0126513
6.95784e-06
-0.0132265
4.0595e-06
-0.000278966
-0.000836936
9.52153e-08
-0.00139496
3.79794e-07
-0.00195319
8.47907e-07
-0.0025115
1.49077e-06
-0.00307018
2.29253e-06
-0.00362898
3.23728e-06
-0.00418824
4.29807e-06
-0.00474783
5.45282e-06
-0.00530779
6.66335e-06
-0.00586837
7.90164e-06
-0.00642928
9.12003e-06
-0.00699101
1.02826e-05
-0.00755309
1.13384e-05
-0.00811613
1.22396e-05
-0.00867966
1.29431e-05
-0.00924413
1.33722e-05
-0.00980937
1.35132e-05
-0.0103754
1.32354e-05
-0.0109426
1.2596e-05
-0.0115102
1.13447e-05
-0.0120802
9.70594e-06
-0.0126484
7.05036e-06
-0.0132224
4.15577e-06
-0.000279061
-0.000837221
9.55116e-08
-0.00139543
3.80978e-07
-0.00195384
8.5057e-07
-0.0025123
1.49552e-06
-0.00307112
2.30004e-06
-0.00363004
3.24835e-06
-0.0041894
4.31368e-06
-0.00474904
5.47425e-06
-0.00530903
6.69216e-06
-0.00586959
7.93958e-06
-0.00643044
9.16879e-06
-0.00699207
1.03435e-05
-0.007554
1.14124e-05
-0.00811682
1.23262e-05
-0.0086801
1.30407e-05
-0.00924427
1.34782e-05
-0.0098091
1.36231e-05
-0.0103748
1.33474e-05
-0.0109413
1.27023e-05
-0.0115086
1.14497e-05
-0.0120776
9.80525e-06
-0.0126455
7.13969e-06
-0.0132183
4.32052e-06
-0.000279157
-0.000837506
9.53044e-08
-0.0013959
3.80146e-07
-0.00195448
8.48693e-07
-0.0025131
1.4922e-06
-0.00307207
2.29491e-06
-0.0036311
3.24118e-06
-0.00419056
4.30446e-06
-0.00475025
5.46336e-06
-0.00531027
6.68041e-06
-0.00587082
7.92841e-06
-0.00643162
9.15999e-06
-0.00699314
1.03393e-05
-0.00755491
1.14149e-05
-0.00811753
1.23369e-05
-0.00868054
1.30599e-05
-0.00924441
1.35049e-05
-0.00980882
1.36536e-05
-0.0103741
1.33797e-05
-0.0109401
1.27284e-05
-0.0115069
1.14747e-05
-0.012075
9.82386e-06
-0.0126425
7.16759e-06
-0.0132141
3.98783e-06
-0.000279252
-0.000837791
9.46305e-08
-0.00139637
3.77455e-07
-0.00195513
8.42664e-07
-0.0025139
1.48156e-06
-0.00307301
2.27846e-06
-0.00363216
3.21784e-06
-0.00419172
4.27339e-06
-0.00475147
5.42413e-06
-0.00531152
6.63305e-06
-0.00587205
7.87371e-06
-0.0064328
9.09945e-06
-0.00699421
1.02754e-05
-0.00755584
1.13508e-05
-0.00811825
1.2276e-05
-0.00868098
1.3005e-05
-0.00924456
1.34578e-05
-0.00980855
1.3613e-05
-0.0103735
1.33441e-05
-0.0109388
1.26892e-05
-0.0115052
1.14322e-05
-0.0120723
9.75783e-06
-0.0126396
7.14878e-06
-0.0132099
3.93596e-06
-0.000279347
-0.000838074
9.35157e-08
-0.00139683
3.73015e-07
-0.00195577
8.3277e-07
-0.0025147
1.46419e-06
-0.00307395
2.25174e-06
-0.00363322
3.18012e-06
-0.00419287
4.22323e-06
-0.00475268
5.36048e-06
-0.00531276
6.5553e-06
-0.00587328
7.782e-06
-0.00643398
8.99463e-06
-0.00699529
1.01596e-05
-0.00755676
1.12274e-05
-0.00811898
1.21495e-05
-0.00868144
1.28804e-05
-0.00924471
1.33404e-05
-0.00980828
1.35058e-05
-0.0103728
1.32488e-05
-0.0109375
1.25999e-05
-0.0115036
1.13459e-05
-0.0120697
9.6474e-06
-0.0126368
7.09034e-06
-0.0132055
4.19781e-06
-0.00027944
-0.000838354
9.19867e-08
-0.00139729
3.6694e-07
-0.0019564
8.19274e-07
-0.00251549
1.44062e-06
-0.00307488
2.21567e-06
-0.00363426
3.12947e-06
-0.00419401
4.15625e-06
-0.00475387
5.27583e-06
-0.00531399
6.45201e-06
-0.00587449
7.65975e-06
-0.00643514
8.85368e-06
-0.00699635
1.00015e-05
-0.00755769
1.10546e-05
-0.0081197
1.19667e-05
-0.0086819
1.26932e-05
-0.00924487
1.31569e-05
-0.00980802
1.33336e-05
-0.0103722
1.30949e-05
-0.0109363
1.24664e-05
-0.0115019
1.12348e-05
-0.0120672
9.54592e-06
-0.0126339
7.01711e-06
-0.0132014
4.16433e-06
-0.000279532
-0.000838629
9.0083e-08
-0.00139775
3.59382e-07
-0.00195702
8.02515e-07
-0.00251626
1.41141e-06
-0.0030758
2.17116e-06
-0.00363529
3.06725e-06
-0.00419513
4.07441e-06
-0.00475505
5.17298e-06
-0.0053152
6.32718e-06
-0.00587568
7.51256e-06
-0.00643629
8.68413e-06
-0.00699741
9.81054e-06
-0.0075586
1.08439e-05
-0.00812043
1.17398e-05
-0.00868237
1.2455e-05
-0.00924504
1.2916e-05
-0.00980778
1.30999e-05
-0.0103715
1.28804e-05
-0.0109351
1.22812e-05
-0.0115002
1.10887e-05
-0.0120646
9.43595e-06
-0.012631
6.93775e-06
-0.0131972
4.11819e-06
-0.000279623
-0.000838899
8.78627e-08
-0.00139819
3.50568e-07
-0.00195763
7.82971e-07
-0.00251702
1.37737e-06
-0.00307669
2.11935e-06
-0.00363629
2.99496e-06
-0.00419623
3.97959e-06
-0.0047562
5.0543e-06
-0.00531638
6.18392e-06
-0.00587686
7.34464e-06
-0.00643742
8.49184e-06
-0.00699844
9.59483e-06
-0.0075595
1.06058e-05
-0.00812114
1.14819e-05
-0.00868283
1.21802e-05
-0.00924522
1.2632e-05
-0.00980756
1.28158e-05
-0.0103709
1.26101e-05
-0.0109339
1.20407e-05
-0.0114985
1.08949e-05
-0.0120621
9.29284e-06
-0.0126282
6.85744e-06
-0.0131931
4.06382e-06
-0.000279711
-0.000839162
8.54e-08
-0.00139862
3.40786e-07
-0.00195822
7.61257e-07
-0.00251776
1.3395e-06
-0.00307757
2.06163e-06
-0.00363728
2.91438e-06
-0.0041973
3.87391e-06
-0.00475733
4.92214e-06
-0.00531755
6.02484e-06
-0.005878
7.15901e-06
-0.00643852
8.28066e-06
-0.00699945
9.35966e-06
-0.00756037
1.03481e-05
-0.00812184
1.12037e-05
-0.00868328
1.1883e-05
-0.0092454
1.23213e-05
-0.00980735
1.2498e-05
-0.0103703
1.22977e-05
-0.0109327
1.17505e-05
-0.0114969
1.06493e-05
-0.0120597
9.11081e-06
-0.0126254
6.77524e-06
-0.013189
4.00406e-06
-0.000279796
-0.000839417
8.27778e-08
-0.00139904
3.30359e-07
-0.0019588
7.38065e-07
-0.00251848
1.29896e-06
-0.00307842
1.99968e-06
-0.00363824
2.82764e-06
-0.00419835
3.75985e-06
-0.00475843
4.77919e-06
-0.00531868
5.85258e-06
-0.00587912
6.95819e-06
-0.0064396
8.053e-06
-0.00700044
9.10768e-06
-0.00756123
1.00742e-05
-0.00812252
1.09109e-05
-0.00868372
1.15729e-05
-0.00924557
1.19982e-05
-0.00980715
1.21654e-05
-0.0103698
1.19639e-05
-0.0109316
1.14267e-05
-0.0114954
1.03562e-05
-0.0120574
8.87668e-06
-0.0126227
6.64876e-06
-0.013185
3.92716e-06
-0.000279879
-0.000839665
8.00727e-08
-0.00139945
3.19587e-07
-0.00195936
7.14058e-07
-0.00251918
1.25688e-06
-0.00307925
1.93516e-06
-0.00363917
2.73697e-06
-0.00419937
3.64011e-06
-0.0047595
4.62846e-06
-0.00531979
5.67016e-06
-0.00588022
6.74485e-06
-0.00644066
7.81084e-06
-0.0070014
8.84002e-06
-0.00756207
9.78478e-06
-0.00812319
1.06042e-05
-0.00868415
1.12524e-05
-0.00924573
1.16688e-05
-0.00980695
1.18305e-05
-0.0103693
1.16288e-05
-0.0109306
1.1096e-05
-0.0114939
1.0042e-05
-0.0120551
8.59406e-06
-0.0126199
6.42065e-06
-0.0131811
3.81666e-06
-0.000279959
-0.000839905
7.73429e-08
-0.00139985
3.08703e-07
-0.0019599
6.8975e-07
-0.00251986
1.21415e-06
-0.00308005
1.86947e-06
-0.00364007
2.64431e-06
-0.00420036
3.5172e-06
-0.00476054
4.47293e-06
-0.00532086
5.48082e-06
-0.00588128
6.52204e-06
-0.00644169
7.55658e-06
-0.00700234
8.55773e-06
-0.00756289
9.47898e-06
-0.00812384
1.02809e-05
-0.00868456
1.09177e-05
-0.00924589
1.13299e-05
-0.00980675
1.14938e-05
-0.0103687
1.12998e-05
-0.0109295
1.07777e-05
-0.0114925
9.74059e-06
-0.012053
8.31516e-06
-0.0126173
6.18792e-06
-0.0131773
3.67364e-06
-0.000280036
-0.000840136
7.46206e-08
-0.00140023
2.97836e-07
-0.00196043
6.65439e-07
-0.00252052
1.17134e-06
-0.00308082
1.80346e-06
-0.00364094
2.55095e-06
-0.00420131
3.39291e-06
-0.00476155
4.31493e-06
-0.0053219
5.28737e-06
-0.00588232
6.29284e-06
-0.00644269
7.29296e-06
-0.00700326
8.26263e-06
-0.00756369
9.15669e-06
-0.00812449
9.93815e-06
-0.00868498
1.05626e-05
-0.00924605
1.09722e-05
-0.00980656
1.11443e-05
-0.0103682
1.09673e-05
-0.0109285
1.04691e-05
-0.011491
9.45887e-06
-0.0120508
8.06083e-06
-0.0126148
5.97094e-06
-0.0131736
3.48758e-06
-0.000280111
-0.000840359
7.19054e-08
-0.00140059
2.86987e-07
-0.00196093
6.41138e-07
-0.00252115
1.12847e-06
-0.00308157
1.73728e-06
-0.00364178
2.45717e-06
-0.00420224
3.26778e-06
-0.00476252
4.15535e-06
-0.00532291
5.09117e-06
-0.00588332
6.05902e-06
-0.00644366
7.02199e-06
-0.00700416
7.95642e-06
-0.00756448
8.81858e-06
-0.00812512
9.57443e-06
-0.00868538
1.0182e-05
-0.00924622
1.05854e-05
-0.00980638
1.07659e-05
-0.0103677
1.06097e-05
-0.0109275
1.0149e-05
-0.0114897
9.18224e-06
-0.0120487
7.83868e-06
-0.0126124
5.79116e-06
-0.0131701
3.31412e-06
-0.000280183
-0.000840574
6.91752e-08
-0.00140095
2.76071e-07
-0.00196142
6.16663e-07
-0.00252176
1.08525e-06
-0.00308229
1.67048e-06
-0.00364259
2.36241e-06
-0.00420313
3.14121e-06
-0.00476346
3.99364e-06
-0.00532388
4.89189e-06
-0.00588428
5.82062e-06
-0.00644459
6.74415e-06
-0.00700502
7.63996e-06
-0.00756523
8.46567e-06
-0.00812574
9.18998e-06
-0.00868578
9.774e-06
-0.0092464
1.01634e-05
-0.00980622
1.03453e-05
-0.0103672
1.0204e-05
-0.0109265
9.78365e-06
-0.0114883
8.86849e-06
-0.0120467
7.61198e-06
-0.0126099
5.64683e-06
-0.0131668
3.28934e-06
-0.000280252
-0.000840781
6.63796e-08
-0.00140129
2.64892e-07
-0.00196189
5.91583e-07
-0.00252234
1.04091e-06
-0.00308298
1.60191e-06
-0.00364337
2.26508e-06
-0.00420398
3.01112e-06
-0.00476436
3.82731e-06
-0.00532481
4.68673e-06
-0.0058852
5.57468e-06
-0.00644548
6.45667e-06
-0.00700585
7.31084e-06
-0.00756596
8.09625e-06
-0.00812633
8.7836e-06
-0.00868617
9.33728e-06
-0.00924659
9.70338e-06
-0.00980607
9.87546e-06
-0.0103668
9.73609e-06
-0.0109256
9.34551e-06
-0.0114871
8.47241e-06
-0.0120447
7.30801e-06
-0.0126075
5.43785e-06
-0.0131635
3.22387e-06
-0.000280319
-0.00084098
6.34495e-08
-0.00140161
2.53164e-07
-0.00196234
5.65262e-07
-0.0025229
9.94354e-07
-0.00308365
1.52985e-06
-0.00364412
2.16274e-06
-0.0042048
2.87422e-06
-0.00476522
3.65226e-06
-0.00532569
4.47059e-06
-0.00588608
5.31551e-06
-0.00644634
6.15295e-06
-0.00700663
6.96279e-06
-0.00756665
7.7036e-06
-0.00812689
8.35044e-06
-0.00868653
8.86644e-06
-0.00924676
9.20322e-06
-0.00980592
9.35078e-06
-0.0103664
9.2026e-06
-0.0109247
8.81872e-06
-0.0114859
7.97601e-06
-0.0120429
6.88067e-06
-0.0126053
5.10714e-06
-0.0131603
3.0412e-06
-0.000280382
-0.000841169
6.06369e-08
-0.00140193
2.41893e-07
-0.00196277
5.39973e-07
-0.00252344
9.49638e-07
-0.00308428
1.46067e-06
-0.00364483
2.06458e-06
-0.00420558
2.74307e-06
-0.00476603
3.48495e-06
-0.00532654
4.2644e-06
-0.00588692
5.06915e-06
-0.00644715
5.86489e-06
-0.00700738
6.6344e-06
-0.00756729
7.33429e-06
-0.00812742
7.94609e-06
-0.00868686
8.42776e-06
-0.00924691
8.74095e-06
-0.00980576
8.86329e-06
-0.010366
8.70947e-06
-0.0109239
8.3216e-06
-0.0114848
7.50876e-06
-0.0120411
6.45656e-06
-0.0126033
4.76925e-06
-0.0131572
2.81414e-06
-0.000280443
-0.000841351
5.81488e-08
-0.00140222
2.31933e-07
-0.00196318
5.17656e-07
-0.00252395
9.10239e-07
-0.00308488
1.39984e-06
-0.00364551
1.97849e-06
-0.00420632
2.62852e-06
-0.00476681
3.33943e-06
-0.00532734
4.08636e-06
-0.00588771
4.85759e-06
-0.00644792
5.62016e-06
-0.00700808
6.35751e-06
-0.0075679
7.02844e-06
-0.00812791
7.61481e-06
-0.00868717
8.0782e-06
-0.00924704
8.37758e-06
-0.0098056
8.49579e-06
-0.0103657
8.34336e-06
-0.010923
7.97344e-06
-0.0114837
7.18843e-06
-0.0120394
6.19672e-06
-0.0126013
4.56811e-06
-0.0131544
2.73684e-06
-0.000280501
-0.000841524
5.54498e-08
-0.00140251
2.21141e-07
-0.00196357
4.93508e-07
-0.00252444
8.67648e-07
-0.00308546
1.33413e-06
-0.00364616
1.8855e-06
-0.00420703
2.50478e-06
-0.00476756
3.18221e-06
-0.00532811
3.89395e-06
-0.00588847
4.62881e-06
-0.00644865
5.35535e-06
-0.00700875
6.05762e-06
-0.00756849
6.6974e-06
-0.00812837
7.25584e-06
-0.00868747
7.69939e-06
-0.00924717
7.98323e-06
-0.00980544
8.09964e-06
-0.0103653
7.95e-06
-0.0109222
7.60087e-06
-0.0114827
6.84245e-06
-0.0120378
5.89626e-06
-0.0125995
4.31656e-06
-0.0131517
2.65382e-06
-0.000280556
-0.00084169
5.2509e-08
-0.00140278
2.09396e-07
-0.00196394
4.67273e-07
-0.0025249
8.2145e-07
-0.00308601
1.26292e-06
-0.00364677
1.78484e-06
-0.00420771
2.37092e-06
-0.00476827
3.01219e-06
-0.00532885
3.68589e-06
-0.0058892
4.38137e-06
-0.00644935
5.06885e-06
-0.0070094
5.73313e-06
-0.00756904
6.33935e-06
-0.00812882
6.86715e-06
-0.00868776
7.28805e-06
-0.00924729
7.55386e-06
-0.00980528
7.67015e-06
-0.010365
7.52709e-06
-0.0109215
7.20816e-06
-0.0114818
6.48242e-06
-0.0120362
5.57176e-06
-0.0125978
4.02134e-06
-0.013149
2.45011e-06
-0.000280609
-0.000841846
4.93007e-08
-0.00140304
1.96602e-07
-0.0019643
4.38748e-07
-0.00252534
7.71306e-07
-0.00308653
1.18574e-06
-0.00364736
1.67588e-06
-0.00420835
2.2262e-06
-0.00476895
2.82855e-06
-0.00532954
3.46128e-06
-0.00588988
4.11423e-06
-0.00645002
4.75975e-06
-0.00701001
5.38313e-06
-0.00756957
5.95386e-06
-0.00812924
6.4483e-06
-0.00868803
6.8438e-06
-0.00924741
7.08775e-06
-0.00980513
7.20448e-06
-0.0103647
7.06825e-06
-0.0109207
6.78855e-06
-0.0114809
6.1027e-06
-0.0120347
5.27606e-06
-0.0125963
4.02765e-06
-0.0131465
2.30233e-06
-0.000280658
-0.000841993
4.58059e-08
-0.00140328
1.82684e-07
-0.00196463
4.07758e-07
-0.00252576
7.16913e-07
-0.00308702
1.10214e-06
-0.00364791
1.55801e-06
-0.00420895
2.06986e-06
-0.00476958
2.63035e-06
-0.0053302
3.21907e-06
-0.00589053
3.82615e-06
-0.00645064
4.42676e-06
-0.00701058
5.00633e-06
-0.00757007
5.54005e-06
-0.00812964
5.99875e-06
-0.00868829
6.36695e-06
-0.00924753
6.58569e-06
-0.00980499
6.70442e-06
-0.0103644
6.57215e-06
-0.0109201
6.32521e-06
-0.01148
5.67479e-06
-0.0120331
4.96655e-06
-0.0125948
3.60847e-06
-0.0131442
2.15129e-06
-0.000280704
-0.00084213
4.20184e-08
-0.00140351
1.67613e-07
-0.00196494
3.74216e-07
-0.00252614
6.58075e-07
-0.00308748
1.01177e-06
-0.00364842
1.43073e-06
-0.00420951
1.90123e-06
-0.00477017
2.41678e-06
-0.0053308
2.95826e-06
-0.00589113
3.51588e-06
-0.00645122
4.06854e-06
-0.00701111
4.60114e-06
-0.00757052
5.09659e-06
-0.00813001
5.51718e-06
-0.00868852
5.85703e-06
-0.00924764
6.04821e-06
-0.00980486
6.1748e-06
-0.0103641
6.0436e-06
-0.0109194
5.81825e-06
-0.0114793
5.17179e-06
-0.0120318
4.60021e-06
-0.0125934
3.31195e-06
-0.0131421
1.97622e-06
-0.000280745
-0.000842256
3.79541e-08
-0.00140371
1.51426e-07
-0.00196522
3.3815e-07
-0.0025265
5.94779e-07
-0.0030879
9.1454e-07
-0.00364889
1.29387e-06
-0.00421003
1.72e-06
-0.00477071
2.18737e-06
-0.00533136
2.67826e-06
-0.00589169
3.18254e-06
-0.00645175
3.68415e-06
-0.0070116
4.1662e-06
-0.00757094
4.62231e-06
-0.00813035
5.00186e-06
-0.00868873
5.31355e-06
-0.00924776
5.47495e-06
-0.00980473
5.61548e-06
-0.0103639
5.48148e-06
-0.0109188
5.32822e-06
-0.0114787
5.02152e-06
-0.0120305
4.09493e-06
-0.012592
3.0102e-06
-0.0131401
1.78945e-06
-0.000280783
-0.000842369
3.36443e-08
-0.0014039
1.34219e-07
-0.00196548
2.99718e-07
-0.00252681
5.27229e-07
-0.00308828
8.10635e-07
-0.00364932
1.14759e-06
-0.00421049
1.52636e-06
-0.0047712
1.94224e-06
-0.00533187
2.37914e-06
-0.00589219
2.82593e-06
-0.00645223
3.27353e-06
-0.00701206
3.701e-06
-0.00757132
4.11706e-06
-0.00813067
4.45117e-06
-0.0086889
4.73846e-06
-0.00924788
4.86671e-06
-0.00980461
5.02417e-06
-0.0103637
4.87614e-06
-0.0109181
4.81535e-06
-0.0114782
4.32956e-06
-0.0120294
3.66489e-06
-0.0125908
2.73085e-06
-0.0131383
1.61307e-06
-0.000280817
-0.000842469
2.9111e-08
-0.00140406
1.16081e-07
-0.00196571
2.59109e-07
-0.0025271
4.55749e-07
-0.00308861
7.00486e-07
-0.00364969
9.92514e-07
-0.00421091
1.3211e-06
-0.00477164
1.68231e-06
-0.00533232
2.06192e-06
-0.00589264
2.44683e-06
-0.00645266
2.83824e-06
-0.00701247
3.20629e-06
-0.00757165
3.58313e-06
-0.00813097
3.86336e-06
-0.00868905
4.13785e-06
-0.00924802
4.22627e-06
-0.00980446
4.4259e-06
-0.0103637
4.56144e-06
-0.0109175
4.14362e-06
-0.0114776
3.74457e-06
-0.0120285
3.20262e-06
-0.0125897
2.39796e-06
-0.0131367
1.41581e-06
-0.000280846
-0.000842556
2.43219e-08
-0.00140421
9.70298e-08
-0.0019659
2.16508e-07
-0.00252734
3.80798e-07
-0.00308891
5.84894e-07
-0.00365002
8.29711e-07