/*--------------------------------*- C++ -*----------------------------------*\
  =========                 |
  \\      /  F ield         | OpenFOAM: The Open Source CFD Toolbox
   \\    /   O peration     | Website:  https://openfoam.org
    \\  /    A nd           | Version:  10
     \\/     M anipulation  |
\*---------------------------------------------------------------------------*/
FoamFile
{
    format      ascii;
    class       volScalarField;
    location    "0.46";
    object      rho;
}
// * * * * * * * * * * * * * * * * * * * * * * * * * * * * * * * * * * * * * //

dimensions      [1 -3 0 0 0 0 0];

internalField   nonuniform List<scalar> 
4176
(
0.0308487
0.0308517
0.0308579
0.0308682
0.0308814
0.0308977
0.0309187
0.0309401
0.0309693
0.0309955
0.0310323
0.0310647
0.0311068
0.0311475
0.0311925
0.0312439
0.0312871
0.0313549
0.0313934
0.0314789
0.0315107
0.031616
0.031636
0.0317505
0.0308567
0.0308596
0.0308649
0.0308747
0.0308858
0.0309015
0.0309192
0.0309399
0.030965
0.0309899
0.031022
0.0310523
0.0310899
0.031127
0.0311682
0.0312141
0.0312541
0.0313144
0.0313501
0.0314266
0.0314539
0.0315541
0.0315746
0.0317038
0.030876
0.0308789
0.0308845
0.0308946
0.0309063
0.0309223
0.030941
0.0309621
0.0309885
0.031014
0.0310477
0.0310787
0.0311182
0.0311562
0.0311996
0.0312468
0.0312891
0.031352
0.0313878
0.031468
0.0314956
0.0315945
0.0316131
0.0317345
0.0309047
0.0309076
0.030913
0.0309228
0.0309342
0.0309498
0.030968
0.0309883
0.0310142
0.0310387
0.031072
0.0311016
0.0311407
0.031177
0.0312201
0.0312654
0.0313074
0.0313703
0.0314015
0.0314841
0.0315093
0.0316068
0.0316243
0.0317369
0.0309441
0.030947
0.0309524
0.0309623
0.0309735
0.0309893
0.0310073
0.0310279
0.0310535
0.0310784
0.0311112
0.0311412
0.0311801
0.0312165
0.0312597
0.0313044
0.0313483
0.0314081
0.031443
0.0315235
0.0315504
0.0316474
0.0316664
0.0317806
0.0309936
0.0309965
0.0310017
0.0310116
0.0310226
0.0310382
0.0310558
0.0310763
0.0311014
0.0311261
0.0311583
0.0311881
0.0312262
0.0312623
0.031305
0.0313488
0.0313931
0.0314499
0.0314882
0.0315647
0.0315925
0.0316883
0.0317081
0.0318239
0.0310535
0.0310564
0.0310616
0.0310714
0.0310822
0.0310978
0.0311152
0.0311355
0.0311603
0.0311848
0.0312168
0.0312463
0.0312842
0.0313197
0.0313624
0.0314053
0.0314499
0.0315051
0.0315442
0.0316188
0.0316478
0.0317421
0.0317622
0.031876
0.0311236
0.0311265
0.0311316
0.0311414
0.031152
0.0311674
0.0311846
0.0312047
0.0312292
0.0312534
0.0312849
0.031314
0.0313515
0.0313865
0.0314289
0.0314709
0.0315155
0.0315689
0.0316092
0.0316811
0.0317112
0.0318039
0.0318245
0.031937
0.0312041
0.031207
0.031212
0.0312217
0.0312322
0.0312475
0.0312644
0.0312843
0.0313084
0.0313324
0.0313635
0.0313922
0.0314293
0.0314637
0.0315058
0.031547
0.0315915
0.0316432
0.0316844
0.0317539
0.0317849
0.0318758
0.0318968
0.0320074
0.031295
0.0312978
0.0313027
0.0313124
0.0313227
0.0313378
0.0313545
0.0313742
0.0313979
0.0314215
0.0314522
0.0314805
0.0315171
0.0315509
0.0315926
0.0316329
0.0316773
0.0317274
0.0317692
0.0318363
0.0318684
0.0319567
0.0319783
0.0320872
0.0313962
0.0313991
0.0314039
0.0314134
0.0314236
0.0314386
0.0314549
0.0314744
0.0314978
0.031521
0.0315513
0.0315791
0.0316152
0.0316484
0.0316896
0.0317289
0.0317732
0.0318217
0.031864
0.0319287
0.0319619
0.0320473
0.0320696
0.0321764
0.031508
0.0315108
0.0315155
0.031525
0.0315349
0.0315497
0.0315658
0.031585
0.031608
0.0316309
0.0316607
0.031688
0.0317236
0.031756
0.0317968
0.0318351
0.031879
0.0319261
0.0319688
0.0320312
0.0320648
0.032148
0.0321704
0.0322751
0.0316303
0.0316331
0.0316377
0.031647
0.0316568
0.0316713
0.0316871
0.031706
0.0317286
0.0317511
0.0317804
0.0318072
0.0318423
0.0318739
0.0319142
0.0319515
0.031995
0.0320406
0.0320836
0.0321435
0.0321777
0.0322585
0.0322809
0.0323835
0.0317632
0.0317659
0.0317705
0.0317797
0.0317892
0.0318036
0.0318189
0.0318376
0.0318597
0.0318818
0.0319106
0.0319367
0.0319713
0.0320022
0.0320419
0.0320782
0.0321212
0.0321653
0.0322084
0.032266
0.0323008
0.0323787
0.0324013
0.0325015
0.0319068
0.0319095
0.031914
0.031923
0.0319323
0.0319464
0.0319615
0.0319797
0.0320014
0.032023
0.0320512
0.0320768
0.0321107
0.0321408
0.0321799
0.0322151
0.0322576
0.0323003
0.0323433
0.0323984
0.0324336
0.0325092
0.0325316
0.0326293
0.0320612
0.0320639
0.0320682
0.0320771
0.0320862
0.0321
0.0321147
0.0321325
0.0321537
0.0321748
0.0322024
0.0322274
0.0322606
0.0322899
0.0323283
0.0323625
0.0324044
0.0324455
0.0324883
0.032541
0.0325768
0.0326491
0.0326722
0.032767
0.0322265
0.0322292
0.0322333
0.0322421
0.0322509
0.0322645
0.0322787
0.0322962
0.0323168
0.0323373
0.0323643
0.0323886
0.0324211
0.0324495
0.0324872
0.0325202
0.0325615
0.0326011
0.0326436
0.0326939
0.0327299
0.0327995
0.0328228
0.0329147
0.0324027
0.0324054
0.0324094
0.0324181
0.0324265
0.0324399
0.0324536
0.0324707
0.0324908
0.0325107
0.032537
0.0325605
0.0325923
0.0326197
0.0326566
0.0326885
0.032729
0.0327671
0.0328091
0.032857
0.0328934
0.0329599
0.0329836
0.0330724
0.0325901
0.0325927
0.0325966
0.0326051
0.0326132
0.0326263
0.0326396
0.0326562
0.0326757
0.0326949
0.0327205
0.0327432
0.0327742
0.0328006
0.0328366
0.0328673
0.032907
0.0329435
0.032985
0.0330306
0.0330671
0.0331307
0.0331546
0.0332402
0.0327887
0.0327913
0.032795
0.0328033
0.0328111
0.0328238
0.0328366
0.0328527
0.0328716
0.0328902
0.032915
0.0329368
0.0329669
0.0329923
0.0330274
0.0330568
0.0330957
0.0331306
0.0331714
0.0332146
0.0332512
0.0333117
0.033336
0.0334183
0.0329986
0.0330011
0.0330047
0.0330128
0.0330202
0.0330325
0.0330449
0.0330604
0.0330786
0.0330965
0.0331206
0.0331415
0.0331707
0.033195
0.0332291
0.0332572
0.033295
0.0333283
0.0333684
0.0334093
0.0334458
0.0335031
0.0335278
0.0336067
0.0332198
0.0332224
0.0332258
0.0332336
0.0332407
0.0332526
0.0332644
0.0332794
0.0332969
0.0333141
0.0333373
0.0333573
0.0333855
0.0334087
0.0334417
0.0334685
0.0335053
0.0335368
0.033576
0.0336146
0.033651
0.0337051
0.03373
0.0338055
0.0334527
0.0334551
0.0334583
0.033466
0.0334726
0.0334842
0.0334954
0.0335098
0.0335265
0.0335429
0.0335653
0.0335843
0.0336116
0.0336336
0.0336655
0.0336908
0.0337265
0.0337563
0.0337945
0.0338308
0.033867
0.0339177
0.0339428
0.0340147
0.033697
0.0336995
0.0337025
0.0337099
0.0337162
0.0337272
0.0337378
0.0337516
0.0337676
0.0337832
0.0338046
0.0338227
0.0338489
0.0338697
0.0339004
0.0339243
0.0339589
0.0339869
0.0340241
0.034058
0.0340938
0.0341412
0.0341663
0.0342344
0.0339531
0.0339555
0.0339583
0.0339655
0.0339713
0.033982
0.0339919
0.0340051
0.0340202
0.034035
0.0340555
0.0340725
0.0340976
0.0341171
0.0341467
0.0341691
0.0342025
0.0342287
0.0342647
0.0342963
0.0343316
0.0343757
0.0344007
0.0344649
0.034221
0.0342233
0.0342259
0.0342328
0.0342382
0.0342484
0.0342578
0.0342702
0.0342846
0.0342984
0.0343179
0.0343338
0.0343578
0.0343761
0.0344044
0.0344253
0.0344574
0.0344818
0.0345166
0.0345459
0.0345805
0.0346212
0.0346461
0.0347064
0.0345007
0.0345029
0.0345053
0.034512
0.034517
0.0345267
0.0345354
0.0345472
0.0345607
0.0345737
0.0345921
0.0346069
0.0346297
0.0346466
0.0346737
0.034693
0.0347239
0.0347463
0.0347799
0.0348068
0.0348406
0.0348779
0.0349027
0.0349594
0.0347923
0.0347945
0.0347967
0.0348031
0.0348077
0.0348169
0.0348249
0.0348361
0.0348487
0.0348607
0.0348781
0.0348918
0.0349134
0.0349289
0.0349546
0.0349724
0.0350019
0.0350224
0.0350547
0.0350793
0.0351121
0.0351459
0.0351705
0.0352233
0.0350959
0.0350981
0.0351001
0.0351062
0.0351103
0.0351192
0.0351265
0.0351369
0.0351487
0.0351598
0.0351761
0.0351886
0.035209
0.0352231
0.0352474
0.0352635
0.0352916
0.0353102
0.0353412
0.0353633
0.0353952
0.0354253
0.0354498
0.0354987
0.0354117
0.0354138
0.0354156
0.0354215
0.0354251
0.0354335
0.0354401
0.0354499
0.0354607
0.0354709
0.0354862
0.0354975
0.0355166
0.0355293
0.0355522
0.0355666
0.0355932
0.0356098
0.0356394
0.0356591
0.0356899
0.0357165
0.0357411
0.0357851
0.0357397
0.0357418
0.0357433
0.035749
0.0357521
0.03576
0.035766
0.035775
0.035785
0.0357942
0.0358084
0.0358185
0.0358364
0.0358476
0.0358692
0.0358818
0.0359069
0.0359214
0.0359495
0.0359668
0.0359965
0.0360196
0.0360442
0.0360835
0.03608
0.036082
0.0360834
0.0360887
0.0360914
0.0360988
0.0361041
0.0361124
0.0361215
0.0361298
0.0361429
0.0361518
0.0361684
0.0361782
0.0361983
0.0362093
0.0362328
0.0362452
0.0362718
0.0362866
0.0363149
0.036335
0.0363589
0.0363941
0.0364327
0.0364346
0.0364358
0.0364408
0.0364431
0.03645
0.0364545
0.0364622
0.0364703
0.0364777
0.0364897
0.0364974
0.0365128
0.0365211
0.0365399
0.0365491
0.0365711
0.0365814
0.0366065
0.0366186
0.0366456
0.0366623
0.0366861
0.0367164
0.0367978
0.0367997
0.0368007
0.0368055
0.0368072
0.0368136
0.0368175
0.0368244
0.0368317
0.0368381
0.036849
0.0368555
0.0368697
0.0368765
0.0368939
0.0369013
0.0369219
0.03693
0.0369536
0.0369632
0.0369886
0.0370022
0.0370255
0.0370511
0.0371755
0.0371774
0.0371781
0.0371826
0.037184
0.0371899
0.0371931
0.0371993
0.0372056
0.0372111
0.0372209
0.0372262
0.0372391
0.0372445
0.0372605
0.0372662
0.0372853
0.0372913
0.0373133
0.0373203
0.0373444
0.0373544
0.0373773
0.0373982
0.0375659
0.0375677
0.0375682
0.0375725
0.0375734
0.0375788
0.0375813
0.0375868
0.0375923
0.0375968
0.0376055
0.0376096
0.0376212
0.0376251
0.0376398
0.0376437
0.0376613
0.0376652
0.0376858
0.0376902
0.0377127
0.0377197
0.0377415
0.0377577
0.0379689
0.0379707
0.037971
0.0379751
0.0379755
0.0379805
0.0379823
0.0379872
0.0379917
0.0379953
0.038003
0.0380058
0.0380162
0.0380186
0.0380319
0.0380339
0.0380501
0.0380518
0.0380709
0.0380729
0.0380941
0.0380978
0.0381185
0.0381299
0.0383849
0.0383866
0.0383867
0.0383906
0.0383905
0.0383951
0.0383963
0.0384005
0.0384041
0.0384068
0.0384133
0.038415
0.0384241
0.0384251
0.038437
0.0384371
0.0384518
0.0384514
0.038469
0.0384684
0.0384882
0.0384888
0.0385085
0.038515
0.0388138
0.0388155
0.0388154
0.038819
0.0388186
0.0388227
0.0388232
0.0388267
0.0388295
0.0388313
0.0388368
0.0388373
0.0388451
0.0388446
0.0388551
0.0388534
0.0388666
0.0388639
0.03888
0.0388768
0.0388952
0.0388927
0.0389115
0.0389132
0.0392559
0.0392575
0.0392572
0.0392606
0.0392597
0.0392634
0.0392632
0.0392661
0.039268
0.0392689
0.0392733
0.0392727
0.0392793
0.0392773
0.0392865
0.0392829
0.0392946
0.0392897
0.0393043
0.0392983
0.0393154
0.0393096
0.0393274
0.0393249
0.0397112
0.0397128
0.0397123
0.0397154
0.0397141
0.0397173
0.0397165
0.0397187
0.0397198
0.0397197
0.0397231
0.0397213
0.0397267
0.0397233
0.0397311
0.0397256
0.0397359
0.0397287
0.0397419
0.0397331
0.0397487
0.0397397
0.0397562
0.03975
0.0401798
0.0401814
0.0401807
0.0401836
0.0401818
0.0401846
0.0401831
0.0401847
0.0401849
0.0401839
0.0401863
0.0401833
0.0401875
0.0401826
0.0401891
0.0401818
0.0401907
0.0401812
0.0401931
0.0401813
0.0401958
0.0401831
0.0401986
0.040188
0.0406619
0.0406635
0.0406626
0.0406652
0.040663
0.0406654
0.0406632
0.0406641
0.0406634
0.0406615
0.0406629
0.0406587
0.0406617
0.0406553
0.0406606
0.0406513
0.040659
0.0406471
0.0406578
0.0406431
0.0406564
0.0406401
0.0406547
0.0406394
0.0411576
0.0411592
0.041158
0.0411605
0.0411577
0.0411597
0.0411568
0.0411571
0.0411555
0.0411527
0.041153
0.0411476
0.0411494
0.0411415
0.0411455
0.0411344
0.0411408
0.0411265
0.0411361
0.0411184
0.0411308
0.0411108
0.0411246
0.0411046
0.041667
0.0416685
0.0416672
0.0416694
0.0416662
0.0416677
0.0416641
0.0416638
0.0416612
0.0416576
0.0416567
0.0416502
0.0416508
0.0416414
0.0416441
0.0416311
0.0416361
0.0416195
0.0416279
0.0416073
0.0416188
0.0415952
0.0416084
0.0415839
0.0421902
0.0421916
0.0421901
0.042192
0.0421884
0.0421895
0.0421852
0.0421841
0.0421807
0.0421761
0.0421742
0.0421665
0.0421658
0.0421549
0.0421563
0.0421415
0.0421451
0.0421262
0.0421335
0.0421098
0.0421206
0.0420931
0.042106
0.0420765
0.0427271
0.0427285
0.0427268
0.0427285
0.0427244
0.042725
0.04272
0.0427183
0.042714
0.0427085
0.0427055
0.0426966
0.0426947
0.0426822
0.0426823
0.0426656
0.042668
0.0426466
0.0426528
0.042626
0.042636
0.0426047
0.0426176
0.0425829
0.0432779
0.0432793
0.0432773
0.0432788
0.0432742
0.0432744
0.0432687
0.0432663
0.0432611
0.0432546
0.0432506
0.0432404
0.0432374
0.0432234
0.0432222
0.0432036
0.0432047
0.0431808
0.043186
0.043156
0.0431653
0.0431298
0.0431432
0.0431033
0.0438426
0.0438439
0.0438417
0.043843
0.0438379
0.0438377
0.0438313
0.0438282
0.0438221
0.0438147
0.0438096
0.0437982
0.043794
0.0437784
0.043776
0.0437554
0.0437553
0.0437289
0.0437333
0.0436999
0.0437086
0.0436685
0.0436829
0.0436376
0.044421
0.0444223
0.0444199
0.044421
0.0444154
0.0444148
0.0444077
0.0444039
0.0443969
0.0443886
0.0443825
0.0443698
0.0443644
0.0443473
0.0443436
0.0443211
0.0443199
0.0442909
0.0442945
0.0442577
0.0442664
0.0442216
0.044236
0.044186
0.0450132
0.0450145
0.0450119
0.0450127
0.0450067
0.0450056
0.0449978
0.0449934
0.0449856
0.0449763
0.0449692
0.0449553
0.0449488
0.04493
0.0449253
0.0449007
0.0448986
0.0448668
0.0448698
0.0448292
0.0448386
0.0447888
0.044803
0.0447486
0.0456191
0.0456203
0.0456176
0.0456182
0.0456117
0.0456102
0.0456017
0.0455967
0.045588
0.0455778
0.0455698
0.0455545
0.0455471
0.0455266
0.0455209
0.0454941
0.0454913
0.0454567
0.0454594
0.0454142
0.0454245
0.0453704
0.0453844
0.0453254
0.0462385
0.0462397
0.0462368
0.0462372
0.0462302
0.0462284
0.0462193
0.0462136
0.0462042
0.046193
0.0461841
0.0461675
0.0461593
0.046137
0.0461305
0.0461012
0.0460983
0.04606
0.0460635
0.046014
0.0460238
0.0459664
0.0459796
0.0459165
0.0468714
0.0468726
0.0468694
0.0468696
0.0468622
0.0468601
0.0468503
0.046844
0.0468338
0.0468217
0.0468121
0.0467941
0.0467853
0.0467609
0.0467542
0.046722
0.0467195
0.046677
0.0466813
0.0466285
0.046637
0.0465765
0.0465892
0.0465219
0.0475174
0.0475186
0.0475153
0.0475153
0.0475075
0.0475051
0.0474947
0.0474878
0.047477
0.0474638
0.0474537
0.0474341
0.0474251
0.0473983
0.0473919
0.0473563
0.0473545
0.0473089
0.0473119
0.0472569
0.0472646
0.047201
0.0472128
0.0471416
0.0481765
0.0481778
0.0481742
0.0481741
0.0481659
0.0481632
0.0481522
0.0481448
0.0481334
0.0481191
0.0481089
0.0480873
0.0480788
0.048049
0.0480434
0.0480048
0.0480022
0.0479551
0.0479565
0.0478996
0.0479058
0.0478396
0.0478507
0.0477756
0.0488484
0.0488497
0.048846
0.0488459
0.0488372
0.0488343
0.0488227
0.0488148
0.0488031
0.0487874
0.0487776
0.0487535
0.0487457
0.0487134
0.0487074
0.0486675
0.0486636
0.0486147
0.0486152
0.048556
0.0485613
0.0484923
0.0485026
0.0484239
0.0495329
0.0495343
0.0495302
0.0495303
0.0495211
0.0495182
0.049506
0.0494973
0.0494859
0.0494686
0.0494588
0.0494337
0.0494248
0.0493919
0.0493845
0.0493436
0.0493386
0.0492885
0.0492871
0.0492266
0.0492303
0.049159
0.0491685
0.0490864
0.0502298
0.0502313
0.0502269
0.0502272
0.0502173
0.0502147
0.0502018
0.050193
0.0501808
0.0501631
0.0501525
0.0501268
0.0501171
0.0500834
0.0500748
0.0500331
0.0500267
0.0499752
0.049973
0.0499105
0.0499134
0.0498395
0.0498483
0.0497629
0.0509389
0.0509405
0.050936
0.0509361
0.0509262
0.0509232
0.0509096
0.0509015
0.0508879
0.0508703
0.0508589
0.0508326
0.050822
0.0507877
0.0507782
0.0507355
0.0507282
0.0506757
0.0506718
0.0506082
0.0506098
0.0505339
0.0505419
0.0504534
0.05166
0.0516616
0.0516572
0.0516571
0.0516471
0.0516439
0.0516299
0.051622
0.0516069
0.0515903
0.0515774
0.051551
0.0515396
0.0515048
0.0514941
0.0514511
0.0514424
0.0513888
0.0513842
0.0513189
0.0513197
0.0512416
0.051249
0.0511576
0.052393
0.0523946
0.0523902
0.05239
0.0523799
0.0523766
0.0523624
0.0523544
0.0523384
0.0523224
0.0523077
0.0522822
0.0522694
0.0522343
0.0522227
0.052179
0.0521695
0.0521151
0.0521091
0.0520428
0.0520424
0.0519627
0.0519693
0.0518752
0.0531377
0.0531394
0.0531349
0.0531347
0.0531244
0.0531212
0.0531066
0.0530987
0.053082
0.0530663
0.0530504
0.0530254
0.0530111
0.0529762
0.0529636
0.0529195
0.0529089
0.0528536
0.0528468
0.0527792
0.052778
0.0526965
0.0527025
0.052606
0.0538941
0.0538958
0.0538913
0.0538912
0.0538807
0.0538774
0.0538627
0.0538546
0.0538374
0.053822
0.0538051
0.0537805
0.053765
0.05373
0.0537166
0.0536719
0.0536604
0.0536045
0.0535967
0.0535281
0.0535259
0.0534431
0.0534483
0.0533496
0.0546622
0.0546639
0.0546594
0.0546593
0.0546487
0.0546454
0.0546303
0.0546223
0.0546046
0.0545893
0.0545716
0.0545471
0.0545306
0.0544958
0.0544813
0.0544359
0.0544237
0.0543672
0.0543585
0.0542889
0.0542859
0.0542016
0.0542062
0.0541057
0.0554419
0.0554437
0.0554391
0.0554391
0.0554283
0.055425
0.0554096
0.0554015
0.0553834
0.0553682
0.0553495
0.0553252
0.0553076
0.0552728
0.0552576
0.0552113
0.0551985
0.0551413
0.0551317
0.0550614
0.0550574
0.0549722
0.0549759
0.0548736
0.0562334
0.0562352
0.0562305
0.0562305
0.0562195
0.0562161
0.0562004
0.0561921
0.0561735
0.0561583
0.0561387
0.0561144
0.0560959
0.0560607
0.0560449
0.0559979
0.0559844
0.0559264
0.0559161
0.0558451
0.0558402
0.0557537
0.0557569
0.0556532
0.0570364
0.0570384
0.0570335
0.0570335
0.0570221
0.0570187
0.0570025
0.056994
0.0569748
0.0569593
0.0569387
0.0569146
0.0568948
0.0568596
0.056843
0.056795
0.0567812
0.0567223
0.0567111
0.0566396
0.0566337
0.0565466
0.0565489
0.0564439
0.0578509
0.057853
0.0578478
0.0578478
0.057836
0.0578323
0.0578156
0.0578067
0.0577869
0.0577711
0.0577493
0.0577253
0.0577042
0.0576688
0.0576511
0.0576027
0.0575884
0.0575284
0.0575165
0.0574445
0.0574377
0.0573497
0.0573516
0.0572456
0.0586763
0.0586784
0.058673
0.0586727
0.0586606
0.0586565
0.0586392
0.0586298
0.0586092
0.058593
0.0585701
0.0585461
0.0585232
0.0584885
0.0584687
0.0584208
0.0584055
0.0583444
0.058332
0.0582595
0.0582519
0.0581636
0.0581646
0.0580578
0.0595114
0.0595135
0.059508
0.0595074
0.059495
0.0594903
0.0594725
0.0594626
0.0594413
0.0594244
0.0594005
0.0593766
0.0593519
0.0593177
0.0592958
0.0592487
0.059232
0.0591704
0.0591574
0.0590847
0.0590762
0.0589875
0.0589879
0.0588806
0.0603548
0.0603568
0.0603513
0.0603504
0.0603378
0.0603327
0.0603145
0.060304
0.0602821
0.0602647
0.0602401
0.060216
0.0601897
0.0601564
0.0601323
0.0600862
0.0600673
0.0600063
0.0599932
0.0599195
0.0599105
0.0598219
0.0598216
0.0597139
0.0612042
0.0612063
0.0612008
0.0611999
0.0611872
0.061182
0.0611637
0.061153
0.0611308
0.0611132
0.0610881
0.061064
0.0610365
0.061004
0.0609778
0.0609332
0.0609117
0.0608532
0.0608381
0.0607642
0.0607549
0.0606665
0.0606658
0.060558
0.0620576
0.0620597
0.0620545
0.0620537
0.0620413
0.0620363
0.0620183
0.0620079
0.061986
0.0619686
0.0619436
0.0619198
0.0618919
0.0618603
0.0618326
0.0617898
0.0617662
0.0617089
0.0616932
0.0616193
0.0616097
0.0615217
0.0615208
0.0614131
0.062913
0.0629153
0.0629104
0.0629101
0.0628983
0.0628941
0.0628769
0.0628674
0.0628464
0.0628299
0.0628057
0.0627829
0.0627554
0.062725
0.0626968
0.0626557
0.0626308
0.0625752
0.0625577
0.0624853
0.0624754
0.0623876
0.0623867
0.0622795
0.0637695
0.063772
0.0637677
0.0637682
0.0637573
0.0637544
0.0637384
0.0637304
0.0637109
0.0636962
0.0636735
0.0636525
0.0636262
0.0635977
0.06357
0.0635312
0.0635053
0.0634525
0.0634331
0.0633631
0.0633523
0.0632647
0.0632641
0.0631571
0.064628
0.0646309
0.0646271
0.0646286
0.0646188
0.0646174
0.0646031
0.064597
0.0645795
0.0645669
0.0645464
0.0645278
0.0645037
0.0644776
0.0644517
0.0644154
0.0643905
0.0643401
0.0643209
0.0642521
0.0642414
0.0641538
0.0641531
0.0640462
0.0654919
0.065495
0.0654918
0.0654943
0.0654855
0.0654856
0.0654728
0.0654687
0.0654532
0.065443
0.0654249
0.065409
0.0653873
0.0653642
0.0653408
0.0653075
0.0652845
0.0652377
0.0652196
0.065153
0.0651431
0.0650557
0.0650553
0.0649473
0.0663666
0.0663703
0.0663671
0.0663706
0.0663622
0.0663637
0.0663516
0.0663493
0.0663351
0.066327
0.0663106
0.0662972
0.0662776
0.0662573
0.0662372
0.0662056
0.0661875
0.0661411
0.0661281
0.0660628
0.0660571
0.0659705
0.0659712
0.0658627
0.06726
0.0672645
0.0672604
0.0672653
0.0672556
0.0672589
0.0672453
0.0672453
0.0672297
0.067224
0.0672072
0.0671958
0.0671772
0.0671582
0.0671423
0.0671081
0.0670996
0.067048
0.0670454
0.0669772
0.0669786
0.0668945
0.066899
0.066796
0.0681814
0.0681854
0.0681821
0.0681851
0.0681765
0.0681771
0.0681647
0.0681615
0.068147
0.0681386
0.0681223
0.0681098
0.0680904
0.0680734
0.0680546
0.0680233
0.0680147
0.0679651
0.0679633
0.0678979
0.0679026
0.0678203
0.0678294
0.0677343
0.0691391
0.0691428
0.069139
0.0691409
0.0691308
0.0691298
0.0691152
0.0691097
0.0690926
0.0690815
0.0690624
0.0690471
0.0690251
0.0690061
0.0689826
0.0689548
0.0689382
0.0688928
0.0688886
0.0688227
0.0688293
0.0687455
0.068758
0.0686631
0.0701395
0.070143
0.0701383
0.0701389
0.0701268
0.0701233
0.0701057
0.0700969
0.0700758
0.0700604
0.0700367
0.0700165
0.0699893
0.0699657
0.0699362
0.0699052
0.0698817
0.0698352
0.0698259
0.0697567
0.0697635
0.0696746
0.0696893
0.0695904
0.0711861
0.0711898
0.0711836
0.0711833
0.0711686
0.0711629
0.0711415
0.0711292
0.0711031
0.0710831
0.0710531
0.0710272
0.0709927
0.0709621
0.0709245
0.0708863
0.0708548
0.0708009
0.070785
0.0707071
0.0707115
0.0706139
0.0706293
0.070522
0.0722789
0.072283
0.0722751
0.0722744
0.0722571
0.0722497
0.0722243
0.0722096
0.0721775
0.0721548
0.0721164
0.0720867
0.0720423
0.0720051
0.071958
0.0719102
0.0718701
0.0718013
0.0717782
0.0716865
0.0716836
0.0715726
0.0715855
0.0714645
0.0734145
0.0734181
0.0734108
0.0734077
0.0733903
0.0733798
0.0733537
0.0733342
0.0733012
0.0732713
0.0732317
0.0731931
0.0731453
0.0730993
0.0730435
0.0729895
0.0729319
0.072858
0.0728179
0.0727131
0.0726956
0.072566
0.0725706
0.0724276
0.0745864
0.0745897
0.0745823
0.0745787
0.0745605
0.074549
0.0745215
0.0745005
0.0744653
0.0744331
0.0743905
0.0743484
0.0742966
0.0742456
0.074184
0.0741234
0.0740543
0.0739803
0.0739116
0.0738093
0.0737654
0.0736181
0.0736062
0.0734301
0.0757865
0.0757897
0.0757825
0.0757787
0.0757603
0.0757486
0.0757206
0.0756991
0.0756633
0.0756302
0.0755865
0.0755431
0.0754896
0.0754366
0.0753726
0.0753087
0.0752358
0.0751571
0.0750787
0.0749781
0.0749045
0.0747602
0.0747213
0.0745075
0.0770062
0.0770094
0.0770023
0.0769989
0.0769807
0.0769695
0.0769418
0.0769207
0.0768853
0.0768527
0.0768095
0.0767664
0.0767135
0.0766608
0.0765972
0.0765338
0.0764609
0.076383
0.0763034
0.0762046
0.0761251
0.0759888
0.0759325
0.0757068
0.0782366
0.0782402
0.0782334
0.0782306
0.0782129
0.0782026
0.0781756
0.0781558
0.0781214
0.0780902
0.0780484
0.0780072
0.077956
0.0779055
0.0778441
0.0777832
0.0777131
0.0776378
0.0775635
0.0774659
0.0773983
0.0772604
0.0772207
0.0770223
0.0794701
0.079474
0.0794675
0.0794655
0.0794485
0.0794394
0.0794136
0.0793953
0.0793625
0.0793334
0.0792936
0.0792549
0.0792063
0.0791587
0.0791005
0.0790433
0.0789768
0.0789066
0.0788365
0.0787446
0.0786828
0.0785526
0.0785158
0.078332
0.0806995
0.0807036
0.0806976
0.0806964
0.0806802
0.0806725
0.0806479
0.0806316
0.0806005
0.0805739
0.0805364
0.0805007
0.0804549
0.080411
0.0803563
0.0803033
0.080241
0.080176
0.0801107
0.0800255
0.0799682
0.0798478
0.0798133
0.0796432
0.0819185
0.0819231
0.0819173
0.0819173
0.0819017
0.0818957
0.0818723
0.0818582
0.0818288
0.0818051
0.0817698
0.0817376
0.0816945
0.0816548
0.0816036
0.0815551
0.0814974
0.081438
0.0813774
0.0812979
0.0812465
0.0811352
0.0811032
0.0809469
0.0831225
0.0831275
0.0831215
0.0831231
0.0831077
0.083104
0.0830811
0.0830701
0.0830416
0.0830218
0.0829876
0.0829603
0.0829186
0.0828847
0.0828355
0.0827931
0.0827386
0.0826853
0.0826298
0.0825565
0.0825093
0.0824081
0.0823782
0.0822356
0.0843068
0.0843122
0.0843063
0.0843092
0.0842942
0.0842926
0.0842704
0.0842624
0.0842346
0.084219
0.0841855
0.0841636
0.0841227
0.0840953
0.084047
0.0840122
0.0839598
0.0839128
0.0838616
0.0837959
0.083752
0.0836606
0.0836332
0.0835039
0.0854681
0.0854737
0.0854687
0.0854715
0.0854586
0.0854568
0.0854379
0.0854298
0.0854063
0.0853908
0.0853624
0.0853412
0.0853057
0.0852801
0.0852371
0.0852058
0.0851578
0.0851172
0.0850686
0.0850108
0.0849703
0.084889
0.0848637
0.0847473
0.0866036
0.0866092
0.086605
0.0866081
0.0865966
0.0865956
0.0865786
0.0865718
0.0865511
0.0865368
0.0865124
0.0864925
0.086462
0.0864379
0.0864007
0.0863717
0.0863295
0.0862931
0.0862485
0.0861995
0.0861612
0.0860892
0.086066
0.0859622
0.0877112
0.0877166
0.0877128
0.0877165
0.087706
0.0877061
0.0876907
0.0876854
0.087667
0.0876546
0.0876332
0.0876154
0.0875888
0.0875673
0.0875345
0.0875088
0.087471
0.0874396
0.0873986
0.0873576
0.0873219
0.0872587
0.0872374
0.0871458
0.0887885
0.0887939
0.0887906
0.0887948
0.0887852
0.0887864
0.0887724
0.0887686
0.0887522
0.0887418
0.088723
0.0887077
0.0886844
0.0886656
0.0886368
0.0886146
0.0885813
0.0885541
0.0885174
0.0884827
0.088449
0.0883957
0.088376
0.0882962
0.0898342
0.0898397
0.0898368
0.0898415
0.0898328
0.0898349
0.0898224
0.08982
0.0898055
0.0897969
0.0897807
0.0897676
0.0897474
0.0897314
0.0897063
0.0896873
0.0896581
0.089635
0.0896029
0.0895739
0.089542
0.0894985
0.0894799
0.0894114
0.0908474
0.0908528
0.0908502
0.0908557
0.0908473
0.0908509
0.090839
0.0908384
0.0908254
0.0908188
0.0908048
0.090794
0.0907766
0.0907633
0.0907415
0.0907259
0.0907004
0.0906815
0.090653
0.0906291
0.090601
0.090565
0.0905483
0.0904901
0.0918272
0.0918324
0.0918305
0.0918356
0.091829
0.0918323
0.0918228
0.0918225
0.0918118
0.0918065
0.0917949
0.091786
0.0917714
0.0917606
0.091742
0.0917293
0.0917075
0.0916918
0.0916677
0.0916482
0.0916236
0.091595
0.09158
0.0915313
0.0927729
0.0927785
0.0927757
0.0927831
0.0927746
0.0927816
0.0927703
0.0927737
0.0927628
0.0927602
0.0927499
0.0927434
0.0927311
0.0927227
0.092707
0.0926973
0.0926788
0.0926669
0.0926458
0.0926308
0.0926098
0.0925879
0.0925737
0.0925342
0.0936846
0.0936893
0.0936889
0.0936932
0.0936899
0.0936924
0.0936871
0.0936874
0.0936811
0.0936778
0.0936706
0.0936653
0.0936557
0.0936494
0.0936365
0.0936294
0.0936139
0.093605
0.093588
0.0935766
0.0935592
0.093542
0.0935298
0.0934989
0.0945617
0.0945675
0.0945642
0.0945738
0.0945644
0.0945753
0.0945634
0.0945712
0.0945611
0.0945628
0.0945551
0.0945527
0.0945445
0.0945406
0.0945301
0.0945255
0.094513
0.0945073
0.0944928
0.0944856
0.0944711
0.0944591
0.094448
0.0944254
0.0954052
0.0954091
0.0954102
0.0954131
0.0954137
0.0954141
0.095414
0.0954132
0.0954117
0.0954096
0.0954067
0.0954041
0.0953987
0.0953964
0.0953883
0.095386
0.095376
0.0953729
0.0953617
0.0953573
0.0953461
0.0953379
0.0953297
0.0953138
0.0962138
0.0962197
0.0962165
0.0962269
0.0962179
0.0962308
0.0962194
0.0962302
0.0962213
0.0962265
0.096221
0.0962222
0.0962174
0.0962174
0.0962112
0.0962111
0.0962036
0.0962032
0.0961943
0.0961935
0.0961843
0.0961805
0.0961741
0.0961647
0.0969903
0.0969936
0.0969956
0.0969979
0.0970006
0.0970007
0.0970037
0.0970028
0.0970049
0.0970039
0.0970045
0.0970042
0.0970025
0.0970035
0.0969995
0.0970014
0.096996
0.0969978
0.0969916
0.0969933
0.0969872
0.096987
0.0969829
0.0969783
0.0977323
0.0977378
0.0977357
0.0977449
0.0977388
0.0977501
0.0977424
0.0977529
0.0977469
0.0977537
0.0977508
0.0977546
0.0977528
0.097756
0.0977535
0.0977572
0.0977539
0.097758
0.0977539
0.0977584
0.097754
0.0977576
0.0977558
0.0977556
0.0984437
0.0984468
0.0984487
0.0984521
0.0984539
0.0984568
0.0984591
0.0984609
0.0984639
0.0984652
0.0984677
0.09847
0.098471
0.0984748
0.0984743
0.0984795
0.0984779
0.0984839
0.0984817
0.0984888
0.0984866
0.0984933
0.0984927
0.098497
0.0991219
0.0991266
0.0991265
0.0991325
0.0991317
0.0991382
0.0991372
0.0991438
0.0991432
0.0991491
0.0991497
0.0991549
0.0991559
0.0991615
0.0991621
0.0991688
0.099169
0.0991768
0.0991764
0.0991853
0.0991847
0.0991944
0.0991955
0.0992034
0.0997711
0.0997741
0.0997754
0.0997807
0.0997801
0.0997872
0.0997866
0.0997931
0.0997943
0.0997995
0.0998022
0.0998073
0.09981
0.0998164
0.0998184
0.0998264
0.0998278
0.0998372
0.0998382
0.0998495
0.0998502
0.0998624
0.0998641
0.0998762
0.100389
0.100393
0.100395
0.100397
0.100401
0.100403
0.100409
0.100411
0.100416
0.10042
0.100424
0.10043
0.100433
0.100441
0.100444
0.100453
0.100456
0.100466
0.100469
0.100482
0.100484
0.100498
0.1005
0.100516
0.100979
0.100982
0.100983
0.100989
0.100988
0.100997
0.100995
0.101005
0.101004
0.101013
0.101015
0.101023
0.101027
0.101035
0.101039
0.10105
0.101053
0.101065
0.101069
0.101083
0.101086
0.101103
0.101106
0.101125
0.101541
0.101543
0.101547
0.101548
0.101554
0.101554
0.101563
0.101562
0.101571
0.101574
0.101581
0.101587
0.101593
0.101601
0.101606
0.101617
0.101622
0.101635
0.10164
0.101655
0.101659
0.101678
0.101681
0.101703
0.102076
0.102079
0.102079
0.102086
0.102085
0.102094
0.102092
0.102103
0.102103
0.102113
0.102116
0.102125
0.10213
0.10214
0.102146
0.102157
0.102163
0.102177
0.102182
0.102199
0.102204
0.102224
0.102227
0.102252
0.102585
0.102587
0.102591
0.102591
0.102598
0.102597
0.102607
0.102607
0.102617
0.10262
0.102628
0.102635
0.102642
0.102652
0.102658
0.102671
0.102677
0.102692
0.102698
0.102716
0.102721
0.102742
0.102747
0.102773
0.103069
0.103072
0.103072
0.103079
0.103077
0.103087
0.103086
0.103097
0.103098
0.103108
0.103112
0.103122
0.103128
0.103139
0.103146
0.103158
0.103165
0.103181
0.103188
0.103206
0.103212
0.103235
0.10324
0.103267
0.103529
0.10353
0.103535
0.103534
0.103544
0.103541
0.103552
0.103552
0.103562
0.103566
0.103574
0.103583
0.10359
0.103601
0.103608
0.103622
0.103629
0.103645
0.103653
0.103672
0.103679
0.103702
0.103707
0.103737
0.103966
0.103969
0.103968
0.103977
0.103973
0.103986
0.103982
0.103995
0.103996
0.104007
0.104011
0.104022
0.104028
0.10404
0.104048
0.104062
0.104069
0.104086
0.104094
0.104114
0.104121
0.104146
0.104152
0.10418
0.104382
0.104382
0.104388
0.104385
0.104397
0.104392
0.104406
0.104404
0.104416
0.10442
0.104429
0.104437
0.104445
0.104457
0.104465
0.104479
0.104487
0.104504
0.104513
0.104534
0.104541
0.104566
0.104572
0.104603
0.104776
0.104779
0.104778
0.104786
0.104782
0.104796
0.104791
0.104806
0.104805
0.104818
0.104822
0.104833
0.10484
0.104852
0.104861
0.104875
0.104884
0.104901
0.104909
0.104931
0.104939
0.104964
0.10497
0.105003
0.105151
0.105151
0.105156
0.105154
0.105164
0.105161
0.105174
0.105173
0.105185
0.105189
0.105198
0.105207
0.105215
0.105227
0.105236
0.105251
0.105259
0.105277
0.105286
0.105308
0.105315
0.105342
0.105348
0.10538
0.105506
0.105508
0.105508
0.105515
0.105513
0.105523
0.105522
0.105534
0.105535
0.105547
0.105551
0.105563
0.10557
0.105583
0.105592
0.105607
0.105615
0.105634
0.105642
0.105664
0.105672
0.105699
0.105705
0.105739
0.105843
0.105844
0.105847
0.105848
0.105855
0.105855
0.105864
0.105866
0.105876
0.105881
0.10589
0.1059
0.105908
0.10592
0.105929
0.105944
0.105953