/*--------------------------------*- C++ -*----------------------------------*\
  =========                 |
  \\      /  F ield         | OpenFOAM: The Open Source CFD Toolbox
   \\    /   O peration     | Website:  https://openfoam.org
    \\  /    A nd           | Version:  10
     \\/     M anipulation  |
\*---------------------------------------------------------------------------*/
FoamFile
{
    format      ascii;
    class       volVectorField;
    location    "0.46";
    object      U;
}
// * * * * * * * * * * * * * * * * * * * * * * * * * * * * * * * * * * * * * //

dimensions      [0 1 -1 0 0 0 0];

internalField   nonuniform List<vector> 
4176
(
(497.488 -0.0140817 -7.04578e-09)
(497.474 0.0636655 2.04738e-09)
(497.449 0.00151165 -6.901e-10)
(497.4 0.0903242 -5.09342e-11)
(497.346 0.0510851 -2.09795e-10)
(497.271 0.0894704 -5.84019e-10)
(497.18 0.125934 -2.8648e-10)
(497.088 0.060459 4.0729e-10)
(496.954 0.225321 7.77034e-10)
(496.849 0.00479341 7.16779e-10)
(496.672 0.344401 4.40127e-10)
(496.55 -0.0691217 3.08301e-10)
(496.339 0.469798 6.66251e-11)
(496.191 -0.139468 -2.86452e-10)
(495.956 0.567809 -4.13585e-10)
(495.773 -0.135605 -2.5909e-10)
(495.536 0.528503 -1.96602e-10)
(495.286 0.0236587 -1.25027e-11)
(495.073 0.334874 2.96191e-10)
(494.73 0.323004 1.62752e-10)
(494.575 -0.0167696 -1.34631e-10)
(494.097 0.771676 -1.33926e-10)
(494.068 -0.516475 1.68935e-10)
(493.444 1.4426 3.03943e-10)
(497.47 0.00498794 -7.04424e-09)
(497.456 0.114488 2.04744e-09)
(497.43 0.0765597 -6.90244e-10)
(497.38 0.203229 -5.17561e-11)
(497.325 0.18634 -2.0966e-10)
(497.247 0.264187 -5.83547e-10)
(497.156 0.321835 -2.87154e-10)
(497.059 0.295547 4.07382e-10)
(496.924 0.482274 7.77634e-10)
(496.814 0.297911 7.16832e-10)
(496.636 0.662916 4.39566e-10)
(496.508 0.278697 3.08171e-10)
(496.293 0.850376 6.5023e-11)
(496.142 0.258411 -2.86267e-10)
(495.901 1.0125 -4.13337e-10)
(495.714 0.302074 -2.58565e-10)
(495.47 1.04225 -1.97791e-10)
(495.216 0.510692 -1.26363e-11)
(494.996 0.914453 2.95149e-10)
(494.646 0.855157 1.62361e-10)
(494.491 0.628549 -1.34561e-10)
(493.992 1.33099 -1.36243e-10)
(493.957 0.125141 1.69698e-10)
(493.269 1.99267 3.03577e-10)
(497.413 0.0233372 -7.0478e-09)
(497.399 0.161138 2.04661e-09)
(497.375 0.147736 -6.923e-10)
(497.324 0.307565 -5.08472e-11)
(497.272 0.313942 -2.09949e-10)
(497.195 0.426373 -5.84104e-10)
(497.108 0.505954 -2.84313e-10)
(497.011 0.514772 4.09253e-10)
(496.882 0.722987 7.79576e-10)
(496.772 0.572564 7.16936e-10)
(496.599 0.960692 4.38482e-10)
(496.474 0.606098 3.07265e-10)
(496.263 1.20617 6.6605e-11)
(496.116 0.633997 -2.86082e-10)
(495.877 1.42871 -4.1349e-10)
(495.697 0.713822 -2.57296e-10)
(495.454 1.52276 -2.00537e-10)
(495.209 0.965926 -1.42923e-11)
(494.993 1.45729 2.95763e-10)
(494.653 1.34382 1.61942e-10)
(494.506 1.24778 -1.35481e-10)
(494.016 1.88221 -1.33534e-10)
(493.982 0.838784 1.7004e-10)
(493.271 2.60882 3.04565e-10)
(497.309 0.0420717 -7.04723e-09)
(497.295 0.20864 2.05067e-09)
(497.271 0.220233 -6.93305e-10)
(497.22 0.41388 -4.7895e-11)
(497.168 0.443912 -2.10692e-10)
(497.091 0.591726 -5.88304e-10)
(497.004 0.69351 -2.84058e-10)
(496.907 0.738396 4.06848e-10)
(496.777 0.968193 7.72795e-10)
(496.668 0.852865 7.2025e-10)
(496.494 1.26402 4.3927e-10)
(496.37 0.940452 3.05405e-10)
(496.158 1.56885 6.80935e-11)
(496.013 1.0182 -2.87564e-10)
(495.77 1.85359 -4.20554e-10)
(495.593 1.13531 -2.58496e-10)
(495.346 2.01719 -1.98137e-10)
(495.097 1.42645 -1.46855e-11)
(494.891 2.00947 2.98018e-10)
(494.54 1.84074 1.61336e-10)
(494.398 1.85835 -1.38257e-10)
(493.915 2.42 -1.34296e-10)
(493.887 1.52584 1.68343e-10)
(493.205 3.20568 2.95123e-10)
(497.157 0.0604035 -7.04972e-09)
(497.143 0.25516 2.05723e-09)
(497.119 0.291154 -6.89554e-10)
(497.069 0.518064 -4.80013e-11)
(497.018 0.571049 -2.07413e-10)
(496.941 0.753892 -5.82776e-10)
(496.855 0.876981 -2.85759e-10)
(496.76 0.957937 4.09147e-10)
(496.631 1.20806 7.78371e-10)
(496.524 1.12834 7.18127e-10)
(496.351 1.5608 4.39332e-10)
(496.229 1.26925 3.08208e-10)
(496.018 1.92412 6.46472e-11)
(495.876 1.39596 -2.88491e-10)
(495.633 2.27132 -4.18588e-10)
(495.461 1.55 -2.61026e-10)
(495.21 2.51252 -1.99253e-10)
(494.967 1.86962 -1.39298e-11)
(494.763 2.55455 2.9252e-10)
(494.411 2.33867 1.67124e-10)
(494.271 2.45279 -1.30508e-10)
(493.793 2.94581 -1.31301e-10)
(493.764 2.16849 1.72022e-10)
(493.102 3.76359 3.05985e-10)
(496.957 0.0787279 -7.06278e-09)
(496.942 0.301386 2.05478e-09)
(496.919 0.361924 -6.88153e-10)
(496.869 0.621664 -5.276e-11)
(496.819 0.697883 -2.18612e-10)
(496.742 0.915203 -5.87751e-10)
(496.657 1.06002 -2.83111e-10)
(496.562 1.17643 4.05495e-10)
(496.435 1.44735 7.791e-10)
(496.327 1.40273 7.23504e-10)
(496.157 1.8567 4.39442e-10)
(496.035 1.59721 3.02413e-10)
(495.825 2.27777 6.18627e-11)
(495.684 1.77361 -2.86081e-10)
(495.443 2.68575 -4.21609e-10)
(495.274 1.96897 -2.5844e-10)
(495.018 3.00314 -1.88743e-10)
(494.787 2.31251 -1.1086e-11)
(494.57 3.1041 3.02317e-10)
(494.229 2.83552 1.69272e-10)
(494.084 3.04897 -1.34736e-10)
(493.611 3.47376 -1.42035e-10)
(493.576 2.81546 1.68853e-10)
(492.913 4.32054 3.06321e-10)
(496.708 0.0968751 -7.06244e-09)
(496.694 0.346949 2.05236e-09)
(496.671 0.431903 -7.04359e-10)
(496.621 0.723826 -5.27916e-11)
(496.572 0.823262 -2.03988e-10)
(496.495 1.0743 -5.86735e-10)
(496.412 1.24095 -2.94284e-10)
(496.317 1.39198 4.10375e-10)
(496.192 1.68389 7.85872e-10)
(496.084 1.67362 7.18778e-10)
(495.916 2.14916 4.36488e-10)
(495.795 1.92138 3.1328e-10)
(495.588 2.62704 7.7509e-11)
(495.448 2.14762 -2.84226e-10)
(495.208 3.0941 -4.17193e-10)
(495.043 2.38628 -2.55134e-10)
(494.785 3.48275 -1.98212e-10)
(494.565 2.7572 -1.67398e-11)
(494.337 3.65151 2.96779e-10)
(494.01 3.3205 1.66811e-10)
(493.859 3.64403 -1.36155e-10)
(493.392 4.00127 -1.42089e-10)
(493.353 3.47215 1.71255e-10)
(492.692 4.88277 3.11486e-10)
(496.411 0.114885 -7.07913e-09)
(496.396 0.392046 2.06299e-09)
(496.374 0.50126 -6.84213e-10)
(496.324 0.824969 -4.94531e-11)
(496.276 0.947472 -2.1695e-10)
(496.2 1.2318 -5.83791e-10)
(496.117 1.42014 -2.77537e-10)
(496.023 1.60539 4.09591e-10)
(495.899 1.91811 7.67975e-10)
(495.793 1.9419 7.16377e-10)
(495.626 2.43869 4.47265e-10)
(495.506 2.24265 3.07436e-10)
(495.301 2.9727 5.17629e-11)
(495.164 2.51866 -2.92956e-10)
(494.924 3.49794 -4.10175e-10)
(494.763 2.80109 -2.63199e-10)
(494.503 3.95498 -1.94632e-10)
(494.292 3.19951 -1.88292e-13)
(494.058 4.19419 3.00601e-10)
(493.743 3.80102 1.52092e-10)
(493.585 4.23729 -1.36361e-10)
(493.127 4.52398 -1.25937e-10)
(493.084 4.12349 1.68848e-10)
(492.431 5.43771 2.88421e-10)
(496.065 0.132714 -7.09242e-09)
(496.051 0.436587 2.0499e-09)
(496.029 0.569834 -7.06315e-10)
(495.979 0.924884 -6.18098e-11)
(495.931 1.07022 -2.17225e-10)
(495.856 1.38736 -5.92131e-10)
(495.774 1.59715 -2.92612e-10)
(495.681 1.81614 4.06948e-10)
(495.559 2.1494 7.74939e-10)
(495.454 2.20689 7.13419e-10)
(495.289 2.72453 4.3536e-10)
(495.171 2.56015 3.05712e-10)
(494.967 3.31389 5.99284e-11)
(494.832 2.8857 -2.91797e-10)
(494.593 3.89635 -4.16907e-10)
(494.436 3.21207 -2.60095e-10)
(494.177 4.41874 -1.98924e-10)
(493.973 3.63888 -1.12532e-11)
(493.734 4.73004 2.97135e-10)
(493.43 4.2749 1.58941e-10)
(493.267 4.82795 -1.38358e-10)
(492.818 5.04189 -1.36973e-10)
(492.771 4.77043 1.7074e-10)
(492.126 5.98597 3.04933e-10)
(495.671 0.150358 -7.07812e-09)
(495.657 0.480583 2.07944e-09)
(495.635 0.63762 -6.87956e-10)
(495.586 1.02359 -3.88156e-11)
(495.538 1.19151 -1.9889e-10)
(495.464 1.54102 -5.75138e-10)
(495.383 1.77198 -2.75366e-10)
(495.291 2.02428 4.24877e-10)
(495.17 2.37774 7.93827e-10)
(495.066 2.46856 7.30297e-10)
(494.903 3.00661 4.53595e-10)
(494.787 2.87376 3.21339e-10)
(494.585 3.65048 7.82202e-11)
(494.453 3.24849 -2.79281e-10)
(494.215 4.28923 -4.03321e-10)
(494.062 3.61892 -2.49329e-10)
(493.802 4.87438 -1.85098e-10)
(493.607 4.07449 -2.85401e-13)
(493.363 5.25843 3.11002e-10)
(493.071 4.74243 1.70485e-10)
(492.903 5.41405 -1.26267e-10)
(492.463 5.55323 -1.24772e-10)
(492.413 5.41102 1.80357e-10)
(491.778 6.52593 3.14267e-10)
(495.228 0.167792 -7.10098e-09)
(495.214 0.523976 2.0689e-09)
(495.193 0.704521 -6.98164e-10)
(495.144 1.12097 -4.64448e-11)
(495.097 1.31119 -2.05983e-10)
(495.023 1.69261 -5.83177e-10)
(494.944 1.94443 -2.80067e-10)
(494.852 2.22958 4.23728e-10)
(494.733 2.60286 7.92671e-10)
(494.631 2.72662 7.28815e-10)
(494.47 3.28458 4.53845e-10)
(494.355 3.18305 3.23643e-10)
(494.155 3.98203 8.05653e-11)
(494.026 3.60646 -2.77749e-10)
(493.79 4.67607 -3.98759e-10)
(493.641 4.0209 -2.43281e-10)
(493.382 5.32176 -1.77588e-10)
(493.194 4.50577 5.94141e-12)
(492.947 5.77845 3.21444e-10)
(492.666 5.20344 1.81193e-10)
(492.492 5.9937 -1.38003e-10)
(492.065 6.0567 -1.58622e-10)
(492.01 6.04517 1.51336e-10)
(491.386 7.05714 2.83342e-10)
(494.737 0.184991 -7.11159e-09)
(494.723 0.566724 2.0726e-09)
(494.702 0.770458 -7.02075e-10)
(494.654 1.21694 -5.20239e-11)
(494.608 1.42913 -2.11448e-10)
(494.534 1.84202 -5.89298e-10)
(494.456 2.11436 -2.87806e-10)
(494.366 2.43191 4.14583e-10)
(494.248 2.82461 7.83501e-10)
(494.147 2.98091 7.19649e-10)
(493.988 3.55824 4.43303e-10)
(493.876 3.48776 3.142e-10)
(493.678 4.30823 6.92686e-11)
(493.551 3.95921 -2.87691e-10)
(493.318 5.05651 -4.13493e-10)
(493.173 4.41742 -2.56941e-10)
(492.914 5.76091 -1.94668e-10)
(492.733 4.93237 -7.39204e-12)
(492.483 6.28955 3.02985e-10)
(492.214 5.65791 1.62675e-10)
(492.035 6.56489 -1.33134e-10)
(491.621 6.55059 -1.29241e-10)
(491.562 6.67232 1.7753e-10)
(490.949 7.57901 3.10064e-10)
(494.197 0.20193 -7.12285e-09)
(494.183 0.608768 2.07333e-09)
(494.162 0.835332 -7.0903e-10)
(494.114 1.31136 -5.81278e-11)
(494.07 1.54517 -2.20176e-10)
(493.997 1.98906 -6.01842e-10)
(493.92 2.28155 -3.01943e-10)
(493.831 2.63107 3.98869e-10)
(493.715 3.04277 7.67561e-10)
(493.616 3.23118 7.01298e-10)
(493.458 3.82733 4.17049e-10)
(493.348 3.7876 2.87865e-10)
(493.152 4.62878 3.6011e-11)
(493.029 4.30628 -2.93547e-10)
(492.797 5.4301 -3.89765e-10)
(492.657 4.80779 -2.39576e-10)
(492.4 6.19174 -1.76481e-10)
(492.225 5.35394 5.03717e-12)
(491.973 6.791 3.15542e-10)
(491.716 6.10451 1.72937e-10)
(491.532 7.12743 -1.25059e-10)
(491.13 7.03466 -1.23993e-10)
(491.069 7.29069 1.83124e-10)
(490.467 8.09096 3.13493e-10)
(493.608 0.218582 -7.12698e-09)
(493.594 0.650056 2.09906e-09)
(493.574 0.899052 -7.10675e-10)
(493.527 1.40412 -7.7775e-11)
(493.483 1.65914 -2.23583e-10)
(493.411 2.13354 -5.93284e-10)
(493.336 2.44579 -2.8052e-10)
(493.247 2.82681 4.37151e-10)
(493.134 3.25707 7.8798e-10)
(493.036 3.47719 7.02303e-10)
(492.881 4.09161 4.30122e-10)
(492.773 4.0823 3.11096e-10)
(492.579 4.94339 7.78963e-11)
(492.459 4.64735 -2.74706e-10)
(492.23 5.79647 -4.23104e-10)
(492.094 5.19151 -2.80444e-10)
(491.838 6.6138 -2.12788e-10)
(491.67 5.76987 -1.3531e-11)
(491.416 7.28236 3.09833e-10)
(491.17 6.54286 1.78559e-10)
(490.982 7.68059 -1.37501e-10)
(490.594 7.5078 -1.52759e-10)
(490.53 7.89898 1.66584e-10)
(489.941 8.59248 3.11064e-10)
(492.97 0.234926 -7.1548e-09)
(492.956 0.690537 2.06213e-09)
(492.936 0.961528 -7.02929e-10)
(492.89 1.49509 -2.14978e-11)
(492.847 1.77089 -1.98219e-10)
(492.776 2.27527 -5.90876e-10)
(492.702 2.60683 -3.00241e-10)
(492.615 3.01886 3.92364e-10)
(492.503 3.46722 7.86363e-10)
(492.407 3.71862 7.45046e-10)
(492.255 4.35074 4.50996e-10)
(492.149 4.37153 3.05114e-10)
(491.958 5.25176 4.30746e-11)
(491.841 4.98206 -2.96698e-10)
(491.614 6.15531 -3.99212e-10)
(491.483 5.56809 -2.51247e-10)
(491.229 7.02667 -2.02465e-10)
(491.068 6.17945 -2.48356e-11)
(490.813 7.76301 2.69215e-10)
(490.579 6.97266 1.49376e-10)
(490.387 8.22397 -1.24632e-10)
(490.011 7.96918 -1.28412e-10)
(489.945 8.49597 1.67076e-10)
(489.369 9.08304 2.86095e-10)
(492.283 0.25094 -7.15293e-09)
(492.269 0.730165 2.11524e-09)
(492.25 1.02268 -7.11135e-10)
(492.204 1.58415 -8.14196e-11)
(492.162 1.88025 -2.26078e-10)
(492.092 2.41404 -5.91954e-10)
(492.02 2.76442 -2.71974e-10)
(491.934 3.20693 4.46861e-10)
(491.825 3.67288 7.91778e-10)
(491.731 3.9551 7.04983e-10)
(491.58 4.60437 4.3688e-10)
(491.477 4.65493 3.1876e-10)
(491.289 5.55355 8.7081e-11)
(491.175 5.31004 -3.00636e-10)
(490.952 6.50628 -4.55929e-10)
(490.824 5.9371 -2.76583e-10)
(490.573 7.42999 -2.02715e-10)
(490.419 6.58185 1.55817e-13)
(490.163 8.23219 3.25245e-10)
(489.941 7.39366 1.55803e-10)
(489.745 8.75689 -1.63707e-10)
(489.384 8.41848 -1.41537e-10)
(489.314 9.08107 1.80811e-10)
(488.752 9.56192 3.24024e-10)
(491.546 0.266602 -7.18178e-09)
(491.533 0.768896 2.08191e-09)
(491.514 1.08243 -7.30683e-10)
(491.468 1.67121 -8.54522e-11)
(491.427 1.98707 -2.15904e-10)
(491.359 2.54967 -5.66082e-10)
(491.288 2.91831 -2.68152e-10)
(491.204 3.39073 4.29726e-10)
(491.097 3.8737 7.90026e-10)
(491.005 4.18626 7.17179e-10)
(490.857 4.85207 4.25856e-10)
(490.757 4.93204 2.87038e-10)
(490.572 5.84833 6.72282e-11)
(490.462 5.63088 -2.70485e-10)
(490.241 6.84903 -4.05621e-10)
(490.118 6.29816 -2.53175e-10)
(489.87 7.82348 -1.99011e-10)
(489.722 6.97623 -1.61361e-11)
(489.467 8.68907 2.83189e-10)
(489.256 7.80549 1.32563e-10)
(489.057 9.27785 -1.75436e-10)
(488.71 8.85636 -1.3822e-10)
(488.636 9.65473 1.99124e-10)
(488.09 10.0278 3.2118e-10)
(490.76 0.281887 -7.18909e-09)
(490.747 0.806675 2.11027e-09)
(490.728 1.14069 -6.98396e-10)
(490.683 1.75613 -3.10674e-11)
(490.643 2.09119 -1.93084e-10)
(490.576 2.68194 -5.71298e-10)
(490.507 3.06825 -2.60234e-10)
(490.425 3.56996 4.55302e-10)
(490.32 4.06935 8.32173e-10)
(490.231 4.41168 7.30109e-10)
(490.086 5.09341 4.10052e-10)
(489.988 5.20238 2.83451e-10)
(489.807 6.13562 3.39803e-11)
(489.7 5.94407 -3.22764e-10)
(489.482 7.18314 -4.48111e-10)
(489.365 6.65084 -2.78402e-10)
(489.119 8.20691 -2.15984e-10)
(488.978 7.36185 -1.94488e-11)
(488.724 9.133 2.96478e-10)
(488.524 8.20787 1.60881e-10)
(488.322 9.78641 -1.32066e-10)
(487.99 9.28239 -1.23819e-10)
(487.912 10.2161 1.88397e-10)
(487.381 10.4803 3.25657e-10)
(489.924 0.296767 -7.21202e-09)
(489.91 0.843439 2.10143e-09)
(489.892 1.19736 -7.20585e-10)
(489.848 1.83878 -5.75465e-11)
(489.81 2.19242 -2.26367e-10)
(489.744 2.81066 -6.15389e-10)
(489.677 3.214 -3.06015e-10)
(489.597 3.74434 4.06738e-10)
(489.494 4.25947 7.75307e-10)
(489.407 4.63099 7.06887e-10)
(489.265 5.32795 4.23325e-10)
(489.171 5.46547 2.87742e-10)
(488.992 6.41491 2.93598e-11)
(488.89 6.24905 -3.31548e-10)
(488.676 7.50807 -4.66606e-10)
(488.563 6.99458 -3.01331e-10)
(488.32 8.57983 -2.03285e-10)
(488.186 7.7382 2.15848e-11)
(487.934 9.56352 3.36607e-10)
(487.745 8.6004 1.87107e-10)
(487.54 10.2821 -1.11413e-10)
(487.224 9.69624 -1.12514e-10)
(487.141 10.7646 1.97049e-10)
(486.627 10.9189 3.30343e-10)
(489.037 0.311208 -7.24606e-09)
(489.024 0.87911 2.11754e-09)
(489.007 1.25231 -6.93157e-10)
(488.963 1.91899 -5.28834e-11)
(488.926 2.29057 -2.01134e-10)
(488.861 2.93559 -5.67089e-10)
(488.796 3.35528 -2.84241e-10)
(488.718 3.91358 4.04132e-10)
(488.618 4.44375 7.95055e-10)
(488.534 4.84383 7.47045e-10)
(488.395 5.55527 4.37344e-10)
(488.305 5.72083 3.17484e-10)
(488.13 6.68567 7.89845e-11)
(488.031 6.54524 -3.12177e-10)
(487.821 7.82325 -4.22004e-10)
(487.714 7.32876 -2.4174e-10)
(487.474 8.94169 -2.08226e-10)
(487.347 8.10471 -4.06644e-11)
(487.096 9.98023 2.87279e-10)
(486.919 8.98265 1.60073e-10)
(486.712 10.7644 -1.64951e-10)
(486.411 10.0976 -1.40525e-10)
(486.324 11.2996 1.85089e-10)
(485.827 11.3431 2.94211e-10)
(488.1 0.325169 -7.24404e-09)
(488.087 0.9136 2.13441e-09)
(488.071 1.3054 -6.95388e-10)
(488.028 1.99658 -1.87539e-11)
(487.992 2.38541 -1.83498e-10)
(487.929 3.05647 -6.06175e-10)
(487.866 3.49182 -3.30138e-10)
(487.79 4.07737 3.96732e-10)
(487.693 4.62185 7.78831e-10)
(487.611 5.04984 7.17084e-10)
(487.476 5.77499 4.37932e-10)
(487.389 5.96803 3.13473e-10)
(487.218 6.94743 6.93621e-11)
(487.124 6.83208 -2.87492e-10)
(486.918 8.1281 -4.04072e-10)
(486.816 7.65271 -2.37775e-10)
(486.58 9.29191 -1.70156e-10)
(486.46 8.46069 -1.59624e-11)
(486.212 10.3828 2.59467e-10)
(486.046 9.35425 1.27638e-10)
(485.836 11.2326 -1.65474e-10)
(485.551 10.4862 -1.53164e-10)
(485.46 11.8205 1.59111e-10)
(484.98 11.7525 3.03545e-10)
(487.113 0.338612 -7.28234e-09)
(487.1 0.946818 2.09258e-09)
(487.084 1.35648 -7.20885e-10)
(487.043 2.07134 -1.85803e-11)
(487.008 2.47669 -2.07552e-10)
(486.946 3.17303 -6.07657e-10)
(486.886 3.62332 -3.06504e-10)
(486.812 4.2354 4.41999e-10)
(486.717 4.79344 8.44015e-10)
(486.639 5.24867 7.5645e-10)
(486.507 5.98672 4.53218e-10)
(486.424 6.20666 3.00108e-10)
(486.257 7.19975 2.47855e-11)
(486.168 7.10906 -3.11039e-10)
(485.966 8.42206 -4.10084e-10)
(485.87 7.96575 -2.59878e-10)
(485.638 9.62984 -2.15312e-10)
(485.525 8.80531 -3.73289e-11)
(485.28 10.7708 3.05028e-10)
(485.125 9.71485 1.83131e-10)
(484.914 11.686 -1.31974e-10)
(484.644 10.8615 -1.44721e-10)
(484.549 12.3268 1.45784e-10)
(484.088 12.1466 3.08816e-10)
(486.075 0.351498 -7.30592e-09)
(486.062 0.978678 2.09951e-09)
(486.047 1.40541 -7.2336e-10)
(486.006 2.1431 -1.30961e-11)
(485.973 2.56419 -1.98196e-10)
(485.913 3.285 -6.03805e-10)
(485.855 3.74946 -3.06633e-10)
(485.784 4.38734 3.93851e-10)
(485.692 4.95817 7.96488e-10)
(485.617 5.43997 7.63137e-10)
(485.489 6.19011 4.64073e-10)
(485.409 6.43635 3.10128e-10)
(485.247 7.44221 3.47326e-11)
(485.162 7.37575 -3.02901e-10)
(484.965 8.70465 -4.0077e-10)
(484.875 8.26731 -2.55573e-10)
(484.648 9.95484 -2.10457e-10)
(484.542 9.13773 -2.82239e-11)
(484.3 11.1439 3.1616e-10)
(484.156 10.064 1.92296e-10)
(483.944 12.1234 -1.22271e-10)
(483.69 11.223 -1.35973e-10)
(483.592 12.8179 1.61041e-10)
(483.149 12.5251 2.82187e-10)
(484.985 0.363797 -7.33506e-09)
(484.973 1.00911 2.14674e-09)
(484.958 1.45209 -7.00547e-10)
(484.919 2.21169 -5.67153e-11)
(484.887 2.64769 -2.54642e-10)
(484.83 3.39211 -6.21427e-10)
(484.774 3.86993 -2.81072e-10)
(484.705 4.53284 4.11531e-10)
(484.617 5.11567 8.04123e-10)
(484.545 5.62336 7.54862e-10)
(484.421 6.38476 4.38679e-10)
(484.345 6.65671 3.25524e-10)
(484.187 7.67442 9.27758e-11)
(484.107 7.63172 -3.08949e-10)
(483.914 8.97543 -4.7122e-10)
(483.83 8.55689 -2.79677e-10)
(483.608 10.2664 -1.94661e-10)
(483.51 9.45724 -2.33939e-11)
(483.273 11.5017 3.11645e-10)
(483.139 10.4012 1.78777e-10)
(482.926 12.5439 -1.49029e-10)
(482.689 11.57 -1.22181e-10)
(482.587 13.2929 2.1258e-10)
(482.163 12.8875 3.16269e-10)
(483.845 0.375486 -7.32628e-09)
(483.833 1.03806 2.17791e-09)
(483.819 1.49641 -6.87593e-10)
(483.781 2.27697 -4.54951e-11)
(483.751 2.72701 -2.50147e-10)
(483.695 3.49414 -6.23316e-10)
(483.641 3.98447 -2.8647e-10)
(483.576 4.67159 4.56831e-10)
(483.491 5.26557 8.44473e-10)
(483.422 5.79845 7.35886e-10)
(483.302 6.57027 4.12228e-10)
(483.231 6.86734 2.95032e-10)
(483.077 7.89598 5.42723e-11)
(483.003 7.87659 -3.00157e-10)
(482.815 9.23402 -4.11731e-10)
(482.737 8.83406 -2.30647e-10)
(482.519 10.5641 -2.05857e-10)
(482.43 9.76332 -4.25193e-11)
(482.196 11.8435 2.84851e-10)
(482.073 10.7257 1.50466e-10)
(481.861 12.947 -1.33228e-10)
(481.64 11.9014 -1.12648e-10)
(481.535 13.7505 2.18741e-10)
(481.131 13.233 3.17119e-10)
(482.654 0.38655 -7.34401e-09)
(482.641 1.06549 2.15481e-09)
(482.629 1.53832 -7.49353e-10)
(482.591 2.33886 -3.3724e-11)
(482.563 2.80201 -2.23984e-10)
(482.509 3.59091 -6.30784e-10)
(482.458 4.09282 -2.70149e-10)
(482.396 4.8033 4.36876e-10)
(482.314 5.40753 7.86329e-10)
(482.249 5.96487 7.54223e-10)
(482.133 6.74622 4.52159e-10)
(482.066 7.06782 2.95531e-10)
(481.917 8.10647 7.65606e-11)
(481.848 8.10995 -3.11793e-10)
(481.665 9.48 -4.6438e-10)
(481.594 9.09842 -2.61485e-10)
(481.382 10.8475 -2.17374e-10)
(481.3 10.0555 -3.2378e-11)
(481.071 12.169 3.14589e-10)
(480.958 11.0368 1.45734e-10)
(480.747 13.3318 -1.73524e-10)
(480.543 12.2167 -1.32578e-10)
(480.436 14.1894 1.59534e-10)
(480.051 13.5612 2.8274e-10)
(481.411 0.396978 -7.42645e-09)
(481.399 1.09138 2.1373e-09)
(481.387 1.57778 -7.52158e-10)
(481.351 2.39728 -6.34117e-11)
(481.324 2.8726 -2.24647e-10)
(481.273 3.68228 -6.09408e-10)
(481.224 4.19482 -2.81511e-10)
(481.164 4.92774 4.56435e-10)
(481.086 5.54127 8.34835e-10)
(481.025 6.12228 7.67581e-10)
(480.914 6.91221 4.87731e-10)
(480.851 7.25772 3.01612e-10)
(480.707 8.30543 4.72187e-11)
(480.644 8.33135 -3.18651e-10)
(480.466 9.71297 -4.42481e-10)
(480.401 9.34957 -2.67049e-10)
(480.194 11.1163 -2.00124e-10)
(480.12 10.3333 3.92849e-12)
(479.896 12.4777 3.27514e-10)
(479.794 11.3338 1.76317e-10)
(479.585 13.6978 -1.74238e-10)
(479.397 12.5153 -1.58166e-10)
(479.287 14.6092 1.60538e-10)
(478.923 13.872 2.99259e-10)
(480.117 0.406759 -7.4101e-09)
(480.105 1.1157 2.19779e-09)
(480.094 1.61473 -6.97914e-10)
(480.059 2.45219 -5.10764e-11)
(480.034 2.9387 -2.59801e-10)
(479.985 3.76817 -6.41277e-10)
(479.939 4.29033 -2.9894e-10)
(479.882 5.04474 4.52747e-10)
(479.807 5.66657 8.37774e-10)
(479.75 6.27038 7.81338e-10)
(479.643 7.06791 4.53344e-10)
(479.586 7.43666 2.79322e-10)
(479.446 8.49244 3.49412e-11)
(479.389 8.54034 -3.25588e-10)
(479.217 9.93248 -4.38e-10)
(479.159 9.58706 -2.5116e-10)
(478.957 11.3701 -1.70416e-10)
(478.892 10.5964 4.14157e-11)
(478.672 12.7697 3.16902e-10)
(478.581 11.6158 1.2433e-10)
(478.374 14.0437 -1.62818e-10)
(478.203 12.7977 -1.37377e-10)
(478.09 15.0107 1.96483e-10)
(477.747 14.1656 3.48108e-10)
(478.772 0.415881 -7.42266e-09)
(478.76 1.13842 2.17332e-09)
(478.75 1.64915 -7.76469e-10)
(478.716 2.50351 -5.74805e-11)
(478.693 3.00025 -1.90022e-10)
(478.645 3.84847 -6.06129e-10)
(478.603 4.37926 -3.11071e-10)
(478.549 5.15417 4.55151e-10)
(478.478 5.78325 8.04848e-10)
(478.425 6.40899 7.0621e-10)
(478.322 7.21305 4.54275e-10)
(478.269 7.60429 3.4979e-10)
(478.135 8.66709 5.92749e-11)
(478.084 8.73647 -3.38447e-10)
(477.917 10.1381 -4.33327e-10)
(477.866 9.8104 -2.29137e-10)
(477.67 11.6085 -1.95396e-10)
(477.613 10.8444 -2.37204e-11)
(477.399 13.0444 3.30899e-10)
(477.318 11.8821 1.5129e-10)
(477.114 14.3685 -1.82152e-10)
(476.96 13.0636 -1.42935e-10)
(476.845 15.3928 2.09335e-10)
(476.522 14.4407 3.21969e-10)
(477.375 0.424328 -7.50928e-09)
(477.364 1.15951 2.15448e-09)
(477.354 1.68098 -7.67305e-10)
(477.321 2.55118 -7.04441e-11)
(477.3 3.05717 -2.38784e-10)
(477.255 3.92311 -6.3334e-10)
(477.215 4.46151 -2.99283e-10)
(477.164 5.25595 4.4514e-10)
(477.097 5.89121 8.20307e-10)
(477.047 6.53798 7.44811e-10)
(476.949 7.34744 4.61418e-10)
(476.902 7.7604 3.32589e-10)
(476.773 8.82906 7.17517e-11)
(476.727 8.91936 -3.04879e-10)
(476.567 10.3292 -4.28361e-10)
(476.523 10.0191 -2.5227e-10)
(476.333 11.831 -1.89127e-10)
(476.284 11.0766 1.0271e-11)
(476.075 13.3014 3.38828e-10)
(476.005 12.1322 1.84634e-10)
(475.805 14.6717 -1.13068e-10)
(475.668 13.3119 -1.65164e-10)
(475.55 15.7554 1.48137e-10)
(475.248 14.6981 2.95075e-10)
(475.926 0.432082 -7.46134e-09)
(475.915 1.17893 2.22632e-09)
(475.907 1.71015 -7.28054e-10)
(475.875 2.59513 -3.07893e-11)
(475.856 3.10936 -2.08821e-10)
(475.813 3.99201 -6.0953e-10)
(475.776 4.53699 -2.8085e-10)
(475.727 5.34999 4.60335e-10)
(475.664 5.99037 8.2987e-10)
(475.619 6.65726 7.47055e-10)
(475.525 7.47098 4.56058e-10)
(475.483 7.90487 3.14884e-10)
(475.359 8.97815 4.59806e-11)
(475.32 9.08875 -3.30293e-10)
(475.165 10.5056 -4.68533e-10)
(475.128 10.2127 -2.99568e-10)
(474.945 12.037 -2.41653e-10)
(474.905 11.2927 2.21662e-11)
(474.702 13.5405 3.40711e-10)
(474.642 12.3658 1.73908e-10)
(474.446 14.953 -1.26247e-10)
(474.325 13.5428 -1.26255e-10)
(474.205 16.0965 1.87099e-10)
(473.926 14.9357 3.24508e-10)
(474.426 0.43913 -7.50669e-09)
(474.416 1.19665 2.2069e-09)
(474.408 1.73663 -7.68514e-10)
(474.378 2.63529 -3.1138e-11)
(474.36 3.15676 -2.22001e-10)
(474.319 4.05506 -6.38121e-10)
(474.285 4.60562 -2.68401e-10)
(474.24 5.43621 4.56497e-10)
(474.18 6.08065 8.13816e-10)
(474.139 6.76677 7.74962e-10)
(474.05 7.58361 4.63557e-10)
(474.012 8.03764 3.09298e-10)
(473.894 9.11425 8.47712e-11)
(473.861 9.24451 -3.13345e-10)
(473.712 10.6669 -4.63725e-10)
(473.683 10.3909 -2.52137e-10)
(473.506 12.2261 -2.09053e-10)
(473.474 11.4919 -2.43041e-11)
(473.278 13.761 3.42334e-10)
(473.229 12.5822 1.62678e-10)
(473.037 15.2127 -1.66652e-10)
(472.932 13.7569 -1.14859e-10)
(472.81 16.4148 1.88424e-10)
(472.554 15.1524 3.02672e-10)
(472.875 0.445463 -7.58681e-09)
(472.864 1.21265 2.21556e-09)
(472.857 1.76038 -7.3378e-10)
(472.828 2.67161 -7.20373e-11)
(472.813 3.19931 -2.16445e-10)
(472.774 4.1122 -5.93057e-10)
(472.742 4.6673 -3.07358e-10)
(472.7 5.51452 4.65643e-10)
(472.645 6.16197 8.62763e-10)
(472.607 6.86646 7.38452e-10)
(472.523 7.68528 4.71117e-10)
(472.491 8.15868 3.6095e-10)
(472.377 9.23735 5.1497e-11)
(472.351 9.38661 -3.08605e-10)
(472.207 10.8131 -4.11653e-10)
(472.186 10.5534 -2.83092e-10)
(472.015 12.398 -2.02852e-10)
(471.993 11.6738 2.38861e-11)
(471.802 13.9623 3.09986e-10)
(471.764 12.7804 1.68868e-10)
(471.578 15.4507 -1.13228e-10)
(471.488 13.9541 -1.4421e-10)
(471.365 16.7101 1.96098e-10)
(471.131 15.3487 3.50848e-10)
(471.271 0.45108 -7.57902e-09)
(471.261 1.22693 2.26189e-09)
(471.255 1.7814 -7.04792e-10)
(471.227 2.70409 -3.70783e-11)
(471.214 3.23698 -2.55968e-10)
(471.177 4.16339 -6.36301e-10)
(471.148 4.722 -2.74857e-10)
(471.109 5.58485 4.95124e-10)
(471.057 6.23423 8.92804e-10)
(471.024 6.95623 7.74048e-10)
(470.944 7.77589 4.31953e-10)
(470.917 8.26796 3.16559e-10)
(470.809 9.34741 7.83007e-11)
(470.788 9.51509 -2.84604e-10)
(470.651 10.9442 -3.92685e-10)
(470.637 10.7004 -2.65031e-10)
(470.472 12.5524 -2.51764e-10)
(470.459 11.8381 -1.84499e-11)
(470.275 14.1439 3.25372e-10)
(470.249 12.9598 1.81403e-10)
(470.068 15.6668 -9.30759e-11)
(469.992 14.1346 -1.32923e-10)
(469.869 16.9816 1.424e-10)
(469.658 15.5237 3.04206e-10)
(469.616 0.45599 -7.66897e-09)
(469.606 1.23951 2.19641e-09)
(469.6 1.79972 -7.92707e-10)
(469.574 2.73275 -8.64244e-11)
(469.562 3.2698 -2.56936e-10)
(469.528 4.20865 -6.59457e-10)
(469.502 4.7697 -3.21761e-10)
(469.466 5.64716 4.29433e-10)
(469.418 6.29739 8.08891e-10)
(469.389 7.036 7.29427e-10)
(469.314 7.85538 4.3299e-10)
(469.292 8.36539 2.97516e-10)
(469.189 9.44436 3.02575e-11)
(469.175 9.62993 -3.5084e-10)
(469.043 11.0601 -4.84116e-10)
(469.036 10.8318 -3.0364e-10)
(468.878 12.6896 -2.45425e-10)
(468.874 11.9848 -3.67437e-11)
(468.697 14.3058 2.85023e-10)
(468.681 13.1197 1.27035e-10)
(468.506 15.8603 -1.8472e-10)
(468.445 14.2978 -1.69557e-10)
(468.321 17.2289 1.50253e-10)
(468.134 15.6773 2.93315e-10)
(467.909 0.460204 -7.63465e-09)
(467.899 1.25041 2.24455e-09)
(467.894 1.81538 -7.83212e-10)
(467.869 2.75764 -2.20771e-11)
(467.859 3.29782 -2.17707e-10)
(467.827 4.24803 -6.40767e-10)
(467.804 4.81044 -2.5457e-10)
(467.771 5.7015 4.80627e-10)
(467.727 6.35145 8.39563e-10)
(467.702 7.10575 8.06933e-10)
(467.631 7.92364 4.89352e-10)
(467.614 8.45087 3.25086e-10)
(467.517 9.52807 1.06501e-10)
(467.509 9.73104 -2.99945e-10)
(467.383 11.1609 -4.50715e-10)
(467.384 10.9477 -2.91337e-10)
(467.232 12.8095 -2.53162e-10)
(467.237 12.1142 1.38024e-12)
(467.066 14.4481 3.08252e-10)
(467.061 13.2602 1.27469e-10)
(466.892 16.0308 -1.35608e-10)
(466.846 14.4425 -1.45516e-10)
(466.723 17.4509 1.51201e-10)
(466.559 15.8094 3.37704e-10)
(466.15 0.463733 -7.65944e-09)
(466.14 1.25966 2.26217e-09)
(466.136 1.82842 -7.8023e-10)
(466.112 2.77881 -1.46778e-11)
(466.104 3.32112 -2.11752e-10)
(466.074 4.28159 -6.36199e-10)
(466.054 4.84431 -2.47932e-10)
(466.024 5.74791 4.90485e-10)
(465.983 6.39644 8.49792e-10)
(465.962 7.16548 7.47558e-10)
(465.897 7.98066 4.27893e-10)
(465.884 8.52432 3.39518e-10)
(465.793 9.59843 5.0242e-11)
(465.791 9.81828 -3.54672e-10)
(465.671 11.2463 -4.38371e-10)
(465.679 11.0481 -2.7898e-10)
(465.534 12.9121 -2.39895e-10)
(465.547 12.2262 1.46382e-11)
(465.382 14.571 3.24707e-10)
(465.389 13.3814 1.4043e-10)
(465.225 16.1789 -1.22159e-10)
(465.193 14.5673 -1.33817e-10)
(465.074 17.6459 1.73304e-10)
(464.932 15.9199 3.57876e-10)
(464.338 0.46659 -7.71049e-09)
(464.329 1.26728 2.31894e-09)
(464.326 1.83889 -7.56493e-10)
(464.303 2.79633 -7.34158e-11)
(464.297 3.33977 -2.12743e-10)
(464.268 4.30943 -5.8089e-10)
(464.251 4.8714 -2.75724e-10)
(464.224 5.7865 4.43654e-10)
(464.187 6.43245 8.60239e-10)
(464.17 7.21527 8.13125e-10)
(464.109 8.02646 4.78423e-10)
(464.102 8.58574 3.05996e-10)
(464.016 9.65535 7.13808e-11)
(464.02 9.89151 -2.82169e-10)
(463.907 11.3161 -4.54183e-10)
(463.923 11.1327 -3.06043e-10)
(463.783 12.9973 -2.11777e-10)
(463.806 12.321 2.80961e-11)
(463.647 14.6745 3.26878e-10)
(463.664 13.4837 1.28189e-10)
(463.506 16.3053 -1.52273e-10)
(463.488 14.6715 -1.15417e-10)
(463.372 17.8125 1.81671e-10)
(463.253 16.0088 2.90266e-10)
(462.475 0.468779 -7.77102e-09)
(462.465 1.2733 2.25855e-09)
(462.463 1.84682 -7.93741e-10)
(462.442 2.81022 -8.85838e-11)
(462.437 3.35381 -2.75688e-10)
(462.411 4.33161 -6.92443e-10)
(462.396 4.89178 -2.83163e-10)
(462.372 5.81736 5.39647e-10)
(462.339 6.45959 9.1328e-10)
(462.326 7.25522 8.23094e-10)
(462.269 8.06113 5.08235e-10)
(462.267 8.6352 3.55407e-10)
(462.187 9.69881 7.852e-11)
(462.197 9.95068 -3.17617e-10)
(462.089 11.3703 -4.6305e-10)
(462.113 11.2014 -2.93389e-10)
(461.98 13.0647 -2.41721e-10)
(462.012 12.3983 -3.69948e-11)
(461.86 14.7585 2.77192e-10)
(461.888 13.5671 1.09229e-10)
(461.736 16.41 -1.46106e-10)
(461.731 14.7556 -8.38201e-11)
(461.618 17.9508 2.41971e-10)
(461.522 16.0752 3.67569e-10)
(460.558 0.470303 -7.83242e-09)
(460.549 1.27771 2.27665e-09)
(460.548 1.85221 -7.63239e-10)
(460.527 2.8205 -9.62019e-11)
(460.525 3.36328 -2.56239e-10)
(460.5 4.34815 -6.4338e-10)
(460.488 4.9055 -2.76618e-10)
(460.468 5.84055 5.06625e-10)
(460.438 6.47793 8.3201e-10)
(460.429 7.28543 7.68957e-10)
(460.377 8.08478 4.88217e-10)
(460.38 8.6728 2.93361e-10)
(460.304 9.72891 4.21039e-11)
(460.321 9.99583 -3.26034e-10)
(460.219 11.4086 -4.42989e-10)
(460.251 11.254 -2.46872e-10)
(460.124 13.1141 -2.34975e-10)
(460.165 12.4575 -3.67494e-12)
(460.019 14.8226 3.45842e-10)
(460.059 13.6312 1.22381e-10)
(459.912 16.4932 -1.77356e-10)
(459.922 14.8202 -1.41793e-10)
(459.812 18.0615 2.05672e-10)
(459.737 16.1198 3.5604e-10)
(458.589 0.471159 -7.7962e-09)
(458.581 1.28052 2.31097e-09)
(458.58 1.85506 -7.8742e-10)
(458.561 2.82717 -8.16171e-11)
(458.56 3.36817 -2.71254e-10)