/*--------------------------------*- C++ -*----------------------------------*\
  =========                 |
  \\      /  F ield         | OpenFOAM: The Open Source CFD Toolbox
   \\    /   O peration     | Website:  https://openfoam.org
    \\  /    A nd           | Version:  10
     \\/     M anipulation  |
\*---------------------------------------------------------------------------*/
FoamFile
{
    format      ascii;
    class       volScalarField;
    location    "0.2";
    object      Ma;
}
// * * * * * * * * * * * * * * * * * * * * * * * * * * * * * * * * * * * * * //

dimensions      [0 0 0 0 0 0 0];

internalField   nonuniform List<scalar> 
4176
(
1.84511
1.84503
1.84483
1.8446
1.84418
1.8438
1.84315
1.84265
1.84176
1.84113
1.84003
1.83927
1.83796
1.83705
1.8356
1.83445
1.833
1.83145
1.83013
1.82802
1.82708
1.82413
1.82396
1.82015
1.84499
1.84492
1.84471
1.84447
1.84405
1.84365
1.843
1.84247
1.84158
1.84092
1.8398
1.83901
1.83768
1.83674
1.83525
1.83409
1.83259
1.83101
1.82966
1.82751
1.82656
1.82349
1.82328
1.81909
1.84464
1.84456
1.84437
1.84413
1.84372
1.84333
1.8427
1.84217
1.84132
1.84066
1.83958
1.8388
1.8375
1.83659
1.83512
1.83399
1.8325
1.83098
1.82966
1.82756
1.82666
1.82365
1.82344
1.81912
1.84399
1.84391
1.84372
1.84348
1.84307
1.84268
1.84205
1.84153
1.84067
1.84002
1.83893
1.83816
1.83685
1.83595
1.83446
1.83335
1.83185
1.83029
1.82904
1.82687
1.82601
1.82305
1.82286
1.81874
1.84305
1.84297
1.84278
1.84254
1.84214
1.84175
1.84113
1.84061
1.83977
1.83913
1.83805
1.83729
1.83599
1.83511
1.83363
1.83254
1.83102
1.8295
1.82827
1.82609
1.82524
1.82231
1.82212
1.81814
1.8418
1.84172
1.84153
1.8413
1.8409
1.84051
1.83991
1.83938
1.83856
1.83791
1.83685
1.83609
1.83481
1.83393
1.83246
1.83139
1.82985
1.8284
1.8271
1.82499
1.82411
1.82122
1.82099
1.81701
1.84025
1.84017
1.83999
1.83975
1.83936
1.83898
1.83838
1.83786
1.83705
1.83641
1.83537
1.83461
1.83335
1.83248
1.83102
1.82998
1.82843
1.82704
1.82569
1.82365
1.82275
1.8199
1.81965
1.81569
1.8384
1.83833
1.83814
1.83791
1.83753
1.83715
1.83656
1.83605
1.83524
1.83461
1.83358
1.83284
1.83159
1.83073
1.82929
1.82826
1.82672
1.82538
1.824
1.82203
1.8211
1.8183
1.81803
1.81412
1.83626
1.83618
1.836
1.83577
1.83539
1.83502
1.83444
1.83393
1.83314
1.83251
1.8315
1.83077
1.82954
1.82869
1.82727
1.82627
1.82473
1.82344
1.82203
1.82014
1.81918
1.81644
1.81615
1.81231
1.83381
1.83374
1.83356
1.83333
1.83296
1.83259
1.83202
1.83152
1.83074
1.83013
1.82913
1.82841
1.82719
1.82636
1.82496
1.82398
1.82245
1.82121
1.81979
1.81796
1.81698
1.81431
1.814
1.81022
1.83107
1.831
1.83083
1.8306
1.83023
1.82987
1.82931
1.82882
1.82805
1.82745
1.82647
1.82576
1.82456
1.82375
1.82236
1.82141
1.8199
1.8187
1.81727
1.81551
1.81451
1.81191
1.81158
1.80788
1.82804
1.82797
1.8278
1.82758
1.82722
1.82686
1.8263
1.82582
1.82507
1.82448
1.82351
1.82282
1.82164
1.82085
1.81948
1.81856
1.81706
1.8159
1.81447
1.81278
1.81176
1.80924
1.8089
1.80527
1.82471
1.82464
1.82447
1.82426
1.8239
1.82355
1.82301
1.82254
1.8218
1.82122
1.82027
1.81959
1.81844
1.81766
1.81632
1.81542
1.81395
1.81282
1.8114
1.80977
1.80874
1.8063
1.80595
1.80239
1.82109
1.82102
1.82086
1.82064
1.8203
1.81996
1.81942
1.81896
1.81824
1.81767
1.81674
1.81608
1.81495
1.81419
1.81287
1.812
1.81055
1.80946
1.80805
1.80648
1.80545
1.80308
1.80273
1.79926
1.81718
1.81711
1.81695
1.81674
1.8164
1.81607
1.81555
1.8151
1.81439
1.81384
1.81293
1.81228
1.81117
1.81044
1.80915
1.8083
1.80688
1.80583
1.80442
1.80293
1.80189
1.79959
1.79925
1.79585
1.81297
1.81291
1.81275
1.81255
1.81221
1.81189
1.81138
1.81095
1.81025
1.80971
1.80883
1.8082
1.80712
1.80641
1.80514
1.80432
1.80293
1.80192
1.80053
1.7991
1.79805
1.79584
1.79549
1.79219
1.80848
1.80841
1.80826
1.80806
1.80774
1.80742
1.80693
1.80651
1.80583
1.80531
1.80444
1.80384
1.80278
1.8021
1.80086
1.80007
1.7987
1.79773
1.79636
1.79499
1.79395
1.79182
1.79147
1.78826
1.8037
1.80363
1.80348
1.80329
1.80298
1.80267
1.80219
1.80178
1.80112
1.80062
1.79978
1.7992
1.79816
1.7975
1.79629
1.79554
1.7942
1.79327
1.79193
1.79062
1.78958
1.78754
1.78718
1.78406
1.79863
1.79856
1.79842
1.79823
1.79793
1.79763
1.79716
1.79677
1.79613
1.79565
1.79483
1.79427
1.79327
1.79264
1.79146
1.79074
1.78943
1.78854
1.78722
1.78598
1.78495
1.78299
1.78263
1.77961
1.79327
1.79321
1.79307
1.79289
1.79259
1.79231
1.79186
1.79148
1.79086
1.7904
1.7896
1.78907
1.7881
1.78749
1.78635
1.78566
1.78439
1.78354
1.78225
1.78108
1.78005
1.77818
1.77782
1.77489
1.78763
1.78757
1.78744
1.78726
1.78698
1.78671
1.78627
1.78591
1.78531
1.78487
1.7841
1.78359
1.78265
1.78208
1.78096
1.78031
1.77908
1.77827
1.77702
1.7759
1.77489
1.7731
1.77274
1.76992
1.78171
1.78165
1.78152
1.78135
1.78108
1.78082
1.7804
1.78006
1.77948
1.77906
1.77832
1.77784
1.77692
1.77639
1.77531
1.77469
1.7735
1.77273
1.77152
1.77046
1.76947
1.76777
1.76741
1.76468
1.77551
1.77545
1.77532
1.77517
1.7749
1.77466
1.77425
1.77393
1.77337
1.77298
1.77226
1.77181
1.77093
1.77042
1.76938
1.76881
1.76765
1.76693
1.76576
1.76476
1.76379
1.76217
1.76182
1.75919
1.76903
1.76897
1.76885
1.7687
1.76845
1.76822
1.76783
1.76753
1.76699
1.76662
1.76593
1.76551
1.76466
1.76419
1.76319
1.76265
1.76154
1.76087
1.75973
1.75879
1.75784
1.75632
1.75598
1.75344
1.76227
1.76222
1.7621
1.76196
1.76172
1.76151
1.76113
1.76085
1.76034
1.76
1.75934
1.75895
1.75813
1.75769
1.75673
1.75623
1.75516
1.75453
1.75344
1.75256
1.75164
1.7502
1.74988
1.74745
1.75525
1.7552
1.75509
1.75495
1.75473
1.75452
1.75417
1.75391
1.75342
1.7531
1.75247
1.75211
1.75133
1.75093
1.75001
1.74955
1.74852
1.74794
1.74689
1.74607
1.74518
1.74383
1.74352
1.74119
1.74796
1.7479
1.7478
1.74768
1.74746
1.74727
1.74694
1.74669
1.74623
1.74594
1.74534
1.74501
1.74427
1.7439
1.74302
1.7426
1.74162
1.74109
1.74008
1.73933
1.73847
1.7372
1.73691
1.73469
1.7404
1.74035
1.74025
1.74013
1.73993
1.73976
1.73944
1.73922
1.73878
1.73852
1.73795
1.73765
1.73694
1.73662
1.73577
1.7354
1.73446
1.73398
1.73302
1.73232
1.7315
1.73032
1.73003
1.72793
1.73258
1.73253
1.73244
1.73233
1.73214
1.73198
1.73168
1.73148
1.73107
1.73083
1.73029
1.73003
1.72936
1.72907
1.72827
1.72794
1.72704
1.72661
1.72569
1.72506
1.72428
1.72319
1.72291
1.72092
1.7245
1.72446
1.72437
1.72427
1.72409
1.72395
1.72367
1.72349
1.7231
1.72289
1.72238
1.72215
1.72151
1.72126
1.7205
1.72022
1.71937
1.71899
1.71812
1.71754
1.7168
1.7158
1.71555
1.71366
1.71617
1.71613
1.71605
1.71596
1.71579
1.71566
1.7154
1.71524
1.71487
1.71469
1.71421
1.71402
1.71342
1.71321
1.71249
1.71225
1.71144
1.71111
1.71029
1.70977
1.70908
1.70816
1.70793
1.70615
1.70759
1.70755
1.70748
1.70739
1.70724
1.70712
1.70688
1.70674
1.7064
1.70624
1.7058
1.70563
1.70507
1.7049
1.70422
1.70402
1.70326
1.70299
1.70222
1.70176
1.70111
1.70027
1.70005
1.69839
1.69877
1.69873
1.69866
1.69858
1.69844
1.69834
1.69812
1.698
1.69768
1.69755
1.69713
1.697
1.69647
1.69634
1.6957
1.69555
1.69484
1.69461
1.69389
1.69349
1.69289
1.69213
1.69193
1.69039
1.6897
1.68966
1.6896
1.68953
1.6894
1.68931
1.68911
1.68901
1.68872
1.68861
1.68823
1.68812
1.68763
1.68753
1.68694
1.68683
1.68616
1.68599
1.68531
1.68498
1.68442
1.68374
1.68357
1.68214
1.6804
1.68036
1.6803
1.68024
1.68012
1.68005
1.67986
1.67978
1.67951
1.67943
1.67908
1.67901
1.67855
1.67849
1.67793
1.67787
1.67724
1.67712
1.67649
1.67622
1.67571
1.67511
1.67496
1.67364
1.67086
1.67082
1.67077
1.67072
1.67061
1.67055
1.67038
1.67032
1.67008
1.67002
1.66969
1.66965
1.66923
1.66921
1.66869
1.66867
1.66808
1.66801
1.66743
1.66722
1.66676
1.66623
1.66611
1.66491
1.66109
1.66106
1.66101
1.66097
1.66087
1.66082
1.66067
1.66062
1.6604
1.66037
1.66007
1.66006
1.65967
1.65969
1.65921
1.65923
1.65869
1.65867
1.65813
1.65798
1.65756
1.65711
1.65703
1.65593
1.6511
1.65107
1.65102
1.65099
1.6509
1.65086
1.65073
1.6507
1.6505
1.6505
1.65022
1.65025
1.64989
1.64994
1.6495
1.64956
1.64906
1.64909
1.6486
1.6485
1.64813
1.64774
1.6477
1.64672
1.64088
1.64085
1.64081
1.64078
1.64071
1.64068
1.64056
1.64055
1.64038
1.64039
1.64015
1.6402
1.63987
1.63996
1.63955
1.63966
1.6392
1.63928
1.63883
1.6388
1.63846
1.63815
1.63814
1.63727
1.63045
1.63042
1.63038
1.63036
1.63029
1.63028
1.63018
1.63019
1.63003
1.63007
1.62985
1.62993
1.62963
1.62976
1.62939
1.62954
1.62912
1.62925
1.62884
1.62886
1.62857
1.62833
1.62835
1.62759
1.6198
1.61977
1.61974
1.61972
1.61967
1.61967
1.61958
1.6196
1.61947
1.61953
1.61933
1.61944
1.61917
1.61933
1.61899
1.61919
1.61881
1.61899
1.61862
1.6187
1.61845
1.61828
1.61834
1.61767
1.60893
1.60891
1.60888
1.60887
1.60883
1.60884
1.60876
1.6088
1.60869
1.60877
1.6086
1.60873
1.6085
1.60869
1.60839
1.60862
1.60828
1.60851
1.60818
1.60832
1.60811
1.60801
1.60811
1.60752
1.59786
1.59784
1.59782
1.59781
1.59778
1.5978
1.59774
1.5978
1.5977
1.5978
1.59766
1.59782
1.59761
1.59784
1.59756
1.59784
1.59753
1.59781
1.59751
1.59772
1.59755
1.59752
1.59765
1.59716
1.58659
1.58656
1.58655
1.58655
1.58652
1.58655
1.58651
1.58658
1.5865
1.58663
1.58651
1.58669
1.58652
1.58677
1.58653
1.58685
1.58657
1.58691
1.58664
1.58691
1.58676
1.58681
1.58697
1.58658
1.57511
1.57508
1.57507
1.57508
1.57506
1.57511
1.57507
1.57516
1.57511
1.57525
1.57515
1.57537
1.57522
1.57551
1.5753
1.57565
1.5754
1.57579
1.57555
1.57588
1.57576
1.57589
1.57607
1.57578
1.56343
1.56341
1.5634
1.56341
1.56341
1.56346
1.56344
1.56355
1.56351
1.56367
1.5636
1.56384
1.56372
1.56404
1.56386
1.56425
1.56403
1.56447
1.56426
1.56465
1.56456
1.56477
1.56496
1.56477
1.55156
1.55154
1.55153
1.55155
1.55155
1.55162
1.55162
1.55174
1.55172
1.5519
1.55185
1.55212
1.55202
1.55237
1.55222
1.55266
1.55247
1.55295
1.55277
1.55322
1.55315
1.55344
1.55363
1.55355
1.5395
1.53948
1.53948
1.5395
1.53952
1.53959
1.5396
1.53974
1.53974
1.53994
1.53991
1.5402
1.54013
1.54052
1.54039
1.54087
1.5407
1.54124
1.54108
1.5416
1.54154
1.54192
1.54211
1.54213
1.52725
1.52723
1.52724
1.52727
1.52729
1.52738
1.5274
1.52755
1.52757
1.52779
1.52779
1.5281
1.52805
1.52847
1.52838
1.52889
1.52875
1.52933
1.5292
1.52979
1.52974
1.5302
1.53039
1.53052
1.51483
1.51481
1.51482
1.51486
1.51489
1.51498
1.51502
1.51518
1.51522
1.51546
1.51548
1.51582
1.51579
1.51624
1.51617
1.51672
1.51661
1.51724
1.51713
1.51778
1.51774
1.5183
1.51848
1.51871
1.50223
1.50222
1.50223
1.50227
1.50231
1.50241
1.50247
1.50264
1.5027
1.50296
1.50299
1.50336
1.50336
1.50383
1.50379
1.50438
1.50429
1.50497
1.50487
1.5056
1.50555
1.50621
1.50638
1.5067
1.48947
1.48946
1.48947
1.48952
1.48957
1.48968
1.48974
1.48993
1.49
1.49028
1.49034
1.49072
1.49074
1.49125
1.49123
1.49186
1.49178
1.49253
1.49243
1.49324
1.49318
1.49392
1.4941
1.49451
1.47655
1.47654
1.47656
1.47661
1.47666
1.47678
1.47686
1.47706
1.47715
1.47744
1.47752
1.47793
1.47797
1.47851
1.4785
1.47917
1.47911
1.47991
1.4798
1.48069
1.48064
1.48145
1.48164
1.48214
1.46348
1.46346
1.46349
1.46354
1.4636
1.46373
1.46382
1.46403
1.46413
1.46445
1.46454
1.46497
1.46502
1.4656
1.4656
1.46632
1.46626
1.46713
1.46702
1.46798
1.46792
1.46881
1.46901
1.46959
1.45026
1.45025
1.45027
1.45033
1.4504
1.45053
1.45063
1.45086
1.45097
1.4513
1.4514
1.45186
1.45192
1.45254
1.45254
1.45332
1.45324
1.45418
1.45407
1.45509
1.45505
1.45599
1.4562
1.45686
1.4369
1.43689
1.43692
1.43698
1.43706
1.43719
1.4373
1.43754
1.43766
1.43801
1.43812
1.43861
1.43867
1.43933
1.43932
1.44016
1.44008
1.44107
1.44097
1.44203
1.44202
1.44301
1.44323
1.44396
1.42341
1.4234
1.42343
1.4235
1.42358
1.42372
1.42384
1.42409
1.42421
1.42459
1.42469
1.42522
1.42527
1.42598
1.42596
1.42684
1.42677
1.42779
1.42772
1.42881
1.42882
1.42986
1.43009
1.43089
1.4098
1.40979
1.40982
1.40989
1.40998
1.41012
1.41025
1.41051
1.41063
1.41103
1.41113
1.41169
1.41174
1.41248
1.41248
1.41337
1.41333
1.41437
1.41432
1.41544
1.41547
1.41656
1.4168
1.41766
1.39607
1.39606
1.3961
1.39616
1.39626
1.3964
1.39654
1.3968
1.39694
1.39735
1.39745
1.39803
1.39809
1.39884
1.39886
1.39977
1.39975
1.40081
1.40078
1.40193
1.40198
1.4031
1.40336
1.40428
1.38223
1.38222
1.38226
1.38232
1.38243
1.38257
1.38272
1.38298
1.38313
1.38354
1.38366
1.38424
1.38432
1.38508
1.38511
1.38604
1.38604
1.38711
1.38711
1.38828
1.38834
1.38951
1.38976
1.39075
1.36829
1.36827
1.36832
1.36838
1.36849
1.36863
1.36879
1.36904
1.36921
1.36962
1.36975
1.37034
1.37043
1.37119
1.37125
1.37218
1.3722
1.37329
1.3733
1.37449
1.37457
1.37577
1.37604
1.37707
1.35425
1.35423
1.35427
1.35434
1.35445
1.35459
1.35476
1.355
1.3552
1.35558
1.35575
1.35632
1.35643
1.3572
1.35726
1.35821
1.35824
1.35934
1.35937
1.36058
1.36067
1.3619
1.36218
1.36326
1.34011
1.34009
1.34013
1.3402
1.34031
1.34046
1.34062
1.34087
1.34107
1.34145
1.34164
1.3422
1.34233
1.34309
1.34317
1.34412
1.34417
1.34528
1.34532
1.34655
1.34666
1.34791
1.34819
1.34932
1.32588
1.32586
1.3259
1.32597
1.32607
1.32622
1.3264
1.32664
1.32685
1.32722
1.32743
1.32797
1.32813
1.32888
1.32898
1.32994
1.33
1.33111
1.33117
1.33241
1.33253
1.33381
1.33409
1.33526
1.31155
1.31153
1.31158
1.31164
1.31175
1.3119
1.31207
1.31231
1.31254
1.31289
1.31312
1.31366
1.31384
1.31458
1.31469
1.31565
1.31572
1.31685
1.31692
1.31817
1.3183
1.3196
1.31988
1.32109
1.29714
1.29712
1.29716
1.29723
1.29734
1.29749
1.29766
1.2979
1.29813
1.29848
1.29873
1.29925
1.29945
1.30019
1.30032
1.30127
1.30136
1.30249
1.30257
1.30383
1.30397
1.30529
1.30558
1.30682
1.28263
1.28261
1.28266
1.28272
1.28283
1.28298
1.28316
1.2834
1.28364
1.28399
1.28424
1.28476
1.28498
1.28571
1.28585
1.28681
1.28691
1.28805
1.28814
1.28941
1.28955
1.29089
1.29118
1.29245
1.26804
1.26802
1.26806
1.26813
1.26824
1.26839
1.26858
1.26882
1.26906
1.26941
1.26968
1.27019
1.27042
1.27116
1.27131
1.27228
1.27238
1.27353
1.27363
1.27491
1.27506
1.27641
1.2767
1.278
1.25336
1.25334
1.25338
1.25345
1.25357
1.25372
1.25391
1.25415
1.25441
1.25475
1.25505
1.25555
1.2558
1.25653
1.2567
1.25767
1.25778
1.25894
1.25904
1.26034
1.26049
1.26185
1.26214
1.26346
1.23859
1.23857
1.23862
1.23869
1.23881
1.23897
1.23917
1.23942
1.23968
1.24003
1.24034
1.24084
1.24112
1.24184
1.24203
1.243
1.24311
1.24428
1.24439
1.24569
1.24585
1.24722
1.24751
1.24885
1.22376
1.22373
1.22379
1.22386
1.22399
1.22415
1.22436
1.22462
1.22489
1.22525
1.22557
1.22606
1.22637
1.22708
1.2273
1.22826
1.22839
1.22956
1.22968
1.23099
1.23115
1.23252
1.23281
1.23416
1.20887
1.20885
1.2089
1.20898
1.20911
1.20929
1.2095
1.20976
1.21005
1.21041
1.21075
1.21124
1.21157
1.21226
1.21252
1.21345
1.21362
1.21478
1.2149
1.21621
1.21638
1.21776
1.21805
1.2194
1.19396
1.19394
1.194
1.19408
1.19421
1.19439
1.1946
1.19487
1.19516
1.19553
1.19588
1.19636
1.19672
1.19739
1.19769
1.19859
1.19879
1.19993
1.20006
1.20137
1.20154
1.20292
1.2032
1.20457
1.17907
1.17905
1.1791
1.17918
1.17931
1.17948
1.1797
1.17996
1.18025
1.18062
1.18097
1.18145
1.18182
1.18247
1.1828
1.18367
1.1839
1.18502
1.18517
1.18646
1.18663
1.18801
1.18829
1.18965
1.16421
1.16419
1.16423
1.16431
1.16443
1.1646
1.1648
1.16506
1.16534
1.1657
1.16604
1.16651
1.16688
1.16751
1.16785
1.16869
1.16895
1.17002
1.1702
1.17147
1.17165
1.17301
1.17328
1.17465
1.14942
1.1494
1.14943
1.1495
1.14961
1.14976
1.14995
1.15019
1.15044
1.15077
1.1511
1.15154
1.1519
1.1525
1.15284
1.15364
1.15392
1.15496
1.15515
1.1564
1.15657
1.15793
1.15819
1.15955
1.13469
1.13466
1.13469
1.13474
1.13483
1.13497
1.13512
1.13534
1.13557
1.13586
1.13616
1.13656
1.1369
1.13745
1.13778
1.13854
1.13881
1.1398
1.14001
1.14123
1.1414
1.14276
1.143
1.14436
1.11999
1.11996
1.11998
1.12001
1.12008
1.12019
1.12032
1.1205
1.1207
1.12096
1.12122
1.12157
1.12187
1.12238
1.12267
1.12338
1.12363
1.12457
1.12477
1.12595
1.12611
1.12747
1.1277
1.12906
1.10525
1.10521
1.10522
1.10524
1.1053
1.10538
1.10549
1.10564
1.10581
1.10603
1.10625
1.10656
1.10682
1.10728
1.10752
1.10819
1.10839
1.10929
1.10943
1.11059
1.1107
1.11205
1.11226
1.11364
1.09036
1.09031
1.09032
1.09033
1.09039
1.09045
1.09056
1.09067
1.09083
1.09101
1.09122
1.09149
1.09172
1.09214
1.09232
1.09298
1.09308
1.094
1.09402
1.09519
1.09521
1.09653
1.09669
1.09805
1.07518
1.07513
1.07514
1.07515
1.07521
1.07527
1.07538
1.07549
1.07566
1.07583
1.07604
1.07629
1.07652
1.0769
1.07707
1.07772
1.07773
1.07868
1.0786
1.07976
1.07969
1.08099
1.08107
1.08234
1.05957
1.05952
1.05954
1.05956
1.05963
1.05972
1.05983
1.05999
1.06016
1.06037
1.06059
1.06087
1.06111
1.06149
1.06171
1.06231
1.06236
1.06327
1.06318
1.06433
1.06421
1.06549
1.06551
1.0667
1.04341
1.04336
1.04339
1.04343
1.04352
1.04364
1.0438
1.04399
1.04421
1.04447
1.04474
1.04508
1.04538
1.04581
1.0461
1.04669
1.04685
1.04773
1.04769
1.04886
1.04871
1.05004
1.04999
1.05121
1.0266
1.02656
1.0266
1.02666
1.02679
1.02695
1.02715
1.0274
1.02769
1.02802
1.02837
1.02878
1.02918
1.02969
1.03009
1.03075
1.03103
1.03195
1.03201
1.03326
1.03311
1.03455
1.03447
1.03577
1.00912
1.00907
1.00914
1.00921
1.00937
1.00957
1.00983
1.01013
1.0105
1.01089
1.01136
1.01185
1.01238
1.01298
1.01353
1.0143
1.01472
1.0158
1.01596
1.01737
1.01729
1.0189
1.01881
1.0203
0.990974
0.990928
0.991002
0.991101
0.991285
0.991517
0.991822
0.992173
0.992606
0.993067
0.99362
0.994202
0.994847
0.995568
0.99626
0.997158
0.997774
0.999007
0.999349
1.00097
1.00104
1.0029
1.00288
1.00464
0.972233
0.972194
0.972265
0.972387
0.972579
0.972845
0.973171
0.973573
0.974035
0.97457
0.975167
0.975842
0.976559
0.977386
0.978202
0.979199
0.980047
0.981331
0.982015
0.983734
0.98411
0.986245
0.986392
0.988585
0.953001
0.952964
0.953035
0.953165
0.953365
0.953645
0.953986
0.954408
0.954896
0.955461
0.956093
0.956812
0.957581
0.958467
0.959363
0.960435
0.961428
0.962748
0.963741
0.965448
0.966243
0.968528
0.968979
0.971736
0.933399
0.933364
0.933431
0.933562
0.933763
0.934044
0.934387
0.934813
0.935307
0.935878
0.936522
0.93725
0.938039
0.938939
0.939867
0.940962
0.942012
0.943351
0.944479
0.946154
0.947254
0.949494
0.950273
0.953476
0.913556
0.913519
0.913581
0.913707
0.913902
0.914175
0.914511
0.914926
0.915412
0.915969
0.916606
0.917317
0.918098
0.918979
0.919901
0.920972
0.922019
0.923334
0.924458
0.926107
0.927217
0.92941
0.930236
0.933435
0.893592
0.89355
0.893608
0.893724
0.893909
0.894168
0.894491
0.894885
0.895353
0.895883
0.896499
0.897175
0.897932
0.898769
0.899663
0.90068
0.901696
0.902943
0.904014
0.905607
0.906603
0.90875
0.909447
0.912383
0.873613
0.873567
0.873617
0.873723
0.873895
0.874134
0.874439
0.874807
0.875252
0.875746
0.876333
0.876964
0.877686
0.878468
0.87932
0.880269
0.881236
0.882399
0.883411
0.884903
0.885822
0.887844
0.888481
0.891199
0.85371
0.853656
0.853702
0.853793
0.853953
0.85417
0.854456
0.854792
0.855212
0.855664
0.85622
0.856797
0.857483
0.858198
0.859006
0.859878
0.860792
0.861858
0.862812
0.864196
0.865044
0.866917
0.867514
0.870024
0.833956
0.833894
0.833939
0.83401
0.834162
0.83435
0.834621
0.834918
0.835318
0.835717
0.836251
0.83676
0.837419
0.838054
0.838825
0.839609
0.840471
0.841439
0.842335
0.843604
0.844392
0.846108
0.846671
0.848974
0.814411
0.814344
0.814388
0.814437
0.814584
0.814739
0.815001
0.81525
0.815639
0.815975
0.816496
0.816924
0.81757
0.818105
0.818861
0.819533
0.820365
0.821224
0.822058
0.823218
0.823952
0.825507
0.826041
0.828137
0.795127
0.795057
0.795093
0.795132
0.795261
0.795398
0.795633
0.795855
0.796211
0.796507
0.796992
0.797363
0.797973
0.798432
0.799152
0.799727
0.800522
0.801272
0.802061
0.803099
0.803787
0.805178
0.805688
0.807578
0.776143
0.776072
0.776095
0.776131
0.776234
0.776365
0.77656
0.776772
0.777077
0.777356
0.777779
0.778125
0.778666
0.779087
0.779736
0.780251
0.780983
0.781637
0.782389
0.783289
0.783939
0.785173
0.785662
0.78735
0.757491
0.757418
0.757432
0.757462
0.757544
0.757662
0.757827
0.75802
0.758283
0.758539
0.758908
0.759226
0.759701
0.760086
0.760662
0.761126
0.761789
0.762359
0.763073
0.763821
0.764454
0.765531
0.766
0.767491
0.739196
0.739122
0.739127
0.739149
0.739214
0.739317
0.739457
0.739627
0.739856
0.740082
0.740407
0.740689
0.741109
0.74145
0.741965
0.74237
0.742973
0.743462
0.744122
0.744746
0.745363
0.746281
0.746731
0.74803
0.721277
0.721202
0.7212
0.721214
0.721264
0.721352
0.721469
0.721615
0.721814
0.722008
0.722294
0.722537
0.72291
0.723203
0.723663
0.724009
0.724553
0.724964
0.725574
0.726085
0.726686
0.727442
0.727877
0.728989
0.70375
0.703676
0.703666
0.703673
0.703709
0.703781
0.703878
0.704
0.704171
0.704334
0.704584
0.704788
0.705117
0.705363
0.705773
0.70606
0.70655
0.706888
0.707441
0.707858
0.708429
0.709033
0.709456
0.710388
0.686628
0.686553
0.686538
0.686538
0.68656
0.686619
0.686694
0.686796
0.686939
0.687072
0.687288
0.687455
0.687743
0.687943
0.688305
0.688537
0.688974
0.689242
0.689747
0.690069
0.690605
0.691065
0.691482
0.692241
0.669919
0.669845
0.669824
0.669816
0.669829
0.66987
0.669931
0.670008
0.670128
0.670232
0.670416
0.670547
0.670796
0.670952
0.67127
0.671447
0.671836
0.672038
0.67249
0.672733
0.673223
0.673556
0.673964
0.674563
0.653631
0.653556
0.653531
0.653517
0.653518
0.653547
0.653588
0.653647
0.653742
0.65382
0.653973
0.65407
0.654283
0.654396
0.654672
0.654798
0.655141
0.655278
0.655685
0.655846
0.656294
0.656516
0.656911
0.657357
0.637765
0.637692
0.637662
0.637642
0.637633
0.637648
0.637675
0.637713
0.637787
0.637838
0.637964
0.638028
0.638206
0.63828
0.638516
0.638593
0.638892
0.638972
0.63933
0.639418
0.63982
0.639946
0.640331
0.640625
0.622326
0.622252
0.622223
0.622189
0.622182
0.622172
0.622196
0.622207
0.622266
0.62229
0.622391
0.622423
0.62257
0.622605
0.622804
0.622835
0.623093
0.623114
0.623432
0.62345
0.623813
0.623849
0.624212
0.624368
0.607313
0.607242
0.607204
0.607175
0.607144
0.607142
0.607134
0.607142
0.607172
0.607179
0.607251
0.607256
0.607371
0.607371
0.607535
0.607523
0.607742
0.607712
0.607988
0.60794
0.608266
0.60822
0.608558
0.608585
0.592727
0.592653
0.592622
0.592571
0.592557
0.592515
0.592523
0.59249
0.59252
0.592494
0.59255
0.592524
0.592612
0.592578
0.592709
0.592655
0.592838
0.592757
0.592996
0.592887
0.593176
0.593052
0.593361
0.593274
0.578562
0.578495
0.578451
0.578412
0.578368
0.578343
0.578312
0.578289
0.578282
0.578249
0.578275
0.578228
0.578288
0.578223
0.578322
0.578231
0.578379
0.578251
0.578454
0.578285
0.57854
0.578341
0.578622
0.578433
0.56482
0.56475
0.564714
0.564654
0.564627
0.564566
0.564552
0.564488
0.564488
0.56442
0.564436
0.56436
0.564397
0.564302
0.564373
0.564245
0.564361
0.564189
0.564358
0.564136
0.564358
0.564088
0.564345
0.564059
0.551492
0.551427
0.551383
0.55133
0.551282
0.55123
0.551187
0.55113
0.551098
0.551027
0.551014
0.550921
0.550933
0.550811
0.550855
0.550695
0.550781
0.550568
0.550707
0.550432
0.550627
0.550291
0.550527
0.550151
0.538577
0.538511
0.53847
0.538407
0.538362
0.538294
0.538253
0.538171
0.538139
0.538041
0.538018
0.5379
0.537893
0.537745
0.537765
0.537573
0.537633
0.537382
0.537492
0.537172
0.53734
0.536943
0.537163
0.536703
0.526065
0.526002
0.52596
0.525893
0.525847
0.525767
0.52572
0.525628
0.525581
0.525472
0.52543
0.525296
0.525268
0.525098
0.525095
0.524875
0.524909
0.524623
0.52471
0.524344
0.524491
0.524037
0.524242
0.523705
0.513953
0.513892
0.513847
0.513783
0.513722
0.513649
0.513583
0.51349
0.513425
0.513307
0.513249
0.513098
0.513052
0.51286
0.512837
0.512591
0.512603
0.512285
0.512347
0.511943
0.512068
0.511564
0.511756
0.51115
0.502231
0.502171
0.50213
0.502054
0.502005
0.501908
0.501854
0.501735
0.501674
0.501534
0.501468
0.501298
0.501238
0.501026
0.500984
0.500714
0.500705
0.500358
0.5004
0.499958
0.500066
0.499514
0.499694
0.499025
0.490894
0.490837
0.49079
0.490723
0.490655
0.490572
0.49049
0.490385
0.490296
0.490159
0.490071
0.489893
0.489815
0.489586
0.489526
0.489234
0.489206
0.488834
0.488855
0.488381
0.48847
0.487876
0.488047
0.487317
0.479931
0.479875
0.479832
0.479755
0.479697
0.479594
0.479525
0.479393
0.479314
0.479151
0.479063
0.478865
0.478777
0.47853
0.478455
0.478144
0.478098
0.477701
0.477705
0.4772
0.477274
0.47664
0.476799
0.476021
0.469336
0.469284
0.469236
0.469166
0.469095
0.469001
0.468911
0.468789
0.468686
0.468528
0.468421
0.468216
0.468112
0.467852
0.467761
0.467432
0.46737
0.466952
0.466938
0.466407
0.466464
0.465795
0.465944
0.465122
0.459101
0.459049
0.459005
0.458928
0.458862
0.458756
0.458671
0.458532
0.458433
0.458257
0.458147
0.457928
0.457814
0.45754
0.457436
0.45709
0.457013
0.456574
0.456546
0.45599
0.456033
0.455333
0.455471
0.454604
0.449215
0.449168
0.449119
0.449048
0.448972
0.448871
0.448775
0.448637
0.448526
0.448347
0.448225
0.447998
0.447873
0.447586
0.447469
0.447109
0.447017
0.446562
0.446517
0.44594
0.445969
0.44524
0.445368
0.444464
0.439672
0.439625
0.439581
0.439502
0.439433
0.43932
0.439228
0.43908
0.438966
0.438779
0.43865
0.438414
0.438279
0.437982
0.437853
0.43748
0.437374
0.436903
0.436844
0.436248
0.436262
0.435508
0.435627
0.434685
0.430462
0.430419
0.430369
0.430299
0.430217
0.430114
0.430008
0.429864
0.429741
0.429548
0.429412
0.429167
0.429024
0.428717
0.428578
0.428192
0.428075
0.42759
0.427517
0.426902
0.426904
0.426128
0.426236
0.425261
0.421577
0.421534
0.421491
0.42141
0.421341
0.42122
0.421125
0.420966
0.420845
0.420644
0.420503
0.42025
0.4201
0.419783
0.419635
0.419238
0.41911
0.418612
0.418526
0.417898
0.417886
0.41709
0.417188
0.416184
0.413008
0.412969
0.41292
0.412849
0.412764
0.412659
0.412545
0.412396
0.412261
0.412062
0.411912
0.411654
0.411496
0.411172
0.411015
0.410608
0.410471
0.409961
0.409866
0.409223
0.4092
0.408389
0.408476
0.407447
0.404747
0.404707
0.404664
0.404584
0.404512
0.404388
0.404289
0.404122
0.403997
0.403783
0.403635
0.403368
0.403205
0.402873
0.40271
0.402293
0.40215
0.401628
0.401526
0.40087
0.400839
0.400012
0.400092
0.399046
0.396783
0.396748
0.3967
0.396628
0.396544
0.396433
0.396317
0.396162
0.396021
0.395813
0.395654
0.395386
0.395217
0.394878
0.39471
0.394285
0.394136
0.393603
0.393497
0.392826
0.392793
0.391951
0.392027
0.390966
0.389111
0.389075
0.389032
0.388953
0.388878
0.388755
0.38865
0.38848
0.388348
0.388128
0.387971
0.387695
0.387524
0.387178
0.387006
0.386573
0.38642
0.385877
0.385766
0.385086
0.385048
0.384194
0.384266
0.383196
0.38172
0.381688
0.38164
0.381569
0.381484
0.38137
0.381254
0.381092
0.380949
0.380732
0.380569
0.38029
0.380115
0.379764
0.379588
0.379149
0.378991
0.378441
0.378326
0.377636
0.377595
0.376731
0.376799
0.375718
0.374603
0.374571
0.374528
0.37445
0.374375
0.374249
0.374142
0.37397
0.373831
0.373608
0.373444
0.373161
0.372982
0.372628
0.372447
0.372004
0.371841
0.371286
0.371165
0.37047
0.370422
0.369551
0.369614
0.368526
0.367752
0.367722
0.367676
0.367605
0.36752
0.367404
0.367287
0.36712
0.366975
0.366753
0.366585
0.3663
0.366118
0.36576
0.365576
0.365128
0.364961
0.364401
0.364276
0.363575
0.363522
0.362645
0.362702
0.361607
0.361158
0.361129
0.361086
0.36101
0.360933
0.360808
0.360698
0.360523
0.360382
0.360154
0.359987
0.359698
0.359514
0.359153
0.358965
0.358515
0.358343
0.35778
0.357648
0.356944
0.356885
0.356004
0.356057
0.354955
0.354814
0.354787
0.354743
0.35467
0.354589
0.354468
0.354353
0.354182
0.354036
0.353809
0.353639
0.353349
0.353162
0.352798
0.352608
0.352154
0.351978
0.351413
0.351276
0.35057
0.350504
0.34962
0.349667
0.348562
0.348714
0.348687
0.348644
0.348571
0.34849
0.348369
0.348253
0.348081
0.347935
0.347706
0.347535
0.347242
0.347055
0.346688
0.346496
0.34604
0.34586
0.345293
0.345152
0.344443
0.344376
0.343483
0.343528
0.342418
0.342848
0.342822
0.342781
0.342705
0.342629
0.342502
0.342392
0.342214
0.342072
0.341838
0.341669
0.341373
0.341185
0.340815
0.340622
0.340163
0.339982
0.339411
0.339268
0.338557
0.338485
0.33759
0.337631
0.336519
0.33721
0.337186
0.337143
0.337072
0.33699
0.336871
0.336752
0.336581
0.336433
0.336202
0.33603
0.335733
0.335545
0.335172
0.334979
0.334517
0.334336
0.333762
0.333618
0.332902
0.332826
0.331936
0.33197
0.330856
0.331795
0.33177
0.331731
0.331655
0.33158
0.331452
0.331344
0.331162
0.331022
0.330784
0.330617
0.330315
0.330129
0.329752
0.329561
0.329095
0.328915
0.328338
0.328193
0.327476
0.327399
0.326505
0.326536
0.325425
0.326593
0.326571
0.326529
0.326458
0.326377
0.326257
0.326141
0.325966
0.32582
0.325585
0.325416
0.325113
0.324929
0.324549
0.32436
0.32389
0.323712
0.32313
0.322989
0.322267
0.322193
0.321295
0.321326
0.320215
0.321601
0.321577
0.321539
0.321463
0.321391
0.321261
0.321155
0.320971
0.320833
0.320591
0.320428
0.320119
0.319939
0.319554
0.31937
0.318894
0.318722
0.318133
0.317997
0.31727
0.317202
0.316298
0.31633
0.315223
0.31681
0.316788
0.316747
0.316678
0.316597
0.316477
0.316363
0.316185
0.316044
0.315803
0.31564
0.315329
0.315153
0.314763
0.314584
0.314101
0.313937
0.31334
0.313213
0.312476
0.312417
0.311509
0.311542
0.31044
0.312215
0.312193
0.312157
0.31208
0.31201
0.311878
0.311776
0.311588
0.311456
0.311207
0.311051
0.310735
0.310564
0.310168
0.309997
0.309506
0.30935
0.308745
0.308628
0.307881
0.30783
0.306921
0.306954
0.305858
0.307811
0.30779
0.307751
0.307681
0.307603
0.30748
0.30737
0.307189
0.307052
0.306807
0.306651
0.306333
0.306166
0.305766
0.3056
0.305103
0.304954
0.304343
0.304232
0.303484
0.303436
0.302524
0.302558
0.301468
0.303592
0.30357
0.303535
0.303458
0.30339
0.303257
0.303158
0.302967
0.30284
0.302587
0.302438
0.302115
0.301953
0.301549
0.301388
0.300887
0.300745
0.300126
0.300025
0.299268
0.299226
0.298316
0.298349
0.297262
0.299551
0.299532
0.299493
0.299422
0.299347
0.299223
0.299116
0.298932
0.298801
0.29855
0.298402
0.298077
0.29792
0.297511
0.297357
0.296849
0.296717
0.29609
0.295997
0.295237
0.295198
0.294287
0.294319
0.293238
0.295686
0.295664
0.295631
0.295553
0.295489
0.295352
0.295259
0.295063
0.294944
0.294683
0.294544
0.294212
0.294063
0.293647
0.293503
0.292985
0.292863
0.29223
0.292145
0.29138
0.291344
0.290436
0.290467
0.289391
0.291989
0.291969
0.291932
0.29186
0.291789
0.291661
0.291561
0.291371
0.29125
0.290989
0.290855
0.290516
0.290378
0.289949
0.28982
0.289291
0.289183
0.288539
0.288462
0.287696
0.287661
0.286756
0.286785
0.285718
0.288457
0.288436
0.288404
0.288324
0.288264
0.288124
0.288037
0.287834
0.287727
0.287454
0.287333
0.286982
0.286858
0.286418
0.286302
0.285763
0.285663
0.285016
0.284943
0.284178
0.284144
0.283243
0.28327
0.282209
0.285084
0.285064
0.28503
0.284955
0.284891
0.284754
0.284667
0.284463
0.28436
0.284082
0.28397
0.28361
0.283497
0.283049
0.282941
0.282397
0.282302
0.281655
0.281584
0.28082
0.280786
0.279891
0.279915
0.278863
0.281868
0.281847
0.281816
0.281736