/*--------------------------------*- C++ -*----------------------------------*\
  =========                 |
  \\      /  F ield         | OpenFOAM: The Open Source CFD Toolbox
   \\    /   O peration     | Website:  https://openfoam.org
    \\  /    A nd           | Version:  10
     \\/     M anipulation  |
\*---------------------------------------------------------------------------*/
FoamFile
{
    format      ascii;
    class       volScalarField;
    location    "0.2";
    object      p;
}
// * * * * * * * * * * * * * * * * * * * * * * * * * * * * * * * * * * * * * //

dimensions      [1 -1 -2 0 0 0 0];

internalField   nonuniform List<scalar> 
4176
(
1600.69
1600.89
1601.4
1602.02
1603.09
1604.11
1605.74
1607.13
1609.33
1611.11
1613.81
1616.03
1619.15
1621.92
1625.29
1628.79
1632.08
1636.72
1639.67
1645.67
1648.01
1655.64
1656.83
1665.56
1601.18
1601.37
1601.83
1602.44
1603.4
1604.4
1605.87
1607.24
1609.22
1610.96
1613.43
1615.56
1618.46
1621.06
1624.26
1627.49
1630.64
1634.92
1637.74
1643.3
1645.4
1652.85
1654.1
1663.87
1602.43
1602.62
1603.09
1603.72
1604.69
1605.71
1607.21
1608.61
1610.63
1612.39
1614.92
1617.08
1620.07
1622.69
1625.99
1629.27
1632.53
1636.91
1639.72
1645.43
1647.51
1654.85
1656
1665.46
1604.37
1604.56
1605.03
1605.64
1606.6
1607.59
1609.06
1610.42
1612.42
1614.13
1616.64
1618.73
1621.7
1624.23
1627.53
1630.69
1633.95
1638.35
1640.88
1646.76
1648.7
1655.94
1657
1665.86
1607.09
1607.28
1607.74
1608.35
1609.3
1610.3
1611.76
1613.13
1615.1
1616.83
1619.31
1621.41
1624.36
1626.89
1630.19
1633.31
1636.68
1640.9
1643.6
1649.39
1651.4
1658.6
1659.74
1668.59
1610.54
1610.73
1611.18
1611.79
1612.72
1613.72
1615.15
1616.51
1618.45
1620.17
1622.61
1624.7
1627.61
1630.12
1633.39
1636.44
1639.86
1643.87
1646.8
1652.34
1654.42
1661.54
1662.76
1671.69
1614.75
1614.94
1615.38
1615.99
1616.92
1617.9
1619.32
1620.67
1622.59
1624.3
1626.72
1628.79
1631.67
1634.15
1637.41
1640.41
1643.85
1647.74
1650.76
1656.14
1658.31
1665.32
1666.57
1675.39
1619.71
1619.9
1620.34
1620.94
1621.85
1622.83
1624.23
1625.57
1627.47
1629.16
1631.55
1633.59
1636.45
1638.89
1642.13
1645.08
1648.52
1652.27
1655.38
1660.58
1662.83
1669.73
1671.02
1679.75
1625.43
1625.61
1626.05
1626.65
1627.55
1628.52
1629.91
1631.23
1633.11
1634.78
1637.14
1639.16
1641.99
1644.39
1647.61
1650.5
1653.94
1657.58
1660.75
1665.78
1668.1
1674.86
1676.2
1684.8
1631.91
1632.09
1632.53
1633.11
1634.01
1634.97
1636.34
1637.65
1639.5
1641.15
1643.48
1645.47
1648.27
1650.63
1653.82
1656.65
1660.08
1663.61
1666.83
1671.69
1674.08
1680.7
1682.07
1690.53
1639.16
1639.34
1639.77
1640.35
1641.24
1642.18
1643.53
1644.83
1646.65
1648.28
1650.58
1652.54
1655.31
1657.63
1660.79
1663.55
1666.97
1670.4
1673.65
1678.35
1680.82
1687.23
1688.65
1696.98
1647.18
1647.37
1647.79
1648.36
1649.23
1650.17
1651.5
1652.78
1654.58
1656.18
1658.45
1660.38
1663.11
1665.38
1668.51
1671.21
1674.6
1677.93
1681.22
1685.75
1688.26
1694.51
1695.95
1704.13
1655.99
1656.17
1656.59
1657.16
1658.01
1658.93
1660.25
1661.5
1663.28
1664.85
1667.09
1668.98
1671.68
1673.9
1676.99
1679.63
1682.99
1686.22
1689.53
1693.9
1696.45
1702.52
1703.98
1712
1665.59
1665.77
1666.18
1666.74
1667.58
1668.49
1669.78
1671.01
1672.76
1674.3
1676.51
1678.36
1681.02
1683.19
1686.25
1688.81
1692.15
1695.28
1698.59
1702.79
1705.39
1711.28
1712.74
1720.6
1676
1676.17
1676.58
1677.13
1677.95
1678.84
1680.11
1681.32
1683.03
1684.55
1686.72
1688.53
1691.14
1693.27
1696.28
1698.77
1702.07
1705.1
1708.41
1712.45
1715.08
1720.79
1722.25
1729.94
1687.21
1687.39
1687.78
1688.32
1689.13
1690
1691.25
1692.43
1694.11
1695.59
1697.72
1699.49
1702.06
1704.13
1707.09
1709.52
1712.77
1715.7
1719
1722.87
1725.54
1731.04
1732.53
1740.03
1699.25
1699.43
1699.81
1700.34
1701.14
1701.99
1703.2
1704.36
1706.01
1707.45
1709.54
1711.26
1713.78
1715.79
1718.7
1721.05
1724.26
1727.09
1730.36
1734.07
1736.76
1742.06
1743.58
1750.87
1712.12
1712.3
1712.68
1713.19
1713.97
1714.8
1715.99
1717.11
1718.73
1720.13
1722.17
1723.84
1726.3
1728.25
1731.11
1733.38
1736.54
1739.27
1742.51
1746.06
1748.77
1753.86
1755.41
1762.49
1725.85
1726.02
1726.39
1726.89
1727.65
1728.46
1729.62
1730.71
1732.28
1733.64
1735.63
1737.25
1739.66
1741.54
1744.34
1746.53
1749.63
1752.25
1755.46
1758.84
1761.57
1766.45
1768.02
1774.88
1740.43
1740.6
1740.96
1741.45
1742.19
1742.98
1744.1
1745.16
1746.69
1748
1749.94
1751.5
1753.85
1755.66
1758.4
1760.5
1763.54
1766.06
1769.22
1772.43
1775.17
1779.84
1781.43
1788.07
1755.9
1756.06
1756.41
1756.89
1757.6
1758.36
1759.45
1760.47
1761.96
1763.22
1765.11
1766.61
1768.89
1770.63
1773.3
1775.31
1778.28
1780.68
1783.79
1786.85
1789.58
1794.04
1795.64
1802.06
1772.25
1772.41
1772.75
1773.21
1773.9
1774.63
1775.69
1776.67
1778.11
1779.32
1781.15
1782.58
1784.8
1786.46
1789.05
1790.97
1793.87
1796.16
1799.2
1802.1
1804.82
1809.05
1810.68
1816.85
1789.51
1789.67
1789.99
1790.44
1791.1
1791.8
1792.82
1793.76
1795.14
1796.3
1798.07
1799.44
1801.59
1803.17
1805.68
1807.5
1810.33
1812.49
1815.47
1818.2
1820.91
1824.91
1826.54
1832.47
1807.68
1807.84
1808.15
1808.58
1809.21
1809.88
1810.86
1811.75
1813.09
1814.19
1815.89
1817.19
1819.27
1820.76
1823.2
1824.92
1827.66
1829.7
1832.6
1835.18
1837.85
1841.62
1843.25
1848.93
1826.79
1826.94
1827.24
1827.65
1828.26
1828.89
1829.83
1830.67
1831.95
1832.99
1834.63
1835.85
1837.86
1839.26
1841.62
1843.23
1845.89
1847.8
1850.62
1853.03
1855.67
1859.2
1860.82
1866.24
1846.84
1846.99
1847.27
1847.66
1848.24
1848.84
1849.73
1850.53
1851.75
1852.73
1854.3
1855.44
1857.37
1858.68
1860.95
1862.46
1865.02
1866.8
1869.54
1871.79
1874.38
1877.68
1879.28
1884.43
1867.84
1867.99
1868.26
1868.63
1869.18
1869.75
1870.6
1871.34
1872.51
1873.42
1874.92
1875.98
1877.82
1879.04
1881.22
1882.61
1885.09
1886.73
1889.38
1891.46
1894
1897.05
1898.65
1903.52
1889.83
1889.97
1890.23
1890.58
1891.1
1891.63
1892.44
1893.13
1894.23
1895.07
1896.5
1897.48
1899.24
1900.35
1902.44
1903.72
1906.09
1907.6
1910.16
1912.07
1914.54
1917.34
1918.94
1923.52
1912.8
1912.94
1913.18
1913.51
1914.01
1914.5
1915.26
1915.9
1916.94
1917.72
1919.07
1919.96
1921.63
1922.64
1924.63
1925.79
1928.06
1929.43
1931.89
1933.63
1936.02
1938.57
1940.14
1944.46
1936.78
1936.92
1937.15
1937.45
1937.91
1938.37
1939.08
1939.67
1940.65
1941.36
1942.63
1943.43
1945.02
1945.92
1947.81
1948.84
1951.01
1952.24
1954.59
1956.16
1958.47
1960.76
1962.32
1966.33
1961.78
1961.91
1962.13
1962.41
1962.84
1963.26
1963.93
1964.46
1965.38
1966.01
1967.21
1967.92
1969.42
1970.21
1972.01
1972.9
1974.97
1976.04
1978.29
1979.68
1981.9
1983.95
1985.49
1989.16
1987.82
1987.95
1988.15
1988.41
1988.81
1989.19
1989.81
1990.29
1991.14
1991.7
1992.82
1993.45
1994.85
1995.54
1997.23
1998
1999.95
2000.87
2003
2004.21
2006.33
2008.15
2009.66
2013.01
2014.92
2015.04
2015.22
2015.47
2015.83
2016.18
2016.74
2017.17
2017.96
2018.44
2019.49
2020.02
2021.33
2021.91
2023.5
2024.13
2025.98
2026.74
2028.75
2029.77
2031.79
2033.37
2034.86
2037.87
2043.08
2043.2
2043.37
2043.6
2043.93
2044.23
2044.75
2045.12
2045.84
2046.25
2047.22
2047.66
2048.88
2049.35
2050.84
2051.34
2053.07
2053.67
2055.57
2056.4
2058.3
2059.64
2061.1
2063.76
2072.34
2072.46
2072.61
2072.81
2073.11
2073.38
2073.85
2074.16
2074.82
2075.16
2076.04
2076.39
2077.52
2077.87
2079.26
2079.62
2081.25
2081.69
2083.48
2084.11
2085.9
2086.99
2088.4
2090.72
2102.7
2102.82
2102.96
2103.14
2103.41
2103.64
2104.05
2104.31
2104.9
2105.17
2105.97
2106.22
2107.26
2107.5
2108.79
2109.01
2110.53
2110.8
2112.48
2112.92
2114.59
2115.45
2116.78
2118.75
2134.19
2134.31
2134.43
2134.59
2134.83
2135.02
2135.39
2135.59
2136.12
2136.31
2137.03
2137.19
2138.14
2138.25
2139.44
2139.52
2140.93
2141.04
2142.61
2142.85
2144.42
2145.04
2146.27
2147.88
2166.83
2166.94
2167.05
2167.19
2167.4
2167.55
2167.87
2168.02
2168.49
2168.6
2169.24
2169.31
2170.16
2170.16
2171.23
2171.18
2172.48
2172.41
2173.87
2173.91
2175.37
2175.76
2176.9
2178.15
2200.64
2200.75
2200.84
2200.96
2201.14
2201.26
2201.53
2201.62
2202.02
2202.06
2202.63
2202.59
2203.35
2203.23
2204.21
2204
2205.19
2204.95
2206.29
2206.13
2207.48
2207.63
2208.69
2209.58
2235.64
2235.74
2235.83
2235.93
2236.07
2236.15
2236.37
2236.41
2236.75
2236.72
2237.2
2237.07
2237.74
2237.5
2238.37
2238.01
2239.09
2238.67
2239.89
2239.52
2240.76
2240.66
2241.64
2242.2
2271.85
2271.95
2272.02
2272.1
2272.21
2272.26
2272.43
2272.41
2272.69
2272.58
2272.99
2272.76
2273.34
2272.98
2273.74
2273.24
2274.21
2273.6
2274.72
2274.12
2275.25
2274.89
2275.76
2276.04
2309.31
2309.4
2309.46
2309.52
2309.59
2309.6
2309.73
2309.65
2309.86
2309.68
2310
2309.68
2310.16
2309.68
2310.35
2309.7
2310.56
2309.76
2310.77
2309.95
2310.97
2310.33
2311.11
2311.06
2348.02
2348.12
2348.15
2348.19
2348.24
2348.2
2348.28
2348.15
2348.29
2348.03
2348.27
2347.86
2348.24
2347.64
2348.21
2347.4
2348.16
2347.18
2348.09
2347.02
2347.96
2347.03
2347.73
2347.31
2388.02
2388.11
2388.13
2388.15
2388.16
2388.09
2388.11
2387.93
2388
2387.66
2387.82
2387.31
2387.6
2386.87
2387.33
2386.38
2387.03
2385.86
2386.67
2385.37
2386.22
2385
2385.63
2384.84
2429.32
2429.41
2429.42
2429.42
2429.39
2429.28
2429.25
2429.01
2429.01
2428.6
2428.67
2428.06
2428.25
2427.4
2427.75
2426.64
2427.19
2425.82
2426.54
2425
2425.78
2424.25
2424.83
2423.68
2471.96
2472.04
2472.03
2472.01
2471.95
2471.8
2471.71
2471.41
2471.34
2470.85
2470.84
2470.12
2470.21
2469.24
2469.49
2468.22
2468.66
2467.1
2467.72
2465.93
2466.64
2464.8
2465.35
2463.8
2515.94
2516.02
2516
2515.95
2515.85
2515.66
2515.52
2515.16
2515.02
2514.44
2514.34
2513.53
2513.52
2512.41
2512.56
2511.13
2511.46
2509.7
2510.23
2508.18
2508.83
2506.66
2507.22
2505.23
2561.28
2561.36
2561.32
2561.25
2561.12
2560.89
2560.69
2560.27
2560.05
2559.4
2559.21
2558.29
2558.19
2556.95
2556.98
2555.39
2555.62
2553.65
2554.09
2551.77
2552.37
2549.85
2550.43
2548.02
2608.01
2608.09
2608.03
2607.94
2607.77
2607.5
2607.25
2606.76
2606.47
2605.73
2605.46
2604.43
2604.23
2602.85
2602.79
2601.02
2601.16
2598.96
2599.33
2596.73
2597.29
2594.38
2595.02
2592.17
2656.13
2656.21
2656.14
2656.02
2655.81
2655.5
2655.19
2654.65
2654.29
2653.46
2653.1
2651.96
2651.67
2650.15
2649.99
2648.04
2648.09
2645.67
2645.98
2643.06
2643.63
2640.31
2640.96
2637.71
2705.66
2705.73
2705.65
2705.51
2705.27
2704.91
2704.55
2703.94
2703.51
2702.6
2702.16
2700.91
2700.52
2698.86
2698.6
2696.47
2696.44
2693.77
2694.04
2690.8
2691.4
2687.65
2688.31
2684.66
2756.61
2756.68
2756.58
2756.42
2756.14
2755.74
2755.33
2754.66
2754.16
2753.16
2752.64
2751.27
2750.79
2748.98
2748.65
2746.31
2746.23
2743.29
2743.54
2739.93
2740.58
2736.46
2737.08
2733.04
2808.98
2809.05
2808.93
2808.75
2808.43
2808
2807.53
2806.8
2806.23
2805.15
2804.55
2803.06
2802.51
2800.54
2800.14
2797.58
2797.48
2794.24
2794.52
2790.53
2791.17
2786.73
2787.3
2782.88
2862.78
2862.84
2862.71
2862.51
2862.16
2861.69
2861.17
2860.38
2859.75
2858.58
2857.91
2856.29
2855.69
2853.53
2853.11
2850.29
2850.21
2846.6
2846.96
2842.64
2843.21
2838.47
2838.98
2834.19
2918.01
2918.07
2917.92
2917.7
2917.32
2916.82
2916.24
2915.4
2914.7
2913.44
2912.72
2910.96
2910.33
2907.95
2907.55
2904.43
2904.42
2900.5
2900.79
2896.23
2896.72
2891.69
2892.15
2886.99
2974.66
2974.73
2974.57
2974.33
2973.91
2973.38
2972.75
2971.85
2971.11
2969.74
2969.01
2967.06
2966.46
2963.83
2963.48
2960.08
2960.03
2955.91
2956.11
2951.33
2951.72
2946.42
2946.82
2941.3
3032.74
3032.81
3032.63
3032.39
3031.93
3031.38
3030.7
3029.74
3028.97
3027.47
3026.76
3024.6
3024.05
3021.19
3020.82
3017.26
3017.11
3012.82
3012.91
3007.93
3008.23
3002.66
3003
2997.13
3092.24
3092.33
3092.11
3091.88
3091.38
3090.81
3090.08
3089.06
3088.3
3086.65
3085.95
3083.66
3083.05
3080.08
3079.62
3075.93
3075.67
3071.24
3071.22
3066.04
3066.25
3060.43
3060.7
3054.5
3153.17
3153.25
3153.02
3152.8
3152.24
3151.68
3150.89
3149.84
3149.02
3147.33
3146.56
3144.19
3143.5
3140.45
3139.89
3136.09
3135.73
3131.15
3131.03
3125.67
3125.78
3119.72
3119.93
3113.4
3215.51
3215.6
3215.36
3215.12
3214.54
3213.96
3213.11
3212.09
3211.17
3209.45
3208.61
3206.18
3205.41
3202.29
3201.63
3197.74
3197.28
3192.57
3192.35
3186.82
3186.84
3180.54
3180.7
3173.85
3279.26
3279.35
3279.11
3278.86
3278.28
3277.67
3276.78
3275.77
3274.71
3273.06
3272.09
3269.64
3268.79
3265.59
3264.85
3260.87
3260.31
3255.48
3255.17
3249.47
3249.41
3242.9
3243
3235.85
3344.43
3344.52
3344.29
3344.02
3343.43
3342.81
3341.88
3340.87
3339.71
3338.11
3336.98
3334.57
3333.62
3330.36
3329.55
3325.48
3324.84
3319.89
3319.49
3313.64
3313.5
3306.77
3306.82
3299.38
3411.02
3411.12
3410.88
3410.6
3410
3409.37
3408.42
3407.39
3406.17
3404.59
3403.34
3400.97
3399.87
3396.62
3395.71
3391.56
3390.83
3385.78
3385.3
3379.3
3379.08
3372.16
3372.15
3364.45
3479.03
3479.13
3478.89
3478.62
3478
3477.36
3476.39
3475.35
3474.07
3472.5
3471.15
3468.8
3467.59
3464.32
3463.32
3459.1
3458.3
3453.14
3452.58
3446.45
3446.15
3439.05
3438.99
3431.03
3548.49
3548.59
3548.35
3548.07
3547.44
3546.79
3545.79
3544.75
3543.42
3541.86
3540.42
3538.07
3536.76
3533.47
3532.38
3528.09
3527.21
3521.95
3521.32
3515.06
3514.69
3507.42
3507.3
3499.1
3619.4
3619.51
3619.26
3618.98
3618.34
3617.68
3616.65
3615.59
3614.21
3612.65
3611.12
3608.78
3607.36
3604.05
3602.88
3598.5
3597.56
3592.2
3591.49
3585.11
3584.67
3577.24
3577.07
3568.65
3691.78
3691.9
3691.64
3691.36
3690.69
3690.02
3688.96
3687.88
3686.45
3684.88
3683.26
3680.9
3679.39
3676.03
3674.79
3670.33
3669.33
3663.86
3663.08
3656.58
3656.07
3648.5
3648.27
3639.65
3765.64
3765.76
3765.49
3765.21
3764.51
3763.82
3762.72
3761.61
3760.12
3758.53
3756.8
3754.45
3752.82
3749.42
3748.1
3743.55
3742.49
3736.92
3736.07
3729.46
3728.87
3721.17
3720.89
3712.09
3840.97
3841.11
3840.82
3840.52
3839.79
3839.07
3837.92
3836.77
3835.22
3833.58
3831.74
3829.39
3827.62
3824.21
3822.78
3818.14
3817.03
3811.35
3810.43
3803.71
3803.04
3795.23
3794.9
3785.93
3917.75
3917.89
3917.58
3917.26
3916.5
3915.73
3914.53
3913.32
3911.7
3910.01
3908.06
3905.7
3903.76
3900.37
3898.78
3894.11
3892.92
3887.13
3886.14
3879.33
3878.59
3870.68
3870.29
3861.19
3995.9
3996.04
3995.72
3995.36
3994.57
3993.75
3992.49
3991.22
3989.52
3987.77
3985.71
3983.35
3981.23
3977.87
3976.07
3971.46
3970.13
3964.25
3963.21
3956.31
3955.51
3947.5
3947.07
3937.84
4075.28
4075.42
4075.09
4074.71
4073.89
4073.03
4071.72
4070.39
4068.63
4066.82
4064.67
4062.29
4060
4056.69
4054.67
4050.13
4048.62
4042.73
4041.64
4034.67
4033.8
4025.72
4025.25
4015.91
4155.73
4155.87
4155.54
4155.14
4154.32
4153.42
4152.1
4150.73
4148.94
4147.09
4144.87
4142.47
4140.06
4136.81
4134.58
4130.15
4128.4
4122.64
4121.41
4114.39
4113.48
4105.35
4104.85
4095.43
4237.03
4237.18
4236.87
4236.47
4235.67
4234.79
4233.48
4232.12
4230.33
4228.48
4226.26
4223.87
4221.38
4218.2
4215.81
4211.51
4209.55
4203.91
4202.55
4195.53
4194.58
4186.42
4185.91
4176.43
4319.01
4319.17
4318.89
4318.53
4317.78
4316.95
4315.71
4314.41
4312.69
4310.91
4308.74
4306.42
4303.94
4300.85
4298.38
4294.23
4292.1
4286.61
4285.1
4278.12
4277.16
4268.97
4268.46
4258.94
4401.56
4401.74
4401.51
4401.22
4400.55
4399.82
4398.69
4397.52
4395.92
4394.28
4392.23
4390.06
4387.67
4384.74
4382.28
4378.31
4376.09
4370.78
4369.11
4362.28
4361.27
4353.04
4352.55
4343
4484.74
4484.94
4484.78
4484.57
4484.01
4483.41
4482.43
4481.42
4480
4478.55
4476.69
4474.73
4472.51
4469.79
4467.46
4463.72
4461.53
4456.46
4454.73
4448.02
4446.99
4438.71
4438.24
4428.62
4568.82
4569.05
4568.94
4568.82
4568.36
4567.9
4567.07
4566.24
4565.01
4563.78
4562.13
4560.42
4558.41
4555.96
4553.85
4550.37
4548.35
4543.54
4541.92
4535.36
4534.42
4526.07
4525.64
4515.87
4654.3
4654.59
4654.49
4654.47
4654.05
4653.73
4652.97
4652.32
4651.21
4650.19
4648.71
4647.24
4645.43
4643.23
4641.43
4638.11
4636.5
4631.77
4630.58
4624.08
4623.5
4615.18
4614.87
4604.95
4741.93
4742.29
4742.12
4742.23
4741.72
4741.56
4740.69
4740.25
4739.05
4738.25
4736.76
4735.49
4733.78
4731.74
4730.31
4726.8
4726.02
4720.84
4720.59
4713.85
4713.92
4705.74
4705.75
4696.22
4832.62
4832.95
4832.84
4832.8
4832.36
4832
4831.22
4830.55
4829.42
4828.43
4826.97
4825.63
4823.87
4822
4820.4
4817.07
4816.43
4811.31
4811.32
4804.68
4805.15
4797.11
4797.58
4788.68
4927.23
4927.53
4927.38
4927.23
4926.69
4926.15
4925.2
4924.29
4922.96
4921.71
4920.01
4918.43
4916.43
4914.42
4912.39
4909.37
4908.09
4903.29
4903.13
4896.46
4897.17
4888.96
4889.8
4880.98
5026.49
5026.77
5026.54
5026.27
5025.53
5024.76
5023.52
5022.29
5020.58
5018.93
5016.8
5014.76
5012.29
5009.85
5007.24
5003.99
5002.01
4997.19
4996.55
4989.57
4990.34
4981.63
4982.74
4973.54
5130.87
5131.17
5130.81
5130.42
5129.44
5128.43
5126.83
5125.25
5123.05
5120.94
5118.19
5115.58
5112.4
5109.31
5105.9
5102.01
5099.22
5093.74
5092.49
5084.7
5085.27
5075.71
5076.94
5066.91
5240.52
5240.85
5240.32
5239.88
5238.64
5237.43
5235.44
5233.58
5230.78
5228.35
5224.78
5221.75
5217.6
5213.83
5209.47
5204.63
5200.98
5194.1
5192.16
5183.02
5182.95
5172.06
5173.12
5161.74
5355.22
5355.51
5355.01
5354.35
5353.06
5351.54
5349.41
5347.09
5344.1
5341
5337.17
5333.3
5328.68
5324.03
5318.75
5313.22
5307.91
5300.36
5296.8
5286.31
5284.9
5272.16
5272.51
5258.97
5474.45
5474.72
5474.21
5473.46
5472.09
5470.43
5468.14
5465.6
5462.38
5458.96
5454.8
5450.49
5445.4
5440.17
5434.21
5427.96
5421.38
5413.63
5407.42
5396.83
5392.94
5378.33
5377.18
5360.36
5597.48
5597.73
5597.23
5596.45
5595.04
5593.32
5590.97
5588.33
5585
5581.43
5577.1
5572.58
5567.24
5561.72
5555.39
5548.74
5541.55
5533.39
5525.8
5515.31
5508.45
5493.7
5490.01
5469.31
5723.46
5723.71
5723.24
5722.46
5721.07
5719.36
5717.02
5714.38
5711.05
5707.48
5703.13
5698.59
5693.23
5687.66
5681.27
5674.55
5667.23
5659
5651.07
5640.67
5632.79
5618.61
5613
5590.48
5851.52
5851.81
5851.36
5850.63
5849.29
5847.64
5845.35
5842.81
5839.55
5836.09
5831.84
5827.43
5822.17
5816.77
5810.5
5803.98
5796.8
5788.8
5781.19
5770.86
5763.79
5749.48
5744.98
5724.34
5980.85
5981.16
5980.75
5980.09
5978.81
5977.27
5975.08
5972.67
5969.55
5966.27
5962.18
5958
5952.94
5947.81
5941.8
5935.61
5928.73
5921.14
5913.92
5904.06
5897.58
5883.84
5879.76
5860.55
6110.66
6111.01
6110.64
6110.06
6108.86
6107.44
6105.38
6103.15
6100.18
6097.13
6093.25
6089.36
6084.55
6079.76
6074.06
6068.28
6061.76
6054.69
6047.88
6038.65
6032.6
6019.75
6015.93
5998.04
6240.27
6240.68
6240.34
6239.86
6238.74
6237.48
6235.53
6233.51
6230.71
6227.94
6224.25
6220.71
6216.15
6211.78
6206.39
6201.07
6194.95
6188.45
6182.04
6173.44
6167.91
6155.96
6152.37
6135.81
6369.14
6369.59
6369.24
6368.92
6367.82
6366.78
6364.9
6363.17
6360.46
6358.07
6354.5
6351.44
6347.02
6343.21
6338.02
6333.29
6327.51
6321.61
6315.67
6307.7
6302.57
6291.62
6288.24
6273.01
6496.73
6497.22
6496.88
6496.69
6495.63
6494.8
6492.99
6491.57
6488.93
6486.97
6483.46
6480.96
6476.59
6473.46
6468.34
6464.39
6458.76
6453.55
6448.04
6440.78
6436.01
6426.07
6422.9
6409
6622.61
6623.11
6622.86
6622.67
6621.82
6621
6619.49
6618.1
6615.85
6613.96
6610.9
6608.54
6604.64
6601.79
6597.11
6593.59
6588.38
6583.82
6578.58
6572.12
6567.7
6558.78
6555.8
6543.22
6746.41
6746.92
6746.74
6746.59
6745.89
6745.14
6743.85
6742.57
6740.63
6738.86
6736.22
6734
6730.61
6727.93
6723.82
6720.58
6715.89
6711.85
6706.93
6701.43
6697.22
6689.29
6686.49
6675.21
6867.83
6868.34
6868.23
6868.12
6867.54
6866.89
6865.78
6864.65
6862.96
6861.37
6859.05
6857.05
6854.07
6851.65
6848.02
6845.12
6840.91
6837.36
6832.81
6828.19
6824.19
6817.22
6814.61
6804.6
6986.59
6987.1
6987.04
6986.99
6986.52
6985.98
6985.03
6984.05
6982.58
6981.2
6979.16
6977.41
6974.79
6972.66
6969.44
6966.91
6963.15
6960.09
6955.96
6952.05
6948.21
6942.3
6939.86
6931.08
7102.48
7102.99
7102.98
7102.97
7102.6
7102.16
7101.36
7100.54
7099.27
7098.09
7096.33
7094.82
7092.52
7090.7
7087.86
7085.7
7082.36
7079.77
7076.07
7072.8
7069.17
7064.27
7061.96
7054.39
7215.31
7215.82
7215.84
7215.9
7215.59
7215.28
7214.6
7213.94
7212.85
7211.88
7210.36
7209.1
7207.1
7205.58
7203.1
7201.29
7198.35
7196.2
7192.91
7190.21
7186.88
7182.9
7180.76
7174.32
7324.93
7325.43
7325.51
7325.58
7325.42
7325.12
7324.64
7324.07
7323.2
7322.39
7321.11
7320.09
7318.38
7317.13
7314.99
7313.53
7310.96
7309.23
7306.33
7304.15
7301.19
7298.06
7296.03
7290.66
7431.24
7431.75
7431.81
7432.02
7431.78
7431.76
7431.22
7430.93
7430.12
7429.56
7428.46
7427.67
7426.23
7425.26
7423.43
7422.29
7420.08
7418.74
7416.22
7414.54
7411.93
7409.54
7407.66
7403.26
7534.14
7534.62
7534.79
7534.87
7534.97
7534.7
7534.6
7534.17
7533.71
7533.2
7532.36
7531.76
7530.57
7529.86
7528.32
7527.49
7525.61
7524.65
7522.49
7521.27
7519.02
7517.24
7515.5
7512.07
7633.58
7634.08
7634.16
7634.52
7634.3
7634.58
7634.11
7634.19
7633.59
7633.42
7632.67
7632.32
7631.34
7630.87
7629.61
7629.07
7627.5
7626.88
7625.06
7624.27
7622.36
7621.14
7619.55
7617.03
7729.52
7729.98
7730.22
7730.32
7730.6
7730.41
7730.59
7730.29
7730.2
7729.93
7729.5
7729.25
7728.52
7728.27
7727.26
7726.99
7725.71
7725.42
7723.9
7723.5
7721.89
7721.17
7719.83
7718.11
7821.96
7822.44
7822.54
7822.99
7822.83
7823.31
7822.95
7823.32
7822.9
7823.08
7822.62
7822.65
7822.07
7822.04
7821.26
7821.25
7820.23
7820.24
7819
7818.98
7817.65
7817.39
7816.27
7815.3
7910.87
7911.3
7911.59
7911.72
7912.12
7912.03
7912.41
7912.27
7912.45
7912.41
7912.31
7912.38
7912.04
7912.18
7911.63
7911.84
7911.08
7911.36
7910.4
7910.72
7909.66
7909.84
7908.96
7908.61
7996.32
7996.78
7996.89
7997.41
7997.32
7997.93
7997.69
7998.28
7998.03
7998.48
7998.29
7998.63
7998.4
7998.74
7998.38
7998.81
7998.27
7998.81
7998.09
7998.73
7997.92
7998.51
7997.84
7998.06
8078.3
8078.69
8079.02
8079.18
8079.66
8079.68
8080.19
8080.2
8080.59
8080.75
8080.92
8081.26
8081.24
8081.73
8081.55
8082.17
8081.84
8082.62
8082.12
8083.05
8082.45
8083.43
8082.93
8083.68
8156.9
8157.33
8157.46
8158.02
8158
8158.68
8158.59
8159.29
8159.25
8159.87
8159.92
8160.51
8160.57
8161.22
8161.2
8162
8161.84
8162.84
8162.53
8163.73
8163.32
8164.64
8164.28
8165.52
8232.16
8232.51
8232.86
8233.05
8233.57
8233.69
8234.27
8234.46
8234.96
8235.34
8235.69
8236.27
8236.5
8237.26
8237.39
8238.35
8238.36
8239.54
8239.41
8240.85
8240.6
8242.23
8241.99
8243.66
8304.16
8304.56
8304.71
8305.26
8305.33
8306.03
8306.1
8306.84
8307
8307.73
8308
8308.76
8309.07
8309.96
8310.21
8311.31
8311.46
8312.82
8312.84
8314.49
8314.38
8316.29
8316.14
8318.21
8372.98
8373.3
8373.64
8373.88
8374.4
8374.64
8375.22
8375.59
8376.14
8376.71
8377.19
8377.97
8378.39
8379.38
8379.75
8380.97
8381.25
8382.76
8382.91
8384.75
8384.76
8386.92
8386.86
8389.26
8438.7
8439.06
8439.24
8439.76
8439.93
8440.59
8440.83
8441.56
8441.91
8442.7
8443.16
8444.06
8444.55
8445.63
8446.1
8447.43
8447.82
8449.46
8449.73
8451.74
8451.85
8454.24
8454.25
8456.94
8501.43
8501.73
8502.04
8502.33
8502.81
8503.18
8503.73
8504.26
8504.83
8505.56
8506.13
8507.07
8507.65
8508.81
8509.36
8510.79
8511.28
8513.03
8513.41
8515.56
8515.77
8518.35
8518.4
8521.39
8561.25
8561.56
8561.77
8562.23
8562.52
8563.11
8563.5
8564.21
8564.71
8565.55
8566.14
8567.15
8567.78
8569.01
8569.64
8571.15
8571.73
8573.59
8574.05
8576.33
8576.63
8579.39
8579.53
8582.63
8618.27
8618.54
8618.81
8619.16
8619.59
8620.07
8620.59
8621.24
8621.83
8622.67
8623.32
8624.37
8625.06
8626.35
8627.05
8628.63
8629.29
8631.23
8631.78
8634.16
8634.53
8637.44
8637.61
8640.95
8672.57
8672.84
8673.08
8673.49
8673.85
8674.41
8674.88
8675.6
8676.19
8677.08
8677.76
8678.85
8679.59
8680.93
8681.69
8683.34
8684.06
8686.07
8686.69
8689.17
8689.61
8692.63
8692.85
8696.38
8724.28
8724.53
8724.78
8725.15
8725.55
8726.09
8726.61
8727.32
8727.94
8728.85
8729.57
8730.69
8731.48
8732.86
8733.67
8735.37
8736.15
8738.23
8738.91
8741.46
8741.97
8745.09
8745.34
8749.05
8773.48
8773.71
8773.95
8774.34
8774.73
8775.28
8775.8
8776.53
8777.17
8778.11
8778.84
8780
8780.82
8782.24
8783.1
8784.84
8785.67
8787.8
8788.54
8791.16
8791.72
8794.92
8795.21
8799.07
8820.28
8820.5
8820.74
8821.11
8821.51
8822.06
8822.59
8823.33
8823.99
8824.94
8825.7
8826.88
8827.73
8829.18
8830.07
8831.85
8832.73
8834.9
8835.69
8838.36
8838.96
8842.24
8842.56
8846.54
8864.77
8864.98
8865.21
8865.59
8865.98
8866.53
8867.07
8867.82
8868.48
8869.45
8870.23
8871.43
8872.3
8873.78
8874.69
8876.5
8877.41
8879.62
8880.45
8883.16
8883.81
8887.14
8887.5
8891.57
8907.06
8907.25
8907.48
8907.85
8908.24
8908.8
8909.34
8910.1
8910.77
8911.75
8912.53
8913.76
8914.63
8916.14
8917.07
8918.91
8919.84
8922.08
8922.93
8925.68
8926.35
8929.72
8930.1
8934.24
8947.24
8947.42
8947.64
8948.01
8948.4
8948.96
8949.49
8950.26
8950.93
8951.92
8952.71
8953.95
8954.84
8956.36
8957.3
8959.16
8960.1
8962.37
8963.22
8966.01
8966.68
8970.1
8970.48
8974.65
8985.4
8985.57
8985.79
8986.15
8986.54
8987.09
8987.63
8988.4
8989.07
8990.07
8990.86
8992.11
8993
8994.54
8995.48
8997.36
8998.3
9000.6
9001.45
9004.27
9004.93
9008.37
9008.74
9012.93
9021.64
9021.8
9022.02
9022.37
9022.75
9023.31
9023.84
9024.61
9025.28
9026.28
9027.08
9028.33
9029.22
9030.77
9031.71
9033.61
9034.54
9036.86
9037.71
9040.54
9041.2
9044.66
9045.02
9049.21
9056.05
9056.2
9056.41
9056.76
9057.13
9057.69
9058.22
9058.98
9059.66
9060.65
9061.45
9062.7
9063.6
9065.15
9066.09
9067.99
9068.93
9071.25
9072.09
9074.93
9075.59
9079.06
9079.42
9083.61
9088.71
9088.85
9089.05
9089.4
9089.77
9090.32
9090.84
9091.61
9092.27
9093.27
9094.06
9095.32
9096.21
9097.76
9098.71
9100.6
9101.54
9103.86
9104.71
9107.54
9108.2
9111.66
9112.03
9116.21
9119.7
9119.83
9120.03
9120.37
9120.73
9121.28
9121.8
9122.56
9123.22
9124.22
9125.01
9126.26
9127.15
9128.69
9129.64
9131.53
9132.47
9134.78
9135.63
9138.46
9139.12
9142.57
9142.93
9147.11
9149.1
9149.23
9149.42
9149.75
9150.11
9150.65
9151.17
9151.93
9152.58
9153.58
9154.36
9155.61
9156.49
9158.03
9158.97
9160.86
9161.79
9164.09
9164.94
9167.76
9168.42
9171.86
9172.22
9176.38
9177
9177.12
9177.31
9177.63
9177.98
9178.52
9179.03
9179.78
9180.43
9181.42
9182.19
9183.44
9184.31
9185.85
9186.78
9188.66
9189.59
9191.88
9192.73
9195.53
9196.19
9199.61
9199.97
9204.11
9203.45
9203.57
9203.75
9204.07
9204.42
9204.95
9205.45
9206.2
9206.84
9207.83
9208.59
9209.83
9210.69
9212.22
9213.14
9215.01
9215.93
9218.21
9219.05
9221.84
9222.47
9225.92
9226.25
9230.38
9228.54
9228.65
9228.83
9229.14
9229.48
9230.01
9230.5
9231.25
9231.88
9232.86
9233.61
9234.85
9235.69
9237.22
9238.13
9239.99
9240.9
9243.17
9243.99
9246.78
9247.45
9250.76
9251.13
9255.23
9252.33
9252.43
9252.6
9252.91
9253.25
9253.77
9254.25
9254.99
9255.61
9256.59
9257.33
9258.56
9259.39
9260.92
9261.8
9263.66
9264.54
9266.81
9267.61
9270.38
9271.02
9274.34
9274.69
9278.77
9274.88
9274.97
9275.14
9275.45
9275.77
9276.29
9276.76
9277.5
9278.11
9279.09
9279.8
9281.04
9281.84
9283.37
9284.23
9286.09
9286.94
9289.2
9289.98
9292.74
9293.35
9296.67
9297
9301.02
9296.25
9296.34
9296.5
9296.81
9297.12
9297.64
9298.1
9298.84
9299.42
9300.4
9301.1
9302.33
9303.11
9304.64
9305.47
9307.34
9308.15
9310.42
9311.16
9313.91
9314.47
9317.81
9318.1
9322.08
9316.5
9316.59
9316.75
9317.04
9317.35
9317.87
9318.31
9319.05
9319.62
9320.6
9321.27
9322.51
9323.26
9324.8
9325.58
9327.46
9328.23
9330.51
9331.2
9333.95
9334.46
9337.8
9338.06
9342
9335.68
9335.77
9335.92
9336.22
9336.52
9337.03
9337.46
9338.2
9338.75
9339.73
9340.37
9341.62
9342.34
9343.88
9344.63
9346.52
9347.24
9349.53
9350.15
9352.95
9353.39
9356.71
9356.95
9360.83
9353.85
9353.93
9354.08
9354.38
9354.67
9355.18
9355.6
9356.33
9356.86
9357.84
9358.47
9359.72
9360.4
9361.95
9362.66
9364.56
9365.23
9367.54
9368.13
9370.88
9371.3
9374.6
9374.82
9378.65
9371.05
9371.13
9371.28
9371.57
9371.86
9372.36
9372.77
9373.5
9374.02
9375
9375.6
9376.85
9377.5
9379.06
9379.73
9381.63
9382.27
9384.57
9385.11
9387.88
9388.26
9391.53
9391.74
9395.52
9387.34
9387.42
9387.56
9387.85
9388.12
9388.63
9389.02
9389.75
9390.25
9391.23
9391.81
9393.06
9393.69
9395.24
9395.88
9397.78
9398.36
9400.71
9401.18
9403.96
9404.3
9407.55
9407.74
9411.48
9402.75
9402.83
9402.96
9403.25
9403.52
9404.02
9404.4
9405.14
9405.61
9406.59
9407.15
9408.4
9408.99
9410.56
9411.16
9413.08
9413.63
9415.93
9416.38
9419.15
9419.47
9422.69
9422.87
9426.56
9417.33
9417.4
9417.54
9417.82
9418.08
9418.58
9418.95
9419.69
9420.14
9421.13
9421.65
9422.92
9423.46
9425.06
9425.6
9427.53
9428.01
9430.36
9430.76
9433.51
9433.81
9436.99
9437.16
9440.81
9431.11
9431.19
9431.31
9431.6
9431.85
9432.35
9432.7
9433.45
9433.87
9434.88
9435.35
9436.64
9437.13
9438.77
9439.23
9441.21
9441.63
9443.98
9444.34
9447.08
9447.36
9450.51
9450.67
9454.26
9444.14
9444.21
9444.33
9444.62
9444.86
9445.37
9445.69
9446.45
9446.84
9447.87
9448.29
9449.63
9450.06
9451.7
9452.12
9454.11
9454.5
9456.84
9457.18
9459.9
9460.16
9463.27
9463.43
9466.97
9456.44
9456.52
9456.63
9456.93
9457.14
9457.67
9457.96
9458.75
9459.1
9460.14
9460.53
9461.87
9462.27
9463.92
9464.31
9466.29
9466.66
9468.98
9469.31
9471.99
9472.24
9475.32
9475.47
9478.96
9468.06
9468.13
9468.24
9468.54
9468.74
9469.27
9469.55
9470.33
9470.66
9471.72
9472.07
9473.42
9473.79
9475.44
9475.81
9477.78
9478.13
9480.44
9480.74
9483.4
9483.64
9486.68
9486.82
9490.27
9479.01
9479.09
9479.19
9479.49
9479.68
9480.22
9480.48
9481.26
9481.57
9482.63
9482.97
9484.31
9484.67
9486.31
9486.66
9488.61
9488.95
9491.23
9491.53
9494.16
9494.39
9497.39
9497.53
9500.93
9489.34
9489.41
9489.52
9489.81
9490
9490.53
9490.78
9491.56
9491.86
9492.91
9493.24
9494.57
9494.92
9496.54
9496.89
9498.82
9499.14
9501.4
9501.69
9504.29
9504.52
9507.48
9507.61
9510.98
9499.06
9499.14
9499.24
9499.53
9499.71
9500.24
9500.49
9501.26
9501.55
9502.59
9502.91
9504.23
9504.57
9506.18
9506.51
9508.42
9508.74
9510.98
9511.25
9513.83
9514.04
9516.98
9517.1
9520.42
9508.21
9508.28
9508.38
9508.67
9508.85
9509.37
9509.61
9510.38
9510.67
9511.69
9512.01
9513.31
9513.64
9515.23
9515.56
9517.45
9517.76
9519.97
9520.24
9522.79
9523
9525.9
9526.02
9529.3
9516.81
9516.87
9516.98
9517.26
9517.44
9517.95
9518.19
9518.95
9519.23
9520.25
9520.55
9521.85
9522.16
9523.74
9524.05
9525.93
9526.23
9528.42
9528.68
9531.2
9531.4
9534.27
9534.39
9537.63
9524.87
9524.94
9525.05
9525.3
9525.52
9525.98
9526.26
9526.97
9527.27
9528.26
9528.57
9529.85
9530.15
9531.72
9532.02
9533.88
9534.17
9536.34
9536.59
9539.08
9539.28
9542.12
9542.23
9545.43
9532.43
9532.49
9532.62
9532.84
9533.08
9533.5
9533.82
9534.47
9534.82
9535.74
9536.1
9537.33
9537.64
9539.19
9539.48
9541.33
9541.6
9543.75
9543.99
9546.46
9546.65
9549.46
9549.56
9552.73
9539.5
9539.56
9539.69
9539.9
9540.16