/*--------------------------------*- C++ -*----------------------------------*\
  =========                 |
  \\      /  F ield         | OpenFOAM: The Open Source CFD Toolbox
   \\    /   O peration     | Website:  https://openfoam.org
    \\  /    A nd           | Version:  10
     \\/     M anipulation  |
\*---------------------------------------------------------------------------*/
FoamFile
{
    format      ascii;
    class       surfaceScalarField;
    location    "0.2";
    object      phi;
}
// * * * * * * * * * * * * * * * * * * * * * * * * * * * * * * * * * * * * * //

dimensions      [1 0 -1 0 0 0 0];

internalField   nonuniform List<scalar> 
8154
(
-5.7925e-09
-2.1991e-08
-5.66954e-08
-9.17048e-08
-1.71525e-07
-2.25998e-07
-3.70005e-07
-4.54029e-07
-6.74021e-07
-8.12944e-07
-1.10339e-06
-1.33595e-06
-1.6668e-06
-2.02608e-06
-2.35968e-06
-2.86643e-06
-3.25767e-06
-3.98625e-06
-4.56644e-06
-5.50404e-06
-6.81349e-06
-7.27225e-06
-6.84303e-06
-0.000277446
-0.000832392
2.40634e-08
-0.0013875
9.63837e-08
-0.00194294
2.13545e-07
-0.00249874
3.78312e-07
-0.00305512
5.77371e-07
-0.00361213
8.23613e-07
-0.00416985
1.08856e-06
-0.00472859
1.39803e-06
-0.00528806
1.71169e-06
-0.00584894
2.05706e-06
-0.00641075
2.40384e-06
-0.00697397
2.74939e-06
-0.00753888
3.12158e-06
-0.00810439
3.43776e-06
-0.00867335
3.85174e-06
-0.00924051
4.12666e-06
-0.00981518
4.5726e-06
-0.0103836
4.92437e-06
-0.0109648
5.13802e-06
-0.0115342
5.28172e-06
-0.0121238
5.12174e-06
-0.0126953
4.03351e-06
-0.0132933
2.45026e-06
-0.00027747
-0.000832464
2.63839e-08
-0.00138762
1.04947e-07
-0.0019431
2.34987e-07
-0.00249894
4.10476e-07
-0.00305536
6.35384e-07
-0.00361239
8.89777e-07
-0.00417015
1.19487e-06
-0.0047289
1.50152e-06
-0.0052884
1.86764e-06
-0.00584928
2.19165e-06
-0.00641109
2.59424e-06
-0.00697433
2.89384e-06
-0.00753919
3.30007e-06
-0.0081048
3.54097e-06
-0.00867362
3.90618e-06
-0.00924095
4.10571e-06
-0.00981552
4.38901e-06
-0.0103838
5.00158e-06
-0.010965
4.66515e-06
-0.011534
5.23371e-06
-0.0121227
5.33871e-06
-0.0126937
5.04422e-06
-0.0132908
4.23017e-06
-0.000277496
-0.000832541
2.13251e-08
-0.00138775
8.50788e-08
-0.00194328
1.8835e-07
-0.00249916
3.30869e-07
-0.00305561
5.02116e-07
-0.00361269
7.07623e-07
-0.00417046
9.22982e-07
-0.00472926
1.16695e-06
-0.00528872
1.39485e-06
-0.00584968
1.64281e-06
-0.00641139
1.84718e-06
-0.00697473
2.05057e-06
-0.00753942
2.19812e-06
-0.00810515
2.28536e-06
-0.00867381
2.3558e-06
-0.00924122
2.20755e-06
-0.00981612
2.34281e-06
-0.0103834
1.89842e-06
-0.0109655
1.78079e-06
-0.0115341
1.39413e-06
-0.0121224
1.15994e-06
-0.0126928
7.25027e-07
-0.0132866
5.17961e-07
-0.000277517
-0.000832604
2.55625e-08
-0.00138785
1.02046e-07
-0.00194342
2.26339e-07
-0.00249933
3.98188e-07
-0.00305582
6.05916e-07
-0.0036129
8.56033e-07
-0.0041707
1.11992e-06
-0.00472948
1.42125e-06
-0.00528896
1.70335e-06
-0.00584988
2.01798e-06
-0.00641159
2.27298e-06
-0.00697488
2.54897e-06
-0.0075395
2.73412e-06
-0.00810522
2.89638e-06
-0.00867366
2.98745e-06
-0.00924135
2.89912e-06
-0.00981566
2.97384e-06
-0.0103833
2.28166e-06
-0.0109651
2.51669e-06
-0.0115339
1.72721e-06
-0.0121219
1.21147e-06
-0.0126926
3.84061e-07
-0.0132861
-1.68132e-07
-0.000277542
-0.00083268
3.36772e-08
-0.00138797
1.34412e-07
-0.00194359
2.99494e-07
-0.00249954
5.26867e-07
-0.00305606
8.08306e-07
-0.00361316
1.14216e-06
-0.00417099
1.51253e-06
-0.00472976
1.91997e-06
-0.00528927
2.34005e-06
-0.00585013
2.77461e-06
-0.00641186
3.19509e-06
-0.00697506
3.5965e-06
-0.00753966
3.96433e-06
-0.0081053
4.25967e-06
-0.00867356
4.52404e-06
-0.00924141
4.61673e-06
-0.00981496
4.73029e-06
-0.0103835
4.3997e-06
-0.0109643
4.36611e-06
-0.0115333
3.67504e-06
-0.0121211
3.21572e-06
-0.012692
2.27459e-06
-0.0132862
1.35373e-06
-0.000277576
-0.00083278
3.75997e-08
-0.00138814
1.50076e-07
-0.00194381
3.34697e-07
-0.00249982
5.88917e-07
-0.0030564
9.04799e-07
-0.00361353
1.27895e-06
-0.0041714
1.69688e-06
-0.00473018
2.15492e-06
-0.0052897
2.63213e-06
-0.00585055
3.12242e-06
-0.00641225
3.60345e-06
-0.00697542
4.05867e-06
-0.00753994
4.48157e-06
-0.00810556
4.82205e-06
-0.00867365
5.1256e-06
-0.00924152
5.25141e-06
-0.00981462
5.36954e-06
-0.0103835
5.08179e-06
-0.0109636
4.9682e-06
-0.0115329
4.21805e-06
-0.0121201
3.67712e-06
-0.0126911
2.64322e-06
-0.0132849
1.61944e-06
-0.000277613
-0.000832891
4.14324e-08
-0.00138832
1.65388e-07
-0.00194407
3.6898e-07
-0.00250013
6.49417e-07
-0.00305677
9.98336e-07
-0.00361395
1.41193e-06
-0.00417185
1.87486e-06
-0.00473065
2.38301e-06
-0.00529019
2.9137e-06
-0.00585102
3.46064e-06
-0.0064127
3.99769e-06
-0.00697584
4.50952e-06
-0.00754028
4.98211e-06
-0.00810585
5.37088e-06
-0.00867377
5.70834e-06
-0.00924163
5.86396e-06
-0.00981432
5.99785e-06
-0.0103834
5.71868e-06
-0.0109629
5.60067e-06
-0.0115323
4.81071e-06
-0.0121191
4.19596e-06
-0.0126901
2.99306e-06
-0.0132832
1.80472e-06
-0.000277654
-0.000833015
4.51266e-08
-0.00138852
1.80125e-07
-0.00194434
4.01938e-07
-0.00250048
7.0738e-07
-0.00305718
1.0878e-06
-0.00361441
1.53851e-06
-0.00417236
2.04408e-06
-0.00473118
2.59879e-06
-0.00529073
3.18024e-06
-0.00585155
3.77947e-06
-0.00641321
4.37057e-06
-0.00697631
4.93448e-06
-0.00754066
5.45609e-06
-0.00810618
5.8884e-06
-0.00867392
6.25875e-06
-0.00924176
6.44246e-06
-0.00981403
6.58223e-06
-0.0103833
6.32899e-06
-0.0109621
6.18188e-06
-0.0115317
5.37205e-06
-0.0121179
4.81756e-06
-0.0126889
3.36376e-06
-0.0132814
2.02793e-06
-0.000277699
-0.000833149
4.87711e-08
-0.00138874
1.94653e-07
-0.00194465
4.34374e-07
-0.00250086
7.64324e-07
-0.00305763
1.17541e-06
-0.00361491
1.66214e-06
-0.00417291
2.20864e-06
-0.00473175
2.80801e-06
-0.00529132
3.43754e-06
-0.00585214
4.0867e-06
-0.00641377
4.72891e-06
-0.00697682
5.34307e-06
-0.00754108
5.91166e-06
-0.00810654
6.38656e-06
-0.0086741
6.7885e-06
-0.00924189
6.99762e-06
-0.00981377
7.13831e-06
-0.0103831
6.90418e-06
-0.0109613
6.73195e-06
-0.011531
5.91647e-06
-0.0121166
4.84986e-06
-0.0126875
3.71994e-06
-0.0132794
2.22034e-06
-0.000277747
-0.000833294
5.23648e-08
-0.00138898
2.08975e-07
-0.00194498
4.66328e-07
-0.00250127
8.20369e-07
-0.00305811
1.26149e-06
-0.00361545
1.78335e-06
-0.0041735
2.36943e-06
-0.00473238
3.0117e-06
-0.00529197
3.6869e-06
-0.00585278
4.38321e-06
-0.00641438
5.07336e-06
-0.00697739
5.73482e-06
-0.00754155
6.34794e-06
-0.00810694
6.86376e-06
-0.0086743
7.29679e-06
-0.00924202
7.52929e-06
-0.00981353
7.66935e-06
-0.0103829
7.44978e-06
-0.0109604
7.24627e-06
-0.0115303
6.39095e-06
-0.012115
5.60004e-06
-0.012686
4.03306e-06
-0.0132772
2.40196e-06
-0.0002778
-0.00083345
5.59231e-08
-0.00138924
2.23158e-07
-0.00194533
4.97983e-07
-0.00250171
8.75909e-07
-0.00305863
1.34678e-06
-0.00361604
1.90336e-06
-0.00417414
2.52837e-06
-0.00473305
3.21254e-06
-0.00529266
3.9318e-06
-0.00585347
4.67315e-06
-0.00641504
5.40836e-06
-0.006978
6.11409e-06
-0.00754206
6.76859e-06
-0.00810736
7.323e-06
-0.00867453
7.78631e-06
-0.00924216
8.04329e-06
-0.0098133
8.18913e-06
-0.0103827
7.971e-06
-0.0109596
7.74178e-06
-0.0115295
6.86034e-06
-0.0121134
6.00656e-06
-0.0126843
4.35792e-06
-0.0132748
2.59015e-06
-0.000277855
-0.000833616
5.94395e-08
-0.00138951
2.37181e-07
-0.0019457
5.29305e-07
-0.00250217
9.30926e-07
-0.00305918
1.43134e-06
-0.00361666
2.02247e-06
-0.00417482
2.6861e-06
-0.00473377
3.41169e-06
-0.0052934
4.17409e-06
-0.0058542
4.95899e-06
-0.00641574
5.73695e-06
-0.00697865
6.48399e-06
-0.00754261
7.1763e-06
-0.00810782
7.76574e-06
-0.00867478
8.25639e-06
-0.0092423
8.53618e-06
-0.00981308
8.68867e-06
-0.0103825
8.46833e-06
-0.0109587
8.20421e-06
-0.0115286
7.28458e-06
-0.0121118
6.37357e-06
-0.0126825
4.65299e-06
-0.0132722
2.76056e-06
-0.000277914
-0.000833793
6.29143e-08
-0.0013898
2.51043e-07
-0.0019461
5.60289e-07
-0.00250267
9.85413e-07
-0.00305977
1.5152e-06
-0.00361732
2.14074e-06
-0.00417554
2.84291e-06
-0.00473453
3.60984e-06
-0.00529418
4.41507e-06
-0.00585497
5.24285e-06
-0.00641648
6.06218e-06
-0.00697934
6.84832e-06
-0.00754319
7.57528e-06
-0.0081083
8.19599e-06
-0.00867506
8.71024e-06
-0.00924244
9.00965e-06
-0.00981285
9.16623e-06
-0.0103822
8.94626e-06
-0.0109578
8.64213e-06
-0.0115277
7.67793e-06
-0.0121101
6.70564e-06
-0.0126806
4.89677e-06
-0.0132694
2.9075e-06
-0.000277977
-0.000833981
6.63505e-08
-0.00139011
2.64749e-07
-0.00194653
5.90923e-07
-0.0025032
1.0393e-06
-0.0030604
1.59818e-06
-0.00361802
2.25791e-06
-0.00417631
2.99844e-06
-0.00473533
3.80665e-06
-0.005295
4.65468e-06
-0.00585579
5.52521e-06
-0.00641727
6.38542e-06
-0.00698007
7.20948e-06
-0.0075438
7.96889e-06
-0.0081088
8.6175e-06
-0.00867535
9.15117e-06
-0.00924259
9.46604e-06
-0.00981263
9.62504e-06
-0.0103819
9.40752e-06
-0.0109568
9.06148e-06
-0.0115267
8.05253e-06
-0.0121082
7.0117e-06
-0.0126786
5.05545e-06
-0.0132665
3.03289e-06
-0.000278043
-0.000834178
6.97555e-08
-0.00139044
2.78321e-07
-0.00194697
6.21231e-07
-0.00250376
1.09257e-06
-0.00306105
1.68013e-06
-0.00361876
2.3736e-06
-0.00417711
3.15204e-06
-0.00473617
4.0012e-06
-0.00529587
4.89187e-06
-0.00585664
5.80519e-06
-0.00641809
6.70637e-06
-0.00698082
7.5682e-06
-0.00754445
8.3593e-06
-0.00810933
9.03381e-06
-0.00867567
9.58335e-06
-0.00924275
9.90875e-06
-0.00981241
1.00662e-05
-0.0103815
9.84868e-06
-0.0109558
9.46195e-06
-0.0115257
8.41503e-06
-0.0121063
7.31108e-06
-0.0126766
5.27648e-06
-0.0132635
3.16464e-06
-0.000278113
-0.000834386
7.31328e-08
-0.00139078
2.91773e-07
-0.00194744
6.51217e-07
-0.00250434
1.14516e-06
-0.00306174
1.76086e-06
-0.00361953
2.48734e-06
-0.00417796
3.30286e-06
-0.00473706
4.19218e-06
-0.00529678
5.12487e-06
-0.00585754
6.08065e-06
-0.00641894
7.02292e-06
-0.00698161
7.92288e-06
-0.00754512
8.74616e-06
-0.00810987
9.44642e-06
-0.00867599
1.00106e-05
-0.0092429
1.03431e-05
-0.00981219
1.04924e-05
-0.0103811
1.02622e-05
-0.0109547
9.84183e-06
-0.0115246
8.75735e-06
-0.0121042
7.59264e-06
-0.0126745
5.49437e-06
-0.0132603
3.28723e-06
-0.000278186
-0.000834604
7.64724e-08
-0.00139114
3.05061e-07
-0.00194794
6.80775e-07
-0.00250496
1.19686e-06
-0.00306247
1.83998e-06
-0.00362035
2.59849e-06
-0.00417885
3.44986e-06
-0.00473799
4.37797e-06
-0.00529773
5.35137e-06
-0.00585848
6.34862e-06
-0.00641984
7.33148e-06
-0.00698243
8.26973e-06
-0.00754581
9.12606e-06
-0.00811042
9.8532e-06
-0.00867632
1.04332e-05
-0.00924304
1.0773e-05
-0.00981195
1.09129e-05
-0.0103807
1.06664e-05
-0.0109536
1.02115e-05
-0.0115234
9.09044e-06
-0.0121021
7.86351e-06
-0.0126722
5.69446e-06
-0.013257
3.40258e-06
-0.000278262
-0.000834832
7.9748e-08
-0.00139151
3.18079e-07
-0.00194845
7.09685e-07
-0.0025056
1.2473e-06
-0.00306323
1.91697e-06
-0.0036212
2.70629e-06
-0.00417977
3.59197e-06
-0.00473896
4.5571e-06
-0.00529872
5.56928e-06
-0.00585946
6.60619e-06
-0.00642077
7.62827e-06
-0.00698328
8.60415e-06
-0.00754653
9.49393e-06
-0.00811099
1.02492e-05
-0.00867666
1.08472e-05
-0.00924317
1.11966e-05
-0.0098117
1.13292e-05
-0.0103803
1.10683e-05
-0.0109525
1.05745e-05
-0.0115221
9.4199e-06
-0.0121
8.13062e-06
-0.0126699
5.88879e-06
-0.0132536
3.51392e-06
-0.000278341
-0.00083507
8.29005e-08
-0.0013919
3.30604e-07
-0.00194899
7.37479e-07
-0.00250627
1.29575e-06
-0.00306401
1.99079e-06
-0.00362208
2.80946e-06
-0.00418073
3.72764e-06
-0.00473997
4.72763e-06
-0.00529976
5.77616e-06
-0.00586048
6.85018e-06
-0.00642175
7.90911e-06
-0.00698417
8.92077e-06
-0.00754728
9.84319e-06
-0.00811158
1.06271e-05
-0.00867701
1.12452e-05
-0.0092433
1.16072e-05
-0.00981144
1.17365e-05
-0.0103798
1.14637e-05
-0.0109513
1.09306e-05
-0.0115208
9.74912e-06
-0.0120977
8.4001e-06
-0.0126675
6.08304e-06
-0.0132501
3.62453e-06
-0.000278424
-0.000835317
8.58519e-08
-0.00139231
3.42334e-07
-0.00194954
7.63527e-07
-0.00250696
1.34119e-06
-0.00306483
2.06007e-06
-0.003623
2.90629e-06
-0.00418173
3.85489e-06
-0.00474102
4.88735e-06
-0.00530083
5.9695e-06
-0.00586154
7.07762e-06
-0.00642275
8.17025e-06
-0.00698509
9.2147e-06
-0.00754806
1.01675e-05
-0.00811219
1.09788e-05
-0.00867737
1.1618e-05
-0.00924342
1.19953e-05
-0.00981116
1.21264e-05
-0.0103792
1.18462e-05
-0.0109502
1.12775e-05
-0.0115195
1.00773e-05
-0.0120954
8.67393e-06
-0.0126651
6.28373e-06
-0.0132465
3.73856e-06
-0.00027851
-0.000835572
8.85119e-08
-0.00139273
3.52918e-07
-0.00195012
7.87082e-07
-0.00250768
1.3824e-06
-0.00306567
2.12307e-06
-0.00362394
2.99458e-06
-0.00418276
3.97116e-06
-0.0047421
5.03342e-06
-0.00530193
6.14628e-06
-0.00586263
7.28522e-06
-0.00642379
8.40797e-06
-0.00698604
9.48144e-06
-0.00754887
1.04609e-05
-0.00811282
1.12968e-05
-0.00867775
1.19555e-05
-0.00924355
1.23489e-05
-0.00981088
1.24859e-05
-0.0103786
1.22054e-05
-0.0109489
1.16149e-05
-0.0115181
1.03966e-05
-0.012093
8.94512e-06
-0.0126625
6.49175e-06
-0.0132428
3.85787e-06
-0.000278598
-0.000835836
9.07934e-08
-0.00139316
3.62013e-07
-0.00195071
8.07385e-07
-0.00250842
1.41806e-06
-0.00306654
2.17788e-06
-0.00362492
3.07181e-06
-0.00418382
4.07336e-06
-0.00474321
5.16235e-06
-0.00530307
6.3027e-06
-0.00586375
7.46905e-06
-0.00642486
8.61818e-06
-0.00698701
9.71654e-06
-0.0075497
1.07185e-05
-0.00811347
1.15744e-05
-0.00867814
1.22492e-05
-0.00924368
1.26563e-05
-0.00981059
1.27993e-05
-0.010378
1.25224e-05
-0.0109477
1.19213e-05
-0.0115166
1.0686e-05
-0.0120906
9.19449e-06
-0.0126599
6.69728e-06
-0.0132389
3.97806e-06
-0.000278688
-0.000836106
9.2625e-08
-0.0013936
3.6933e-07
-0.00195132
8.23781e-07
-0.00250918
1.44702e-06
-0.00306744
2.22267e-06
-0.00362592
3.13538e-06
-0.00418491
4.15812e-06
-0.00474434
5.27005e-06
-0.00530423
6.43416e-06
-0.00586489
7.62417e-06
-0.00642596
8.79582e-06
-0.00698801
9.91492e-06
-0.00755055
1.09347e-05
-0.00811414
1.1806e-05
-0.00867855
1.2492e-05
-0.00924382
1.29087e-05
-0.00981031
1.30548e-05
-0.0103774
1.27794e-05
-0.0109465
1.21669e-05
-0.0115151
1.09215e-05
-0.0120881
9.39731e-06
-0.0126571
6.87391e-06
-0.0132349
4.08096e-06
-0.000278781
-0.000836382
9.3958e-08
-0.00139406
3.74666e-07
-0.00195195
8.35778e-07
-0.00250995
1.46832e-06
-0.00306835
2.25585e-06
-0.00362694
3.18289e-06
-0.00418602
4.22211e-06
-0.00474551
5.3522e-06
-0.00530542
6.53541e-06
-0.00586606
7.74469e-06
-0.00642707
8.9346e-06
-0.00698903
1.00702e-05
-0.00755142
1.11035e-05
-0.00811482
1.19853e-05
-0.00867896
1.26774e-05
-0.00924396
1.30983e-05
-0.00981003
1.32433e-05
-0.0103768
1.29662e-05
-0.0109452
1.2341e-05
-0.0115135
1.10886e-05
-0.0120856
9.52662e-06
-0.0126544
6.97706e-06
-0.0132308
4.13194e-06
-0.000278874
-0.000836662
9.47805e-08
-0.00139452
3.77961e-07
-0.00195258
8.43207e-07
-0.00251074
1.48157e-06
-0.00306927
2.27664e-06
-0.00362798
3.213e-06
-0.00418715
4.26316e-06
-0.00474669
5.40576e-06
-0.00530663
6.60243e-06
-0.00586725
7.82587e-06
-0.00642821
9.02922e-06
-0.00699006
1.01774e-05
-0.0075523
1.122e-05
-0.00811551
1.21086e-05
-0.00867938
1.2802e-05
-0.0092441
1.32229e-05
-0.00980976
1.33611e-05
-0.0103762
1.30791e-05
-0.010944
1.24401e-05
-0.011512
1.11827e-05
-0.012083
9.57245e-06
-0.0126515
6.96844e-06
-0.0132267
4.10305e-06
-0.000278969
-0.000836945
9.54724e-08
-0.00139498
3.80727e-07
-0.00195321
8.49432e-07
-0.00251153
1.49268e-06
-0.00307021
2.29411e-06
-0.00362903
3.23845e-06
-0.00418829
4.29828e-06
-0.00474788
5.45236e-06
-0.00530785
6.66219e-06
-0.00586845
7.90038e-06
-0.00642935
9.11938e-06
-0.00699109
1.02836e-05
-0.00755319
1.13411e-05
-0.0081162
1.22429e-05
-0.0086798
1.29455e-05
-0.00924423
1.33738e-05
-0.00980947
1.35138e-05
-0.0103755
1.32343e-05
-0.0109427
1.25908e-05
-0.0115103
1.1334e-05
-0.0120804
9.69947e-06
-0.0126486
7.05296e-06
-0.0132226
4.20024e-06
-0.000279064
-0.000837229
9.57661e-08
-0.00139545
3.81894e-07
-0.00195386
8.52046e-07
-0.00251233
1.49733e-06
-0.00307115
2.30148e-06
-0.00363008
3.24936e-06
-0.00418944
4.31375e-06
-0.00474909
5.47368e-06
-0.00530908
6.6909e-06
-0.00586966
7.93823e-06
-0.00643051
9.16812e-06
-0.00699215
1.03447e-05
-0.00755408
1.14153e-05
-0.0081169
1.23296e-05
-0.00868023
1.30429e-05
-0.00924436
1.34793e-05
-0.0098092
1.3623e-05
-0.0103749
1.33465e-05
-0.0109415
1.26992e-05
-0.0115087
1.14418e-05
-0.0120778
9.8041e-06
-0.0126457
7.13601e-06
-0.0132184
4.34674e-06
-0.00027916
-0.000837515
9.55514e-08
-0.00139592
3.81027e-07
-0.0019545
8.50084e-07
-0.00251313
1.49386e-06
-0.0030721
2.29615e-06
-0.00363115
3.24201e-06
-0.0041906
4.3044e-06
-0.0047503
5.46274e-06
-0.00531033
6.67915e-06
-0.00587089
7.92706e-06
-0.00643168
9.15933e-06
-0.00699321
1.03405e-05
-0.007555
1.1418e-05
-0.00811761
1.23405e-05
-0.00868066
1.3062e-05
-0.0092445
1.35057e-05
-0.00980892
1.36526e-05
-0.0103742
1.33781e-05
-0.0109402
1.27265e-05
-0.011507
1.14697e-05
-0.0120751
9.82521e-06
-0.0126427
7.19792e-06
-0.0132143
3.92325e-06
-0.000279255
-0.0008378
9.48658e-08
-0.00139639
3.78283e-07
-0.00195514
8.43933e-07
-0.00251393
1.48302e-06
-0.00307304
2.27945e-06
-0.00363221
3.21846e-06
-0.00419176
4.27323e-06
-0.00475152
5.42353e-06
-0.00531158
6.63188e-06
-0.00587212
7.87246e-06
-0.00643286
9.09884e-06
-0.00699429
1.02767e-05
-0.00755592
1.13539e-05
-0.00811833
1.22797e-05
-0.0086811
1.30071e-05
-0.00924464
1.34586e-05
-0.00980864
1.36115e-05
-0.0103736
1.33418e-05
-0.010939
1.26873e-05
-0.0115054
1.14299e-05
-0.0120725
9.75813e-06
-0.0126397
7.17055e-06
-0.0132101
3.89337e-06
-0.00027935
-0.000838082
9.37364e-08
-0.00139685
3.73779e-07
-0.00195578
8.33889e-07
-0.00251473
1.46541e-06
-0.00307398
2.25245e-06
-0.00363326
3.1805e-06
-0.0041929
4.22296e-06
-0.00475272
5.35996e-06
-0.00531281
6.55431e-06
-0.00587334
7.78092e-06
-0.00643404
8.99407e-06
-0.00699536
1.01609e-05
-0.00755684
1.12303e-05
-0.00811905
1.21531e-05
-0.00868155
1.28825e-05
-0.00924479
1.33414e-05
-0.00980837
1.35044e-05
-0.0103729
1.32465e-05
-0.0109377
1.25975e-05
-0.0115037
1.13438e-05
-0.0120699
9.64745e-06
-0.0126369
7.08447e-06
-0.0132057
4.21125e-06
-0.000279443
-0.000838362
9.2191e-08
-0.00139731
3.67629e-07
-0.00195641
8.20224e-07
-0.00251552
1.44156e-06
-0.00307491
2.21605e-06
-0.0036343
3.12959e-06
-0.00419404
4.15589e-06
-0.00475392
5.27544e-06
-0.00531404
6.45128e-06
-0.00587456
7.65892e-06
-0.0064352
8.85317e-06
-0.00699643
1.00026e-05
-0.00755776
1.10573e-05
-0.00811978
1.19701e-05
-0.008682
1.26953e-05
-0.00924495
1.31581e-05
-0.00980811
1.33322e-05
-0.0103722
1.30928e-05
-0.0109364
1.24635e-05
-0.011502
1.12319e-05
-0.0120673
9.54524e-06
-0.012634
7.01857e-06
-0.0132015
4.16896e-06
-0.000279535
-0.000838637
9.02704e-08
-0.00139776
3.59995e-07
-0.00195703
8.03286e-07
-0.00251629
1.41206e-06
-0.00307582
2.17118e-06
-0.00363533
3.06707e-06
-0.00419516
4.07396e-06
-0.00475509
5.17274e-06
-0.00531525
6.32675e-06
-0.00587575
7.512e-06
-0.00643635
8.68362e-06
-0.00699748
9.81133e-06
-0.00755867
1.08462e-05
-0.0081205
1.17429e-05
-0.00868246
1.24571e-05
-0.00924512
1.29175e-05
-0.00980787
1.30988e-05
-0.0103716
1.28787e-05
-0.0109352
1.2278e-05
-0.0115003
1.10857e-05
-0.0120648
9.43541e-06
-0.0126311
6.93883e-06
-0.0131974
4.12328e-06
-0.000279625
-0.000838906
8.80336e-08
-0.00139821
3.51106e-07
-0.00195764
7.83562e-07
-0.00251705
1.37772e-06
-0.00307671
2.11899e-06
-0.00363633
2.99446e-06
-0.00419625
3.97903e-06
-0.00475624
5.05423e-06
-0.00531643
6.1838e-06
-0.00587692
7.34435e-06
-0.00643747
8.49129e-06
-0.00699851
9.59522e-06
-0.00755957
1.06075e-05
-0.00812122
1.14846e-05
-0.00868291
1.21825e-05
-0.0092453
1.26338e-05
-0.00980765
1.2815e-05
-0.010371
1.2609e-05
-0.010934
1.20371e-05
-0.0114986
1.08914e-05
-0.0120623
9.29154e-06
-0.0126283
6.85848e-06
-0.0131932
4.0691e-06
-0.000279713
-0.000839169
8.55562e-08
-0.00139864
3.41253e-07
-0.00195824
7.61676e-07
-0.00251779
1.33956e-06
-0.00307759
2.0609e-06
-0.00363731
2.91355e-06
-0.00419733
3.8732e-06
-0.00475737
4.92222e-06
-0.00531759
6.02501e-06
-0.00587806
7.15897e-06
-0.00643857
8.27998e-06
-0.00699952
9.35952e-06
-0.00756044
1.03491e-05
-0.00812191
1.12059e-05
-0.00868336
1.18854e-05
-0.00924548
1.23236e-05
-0.00980743
1.24979e-05
-0.0103704
1.22973e-05
-0.0109329
1.17467e-05
-0.011497
1.06454e-05
-0.0120598
9.1093e-06
-0.0126255
6.77634e-06
-0.0131892
4.01002e-06
-0.000279799
-0.000839424
8.29212e-08
-0.00139906
3.30761e-07
-0.00195881
7.3833e-07
-0.00251851
1.29874e-06
-0.00307844
1.9986e-06
-0.00363827
2.82648e-06
-0.00419838
3.75898e-06
-0.00475847
4.77937e-06
-0.00531872
5.85298e-06
-0.00587918
6.95831e-06
-0.00643965
8.05208e-06
-0.0070005
9.1069e-06
-0.00756129
1.00745e-05
-0.00812259
1.09125e-05
-0.00868379
1.15755e-05
-0.00924565
1.20009e-05
-0.00980723
1.2166e-05
-0.0103699
1.19644e-05
-0.0109318
1.14229e-05
-0.0114955
1.03518e-05
-0.0120575
8.87447e-06
-0.0126227
6.64968e-06
-0.0131852
3.93304e-06
-0.000279881
-0.000839672
8.02057e-08
-0.00139946
3.19935e-07
-0.00195937
7.1419e-07
-0.00251921
1.25642e-06
-0.00307927
1.93376e-06
-0.0036392
2.7355e-06
-0.00419939
3.63906e-06
-0.00475954
4.62869e-06
-0.00531982
5.6707e-06
-0.00588027
6.74504e-06
-0.00644071
7.80959e-06
-0.00700147
8.83852e-06
-0.00756213
9.78427e-06
-0.00812325
1.06053e-05
-0.00868421
1.12552e-05
-0.00924582
1.1672e-05
-0.00980702
1.18321e-05
-0.0103693
1.16304e-05
-0.0109307
1.10925e-05
-0.011494
1.00372e-05
-0.0120553
8.59147e-06
-0.01262
6.42138e-06
-0.0131812
3.82255e-06
-0.000279961
-0.000839911
7.74677e-08
-0.00139986
3.09006e-07
-0.00195991
6.89778e-07
-0.00251989
1.21351e-06
-0.00308007
1.86781e-06
-0.00364011
2.64257e-06
-0.00420038
3.51596e-06
-0.00476058
4.47314e-06
-0.0053209
5.48138e-06
-0.00588134
6.52218e-06
-0.00644173
7.55491e-06
-0.00700241
8.55547e-06
-0.00756295
9.47774e-06
-0.0081239
1.02814e-05
-0.00868462
1.09207e-05
-0.00924597
1.13336e-05
-0.00980681
1.14966e-05
-0.0103688
1.13027e-05
-0.0109296
1.07748e-05
-0.0114925
9.73569e-06
-0.0120531
8.31188e-06
-0.0126174
6.18775e-06
-0.0131774
3.67906e-06
-0.000280039
-0.000840142
7.47392e-08
-0.00140024
2.98104e-07
-0.00196044
6.65392e-07
-0.00252054
1.17056e-06
-0.00308084
1.80162e-06
-0.00364098
2.54899e-06
-0.00420134
3.39148e-06
-0.00476159
4.31505e-06
-0.00532194
5.28784e-06
-0.00588237
6.2928e-06
-0.00644273
7.2908e-06
-0.00700333
8.25961e-06
-0.00756375
9.15479e-06
-0.00812454
9.93816e-06
-0.00868503
1.05657e-05
-0.00924614
1.09763e-05
-0.00980661
1.11484e-05
-0.0103683
1.09715e-05
-0.0109286
1.04674e-05
-0.0114911
9.45421e-06
-0.012051
8.05706e-06
-0.0126149
5.96921e-06
-0.0131737
3.49226e-06
-0.000280113
-0.000840365
7.20194e-08
-0.00140061
2.87231e-07
-0.00196094
6.41047e-07
-0.00252117
1.12762e-06
-0.00308159
1.73534e-06
-0.00364182
2.45507e-06
-0.00420226
3.26618e-06
-0.00476256
4.15532e-06
-0.00532294
5.09141e-06
-0.00588337
6.05868e-06
-0.0064437
7.01929e-06
-0.00700422
7.95268e-06
-0.00756453
8.81619e-06
-0.00812516
9.57401e-06
-0.00868544
1.01849e-05
-0.00924631
1.05896e-05
-0.00980643
1.07711e-05
-0.0103678
1.06154e-05
-0.0109276
1.01489e-05
-0.0114897
9.17827e-06
-0.0120489
7.83419e-06
-0.0126124
5.78741e-06
-0.0131702
3.31789e-06
-0.000280185
-0.00084058
6.92855e-08
-0.00140096
2.763e-07
-0.00196143
6.16558e-07
-0.00252178
1.08439e-06
-0.00308231
1.66853e-06
-0.00364263
2.36027e-06
-0.00420315
3.13947e-06
-0.0047635
3.99341e-06
-0.00532391
4.89179e-06
-0.00588433
5.81986e-06
-0.00644463
6.7409e-06
-0.00700508
7.63561e-06
-0.00756529
8.46298e-06
-0.00812577
9.18929e-06
-0.00868585
9.77668e-06
-0.00924649
1.01676e-05
-0.00980628
1.03514e-05
-0.0103673
1.02112e-05
-0.0109266
9.78572e-06
-0.0114883
8.8655e-06
-0.0120468
7.60679e-06
-0.0126099
5.64015e-06
-0.0131669
3.29223e-06
-0.000280254
-0.000840787
6.6487e-08
-0.0014013
2.65113e-07
-0.0019619
5.9149e-07
-0.00252236
1.04011e-06
-0.003083
1.60005e-06
-0.0036434
2.26298e-06
-0.004204
3.0093e-06
-0.00476439
3.82685e-06
-0.00532483
4.68621e-06
-0.00588525
5.57339e-06
-0.00644552
6.45285e-06
-0.0070059
7.30597e-06
-0.00756601
8.09346e-06
-0.00812635
8.78285e-06
-0.00868623
9.33962e-06
-0.00924667
9.70747e-06
-0.00980614
9.88222e-06
-0.0103669
9.74443e-06
-0.0109257
9.35013e-06
-0.0114871
8.47055e-06
-0.0120448
7.30193e-06
-0.0126075
5.42836e-06
-0.0131636
3.22572e-06
-0.000280321
-0.000840985
6.3554e-08
-0.00140163
2.53385e-07
-0.00196235
5.65202e-07
-0.00252292
9.93659e-07
-0.00308366
1.52816e-06
-0.00364415
2.16077e-06
-0.00420481
2.87239e-06
-0.00476525
3.65157e-06
-0.00532572
4.46961e-06
-0.00588612
5.31362e-06
-0.00644637
6.14856e-06
-0.00700668
6.95746e-06
-0.0075667
7.70088e-06
-0.0081269
8.34991e-06
-0.0086866
8.86847e-06
-0.00924684
9.20725e-06
-0.009806
9.35783e-06
-0.0103665
9.21146e-06
-0.0109248
8.82591e-06
-0.0114859
7.97496e-06
-0.0120429
6.87399e-06
-0.0126053
5.09602e-06
-0.0131604
3.04163e-06
-0.000280384
-0.000841174
6.07392e-08
-0.00140194
2.42119e-07
-0.00196277
5.39957e-07
-0.00252346
9.4908e-07
-0.00308429
1.45919e-06
-0.00364486
2.06281e-06
-0.00420559
2.74127e-06
-0.00476607
3.48406e-06
-0.00532656
4.26297e-06
-0.00588696
5.06666e-06
-0.00644718
5.85995e-06
-0.00700742
6.62865e-06
-0.00756735
7.33175e-06
-0.00812742
7.94604e-06
-0.00868693
8.42964e-06
-0.00924698
8.74515e-06
-0.00980585
8.87036e-06
-0.0103661
8.71791e-06
-0.010924
8.33077e-06
-0.0114848
7.5075e-06
-0.0120411
6.44969e-06
-0.0126033
4.75949e-06
-0.0131574
2.81374e-06
-0.000280444
-0.000841355
5.82499e-08
-0.00140223
2.3217e-07
-0.00196318
5.17692e-07
-0.00252397
9.09826e-07
-0.00308489
1.39859e-06
-0.00364554
1.97693e-06
-0.00420633
2.6268e-06
-0.00476685
3.3384e-06
-0.00532737
4.08457e-06
-0.00588775
4.8546e-06
-0.00644795
5.61475e-06
-0.00700812
6.35137e-06
-0.00756796
7.02613e-06
-0.0081279
7.61545e-06
-0.00868724
8.08022e-06
-0.0092471
8.38239e-06
-0.00980569
8.50285e-06
-0.0103657
8.35032e-06
-0.0109232
7.98299e-06
-0.0114838
7.1849e-06
-0.0120394
6.19019e-06
-0.0126013
4.56496e-06
-0.0131545
2.73627e-06
-0.000280502
-0.000841528
5.55528e-08
-0.00140252
2.21398e-07
-0.00196358
4.93599e-07
-0.00252445
8.67375e-07
-0.00308547
1.33306e-06
-0.00364618
1.88411e-06
-0.00420704
2.50313e-06
-0.00476759
3.18108e-06
-0.00532814
3.89194e-06
-0.00588851
4.62549e-06
-0.00644868
5.34961e-06
-0.00700879
6.0511e-06
-0.00756855
6.69532e-06
-0.00812836
7.2572e-06
-0.00868754
7.70186e-06
-0.00924722
7.9892e-06
-0.00980554
8.10703e-06
-0.0103653
7.95494e-06
-0.0109224
7.60883e-06
-0.0114828
6.83371e-06
-0.0120378
5.88979e-06
-0.0125995
4.32544e-06
-0.0131518
2.65549e-06
-0.000280558
-0.000841694
5.2619e-08
-0.00140279
2.09687e-07
-0.00196395
4.6743e-07
-0.00252492
8.21297e-07
-0.00308602
1.26197e-06
-0.0036468
1.7835e-06
-0.00420772
2.36925e-06
-0.0047683
3.01097e-06
-0.00532887
3.68383e-06
-0.00588923
4.378e-06
-0.00644939
5.063e-06
-0.00700943
5.7263e-06
-0.00756911
6.33738e-06
-0.00812881
6.86904e-06
-0.00868782
7.29113e-06
-0.00924733
7.56134e-06
-0.00980538
7.67828e-06
-0.010365
7.53022e-06
-0.0109216
7.21329e-06
-0.0114819
6.46869e-06
-0.0120362
5.56195e-06
-0.0125978
4.04531e-06
-0.0131491
2.45545e-06
-0.00028061
-0.00084185
4.94252e-08
-0.00140305
1.96949e-07
-0.0019643
4.38994e-07
-0.00252536
7.71266e-07
-0.00308654
1.18483e-06
-0.00364739
1.67443e-06
-0.00420836
2.22434e-06
-0.00476897
2.82716e-06
-0.00532956
3.45935e-06
-0.00588992
4.11116e-06
-0.00645005
4.75414e-06
-0.00701004
5.37609e-06
-0.00756963
5.95184e-06
-0.00812924
6.45021e-06
-0.00868809
6.84748e-06
-0.00924745
7.09654e-06
-0.00980522
7.2129e-06
-0.0103647
7.06927e-06
-0.0109208
6.79015e-06
-0.011481
6.09186e-06
-0.0120348
5.24278e-06
-0.0125962
4.10276e-06
-0.0131467
2.28736e-06
-0.000280659
-0.000841997
4.5952e-08
-0.00140329
1.8311e-07
-0.00196464
4.08131e-07
-0.00252577
7.16993e-07
-0.00308703
1.10121e-06
-0.00364794
1.55629e-06
-0.00420896
2.0676e-06
-0.0047696
2.62868e-06
-0.00533021
3.21737e-06
-0.00589056
3.82378e-06
-0.00645067
4.42187e-06
-0.00701061
4.99935e-06
-0.00757013
5.53773e-06
-0.00812964
6.00005e-06
-0.00868833
6.37126e-06
-0.00924756
6.59547e-06
-0.00980507
6.71221e-06
-0.0103644
6.56947e-06
-0.0109201
6.32343e-06
-0.0114801
5.67631e-06
-0.0120332
4.96226e-06
-0.0125948
3.6182e-06
-0.0131444
2.16537e-06
-0.000280705
-0.000842133
4.21903e-08
-0.00140351
1.68135e-07
-0.00196494
3.74751e-07
-0.00252616
6.58304e-07
-0.00308749
1.0108e-06
-0.00364845
1.42864e-06
-0.00420952
1.89837e-06
-0.00477019
2.41461e-06
-0.00533082
2.95681e-06
-0.00589116
3.51456e-06
-0.00645125
4.06502e-06
-0.00701114
4.5947e-06
-0.00757058
5.0937e-06
-0.00813002
5.51704e-06
-0.00868856
5.86201e-06
-0.00924767
6.05866e-06
-0.00980492
6.18192e-06
-0.0103642
6.03977e-06
-0.0109195
5.81159e-06
-0.0114794
5.18887e-06
-0.0120318
4.58994e-06
-0.0125934
3.30934e-06
-0.0131422
1.98634e-06
-0.000280747
-0.000842259
3.81477e-08
-0.00140372
1.52047e-07
-0.00196523
3.38871e-07
-0.00252651
5.95182e-07
-0.00308791
9.13563e-07
-0.00364891
1.29135e-06
-0.00421004
1.71638e-06
-0.00477073
2.18447e-06
-0.00533138
2.67688e-06
-0.00589171
3.18245e-06
-0.00645178
3.68269e-06
-0.00701163
4.16117e-06
-0.007571
4.61885e-06
-0.00813037
4.99975e-06
-0.00868876
5.3187e-06
-0.00924778
5.48378e-06
-0.00980478
5.62153e-06
-0.0103639
5.48433e-06
-0.0109189
5.28937e-06
-0.0114787
5.09962e-06
-0.0120305
4.05488e-06
-0.012592
3.0041e-06
-0.0131402
1.79236e-06
-0.000280784
-0.000842372
3.38466e-08
-0.00140391
1.34916e-07
-0.00196548
3.00609e-07
-0.00252683
5.27807e-07
-0.00308829
8.09698e-07
-0.00364934
1.14471e-06
-0.0042105
1.52193e-06
-0.00477122
1.93842e-06
-0.00533188
2.37746e-06
-0.00589221
2.82685e-06
-0.00645226
3.27457e-06
-0.00701208
3.69828e-06
-0.00757137
4.11358e-06
-0.0081307
4.44786e-06
-0.00868894
4.74335e-06
-0.00924791
4.87149e-06
-0.00980467
5.026e-06
-0.0103637
4.89357e-06
-0.0109183
4.80942e-06
-0.0114782
4.32699e-06
-0.0120295
3.66081e-06
-0.0125908
2.72622e-06
-0.0131384
1.61065e-06
-0.000280818
-0.000842472
2.92993e-08
-0.00140407
1.16807e-07
-0.00196571
2.60106e-07
-0.00252711
4.56444e-07
-0.00308862
6.99633e-07
-0.00364972
9.89401e-07
-0.00421091
1.31598e-06
-0.00477166
1.67751e-06
-0.00533233
2.05946e-06
-0.00589266
2.44814e-06
-0.00645268
2.84153e-06
-0.00701248
3.20592e-06
-0.0075717
3.58026e-06
-0.00813101
3.86159e-06
-0.00868907
4.14227e-06
-0.00924805
4.22875e-06
-0.00980456
4.40107e-06
-0.0103636
4.62769e-06
-0.0109177
4.11131e-06
-0.0114776
3.73718e-06
-0.0120285
3.19944e-06
-0.0125897
2.3912e-06
-0.0131368
1.41218e-06
-0.000280847
-0.000842559
2.44659e-08
-0.00140421
9.7721e-08
-0.00196591
2.17493e-07
-0.00252736
3.81492e-07
-0.00308891
5.84141e-07
-0.00365004
8.26567e-07
-0.00421127