/*--------------------------------*- C++ -*----------------------------------*\
  =========                 |
  \\      /  F ield         | OpenFOAM: The Open Source CFD Toolbox
   \\    /   O peration     | Website:  https://openfoam.org
    \\  /    A nd           | Version:  10
     \\/     M anipulation  |
\*---------------------------------------------------------------------------*/
FoamFile
{
    format      ascii;
    class       volScalarField;
    location    "0.2";
    object      rho;
}
// * * * * * * * * * * * * * * * * * * * * * * * * * * * * * * * * * * * * * //

dimensions      [1 -3 0 0 0 0 0];

internalField   nonuniform List<scalar> 
4176
(
0.0308498
0.0308528
0.0308591
0.0308694
0.0308826
0.0308989
0.0309199
0.0309412
0.0309705
0.0309967
0.0310335
0.0310659
0.031108
0.0311487
0.0311937
0.0312451
0.0312883
0.0313561
0.0313945
0.03148
0.0315121
0.031617
0.0316378
0.0317514
0.0308577
0.0308605
0.0308658
0.0308757
0.0308868
0.0309025
0.0309202
0.0309409
0.030966
0.0309909
0.031023
0.0310533
0.0310909
0.0311281
0.0311691
0.0312152
0.0312551
0.0313154
0.031351
0.0314275
0.031455
0.0315549
0.0315761
0.0317045
0.030877
0.0308799
0.0308855
0.0308956
0.0309073
0.0309233
0.030942
0.0309631
0.0309895
0.031015
0.0310487
0.0310797
0.0311192
0.0311573
0.0312006
0.0312478
0.0312901
0.031353
0.0313887
0.031469
0.0314967
0.0315953
0.0316147
0.0317352
0.0309057
0.0309085
0.0309139
0.0309238
0.0309351
0.0309507
0.0309689
0.0309893
0.0310152
0.0310397
0.0310729
0.0311025
0.0311417
0.031178
0.031221
0.0312664
0.0313084
0.0313713
0.0314024
0.031485
0.0315104
0.0316076
0.0316258
0.0317375
0.0309451
0.0309479
0.0309533
0.0309632
0.0309745
0.0309902
0.0310082
0.0310288
0.0310544
0.0310793
0.0311122
0.0311422
0.031181
0.0312175
0.0312606
0.0313054
0.0313493
0.0314091
0.0314439
0.0315244
0.0315515
0.0316482
0.0316678
0.0317812
0.0309945
0.0309973
0.0310026
0.0310125
0.0310235
0.0310391
0.0310567
0.0310772
0.0311023
0.031127
0.0311592
0.031189
0.0312272
0.0312632
0.0313059
0.0313497
0.031394
0.0314508
0.031489
0.0315655
0.0315936
0.031689
0.0317095
0.0318244
0.0310544
0.0310572
0.0310624
0.0310722
0.0310831
0.0310986
0.0311161
0.0311364
0.0311612
0.0311857
0.0312176
0.0312471
0.0312851
0.0313206
0.0313632
0.0314062
0.0314508
0.031506
0.0315451
0.0316196
0.0316489
0.0317428
0.0317636
0.0318765
0.0311245
0.0311273
0.0311324
0.0311422
0.0311529
0.0311682
0.0311854
0.0312055
0.03123
0.0312542
0.0312858
0.0313148
0.0313524
0.0313874
0.0314296
0.0314718
0.0315164
0.0315697
0.03161
0.0316819
0.0317122
0.0318046
0.0318258
0.0319375
0.0312049
0.0312077
0.0312128
0.0312225
0.031233
0.0312483
0.0312652
0.0312851
0.0313092
0.0313332
0.0313643
0.031393
0.0314301
0.0314645
0.0315065
0.0315478
0.0315924
0.031644
0.0316852
0.0317546
0.0317859
0.0318764
0.031898
0.0320079
0.0312957
0.0312985
0.0313035
0.0313131
0.0313235
0.0313386
0.0313552
0.0313749
0.0313987
0.0314223
0.031453
0.0314813
0.0315179
0.0315517
0.0315933
0.0316337
0.0316781
0.0317281
0.0317699
0.031837
0.031869
0.0319576
0.0319795
0.0320876
0.031397
0.0313997
0.0314047
0.0314141
0.0314243
0.0314393
0.0314556
0.0314751
0.0314985
0.0315218
0.0315521
0.0315798
0.031616
0.0316491
0.0316903
0.0317297
0.0317739
0.0318224
0.0318648
0.0319294
0.0319626
0.0320481
0.0320707
0.0321769
0.0315087
0.0315114
0.0315163
0.0315256
0.0315356
0.0315504
0.0315665
0.0315856
0.0316087
0.0316315
0.0316614
0.0316886
0.0317243
0.0317567
0.0317974
0.0318359
0.0318798
0.0319268
0.0319695
0.0320318
0.0320656
0.0321485
0.0321715
0.0322756
0.0316309
0.0316337
0.0316384
0.0316477
0.0316574
0.031672
0.0316878
0.0317066
0.0317293
0.0317517
0.0317811
0.0318078
0.031843
0.0318746
0.0319147
0.0319523
0.0319957
0.0320413
0.0320843
0.0321442
0.0321784
0.0322592
0.032282
0.0323839
0.0317638
0.0317665
0.0317711
0.0317803
0.0317898
0.0318042
0.0318196
0.0318382
0.0318604
0.0318824
0.0319112
0.0319374
0.031972
0.0320028
0.0320424
0.0320789
0.0321219
0.032166
0.032209
0.0322666
0.0323014
0.0323794
0.0324023
0.0325019
0.0319074
0.0319101
0.0319146
0.0319236
0.0319329
0.031947
0.0319621
0.0319803
0.032002
0.0320236
0.0320519
0.0320774
0.0321114
0.0321414
0.0321804
0.0322158
0.0322583
0.0323009
0.0323439
0.0323991
0.0324343
0.0325097
0.0325326
0.0326297
0.0320618
0.0320644
0.0320688
0.0320777
0.0320868
0.0321006
0.0321153
0.0321331
0.0321543
0.0321754
0.0322031
0.0322279
0.0322613
0.0322905
0.0323287
0.0323631
0.032405
0.0324461
0.0324889
0.0325417
0.0325772
0.0326498
0.0326731
0.0327674
0.032227
0.0322297
0.0322339
0.0322426
0.0322515
0.032265
0.0322793
0.0322967
0.0323174
0.0323379
0.0323649
0.0323891
0.0324217
0.0324501
0.0324876
0.0325209
0.0325621
0.0326017
0.0326441
0.0326945
0.0327305
0.0328
0.0328237
0.0329151
0.0324033
0.0324059
0.03241
0.0324186
0.0324271
0.0324404
0.0324542
0.0324712
0.0324913
0.0325112
0.0325376
0.032561
0.0325928
0.0326202
0.0326569
0.0326891
0.0327296
0.0327676
0.0328096
0.0328576
0.0328938
0.0329605
0.0329844
0.0330728
0.0325906
0.0325932
0.0325972
0.0326056
0.0326138
0.0326267
0.0326401
0.0326566
0.0326762
0.0326954
0.0327211
0.0327437
0.0327747
0.0328011
0.0328369
0.0328679
0.0329076
0.0329441
0.0329856
0.0330311
0.0330676
0.0331311
0.0331554
0.0332407
0.0327891
0.0327917
0.0327955
0.0328037
0.0328116
0.0328242
0.0328372
0.0328532
0.0328721
0.0328906
0.0329156
0.0329373
0.0329675
0.0329928
0.0330277
0.0330574
0.0330962
0.0331311
0.0331719
0.0332151
0.0332516
0.0333122
0.0333367
0.0334187
0.032999
0.0330015
0.0330052
0.0330132
0.0330207
0.033033
0.0330454
0.0330608
0.0330791
0.033097
0.0331211
0.0331419
0.0331712
0.0331955
0.0332293
0.0332578
0.0332955
0.0333288
0.0333689
0.0334097
0.0334463
0.0335036
0.0335284
0.0336072
0.0332203
0.0332227
0.0332262
0.033234
0.0332412
0.033253
0.0332649
0.0332798
0.0332973
0.0333145
0.0333378
0.0333577
0.033386
0.0334092
0.033442
0.033469
0.0335057
0.0335373
0.0335765
0.0336151
0.0336514
0.0337056
0.0337306
0.0338059
0.033453
0.0334555
0.0334588
0.0334663
0.0334731
0.0334845
0.0334958
0.0335101
0.0335269
0.0335433
0.0335657
0.0335847
0.033612
0.033634
0.0336657
0.0336914
0.0337269
0.0337567
0.033795
0.0338313
0.0338673
0.0339182
0.0339434
0.0340151
0.0336974
0.0336998
0.0337029
0.0337102
0.0337166
0.0337276
0.0337383
0.033752
0.033768
0.0337836
0.033805
0.033823
0.0338493
0.0338701
0.0339006
0.0339249
0.0339593
0.0339873
0.0340245
0.0340584
0.0340941
0.0341417
0.0341669
0.0342347
0.0339535
0.0339558
0.0339587
0.0339658
0.0339717
0.0339823
0.0339924
0.0340054
0.0340206
0.0340353
0.0340559
0.0340728
0.034098
0.0341175
0.0341469
0.0341697
0.0342028
0.034229
0.0342651
0.0342967
0.0343319
0.0343761
0.0344013
0.0344652
0.0342213
0.0342236
0.0342263
0.0342331
0.0342386
0.0342487
0.0342582
0.0342705
0.0342849
0.0342988
0.0343183
0.0343341
0.0343582
0.0343764
0.0344046
0.0344258
0.0344578
0.0344821
0.034517
0.0345463
0.0345808
0.0346216
0.0346467
0.0347066
0.034501
0.0345032
0.0345057
0.0345122
0.0345174
0.034527
0.0345358
0.0345475
0.034561
0.034574
0.0345925
0.0346072
0.0346301
0.0346469
0.0346739
0.0346935
0.0347241
0.0347466
0.0347803
0.0348072
0.0348409
0.0348783
0.0349033
0.0349595
0.0347926
0.0347948
0.0347971
0.0348033
0.034808
0.0348172
0.0348253
0.0348363
0.034849
0.034861
0.0348785
0.034892
0.0349137
0.0349292
0.0349548
0.0349728
0.0350021
0.0350227
0.0350551
0.0350796
0.0351124
0.0351463
0.0351712
0.0352234
0.0350962
0.0350984
0.0351005
0.0351065
0.0351107
0.0351194
0.0351269
0.0351372
0.035149
0.0351601
0.0351765
0.0351888
0.0352093
0.0352234
0.0352476
0.035264
0.0352918
0.0353104
0.0353415
0.0353637
0.0353954
0.0354257
0.03545
0.0354991
0.035412
0.0354141
0.035416
0.0354217
0.0354255
0.0354337
0.0354405
0.0354501
0.035461
0.0354712
0.0354865
0.0354977
0.0355169
0.0355295
0.0355524
0.035567
0.0355934
0.03561
0.0356396
0.0356595
0.0356901
0.0357169
0.0357412
0.0357857
0.03574
0.035742
0.0357437
0.0357491
0.0357525
0.0357602
0.0357663
0.0357752
0.0357852
0.0357944
0.0358087
0.0358187
0.0358367
0.0358479
0.0358694
0.0358822
0.0359071
0.0359217
0.0359498
0.0359672
0.0359966
0.03602
0.0360445
0.0360837
0.0360803
0.0360822
0.0360837
0.0360889
0.0360917
0.0360989
0.0361044
0.0361126
0.0361217
0.03613
0.0361432
0.036152
0.0361687
0.0361784
0.0361986
0.0362096
0.036233
0.0362455
0.036272
0.036287
0.0363151
0.0363353
0.0363592
0.0363942
0.0364329
0.0364348
0.0364361
0.036441
0.0364434
0.0364501
0.0364548
0.0364623
0.0364705
0.0364779
0.03649
0.0364976
0.0365131
0.0365214
0.0365401
0.0365493
0.0365713
0.0365816
0.0366066
0.036619
0.0366457
0.0366627
0.0366863
0.0367168
0.0367981
0.0367999
0.0368009
0.0368056
0.0368075
0.0368138
0.0368178
0.0368245
0.0368319
0.0368383
0.0368493
0.0368557
0.0368699
0.0368767
0.0368941
0.0369016
0.0369221
0.0369302
0.0369538
0.0369635
0.0369888
0.0370024
0.0370258
0.0370513
0.0371757
0.0371776
0.0371784
0.0371827
0.0371842
0.03719
0.0371933
0.0371994
0.0372058
0.0372112
0.0372212
0.0372264
0.0372394
0.0372447
0.0372607
0.0372664
0.0372855
0.0372915
0.0373135
0.0373207
0.0373444
0.0373548
0.0373774
0.0373985
0.0375661
0.0375678
0.0375684
0.0375726
0.0375736
0.0375789
0.0375816
0.0375869
0.0375925
0.0375969
0.0376058
0.0376097
0.0376215
0.0376253
0.03764
0.0376438
0.0376615
0.0376653
0.0376859
0.0376905
0.0377129
0.03772
0.0377417
0.0377579
0.0379691
0.0379709
0.0379713
0.0379752
0.0379758
0.0379806
0.0379826
0.0379873
0.0379919
0.0379954
0.0380032
0.038006
0.0380164
0.0380188
0.038032
0.0380341
0.0380503
0.038052
0.0380711
0.0380732
0.0380941
0.0380982
0.0381185
0.0381302
0.0383851
0.0383868
0.038387
0.0383906
0.0383908
0.0383952
0.0383965
0.0384005
0.0384043
0.0384069
0.0384136
0.0384151
0.0384244
0.0384252
0.038437
0.0384372
0.038452
0.0384515
0.0384692
0.0384687
0.0384882
0.0384891
0.0385085
0.0385152
0.038814
0.0388157
0.0388157
0.0388191
0.0388188
0.0388227
0.0388234
0.0388268
0.0388297
0.0388314
0.038837
0.0388374
0.0388454
0.0388447
0.0388551
0.0388535
0.0388668
0.038864
0.0388802
0.0388771
0.0388952
0.038893
0.0389115
0.0389135
0.039256
0.0392576
0.0392574
0.0392606
0.0392599
0.0392634
0.0392635
0.0392661
0.0392682
0.039269
0.0392735
0.0392728
0.0392795
0.0392774
0.0392865
0.039283
0.0392948
0.0392897
0.0393044
0.0392986
0.0393153
0.0393099
0.0393273
0.0393252
0.0397113
0.0397129
0.0397125
0.0397154
0.0397143
0.0397173
0.0397167
0.0397187
0.0397199
0.0397198
0.0397233
0.0397214
0.0397269
0.0397234
0.0397311
0.0397258
0.0397361
0.0397288
0.039742
0.0397334
0.0397487
0.0397399
0.0397561
0.0397503
0.0401799
0.0401815
0.0401809
0.0401836
0.040182
0.0401846
0.0401833
0.0401847
0.040185
0.0401839
0.0401864
0.0401833
0.0401877
0.0401827
0.040189
0.0401819
0.0401909
0.0401813
0.0401932
0.0401816
0.0401956
0.0401832
0.0401984
0.0401883
0.040662
0.0406635
0.0406627
0.0406652
0.0406631
0.0406654
0.0406634
0.0406641
0.0406635
0.0406615
0.040663
0.0406587
0.0406618
0.0406554
0.0406604
0.0406515
0.0406592
0.0406473
0.0406578
0.0406434
0.0406563
0.0406402
0.0406545
0.0406396
0.0411577
0.0411592
0.0411582
0.0411604
0.0411579
0.0411597
0.041157
0.041157
0.0411556
0.0411527
0.0411531
0.0411476
0.0411495
0.0411417
0.0411453
0.0411346
0.0411409
0.0411267
0.0411361
0.0411187
0.0411307
0.0411108
0.0411245
0.0411049
0.0416671
0.0416685
0.0416673
0.0416693
0.0416663
0.0416677
0.0416643
0.0416637
0.0416613
0.0416575
0.0416568
0.0416502
0.0416508
0.0416415
0.0416438
0.0416312
0.0416362
0.0416198
0.0416279
0.0416076
0.0416187
0.0415952
0.0416082
0.0415842
0.0421902
0.0421916
0.0421902
0.042192
0.0421885
0.0421894
0.0421854
0.042184
0.0421808
0.0421761
0.0421743
0.0421665
0.0421659
0.0421551
0.042156
0.0421416
0.0421452
0.0421264
0.0421334
0.04211
0.0421206
0.042093
0.0421058
0.0420768
0.0427271
0.0427285
0.0427269
0.0427284
0.0427245
0.0427249
0.0427202
0.0427182
0.0427141
0.0427084
0.0427056
0.0426965
0.0426947
0.0426824
0.042682
0.0426657
0.042668
0.0426468
0.0426527
0.0426261
0.0426361
0.0426047
0.0426174
0.0425832
0.0432779
0.0432793
0.0432774
0.0432787
0.0432743
0.0432743
0.0432689
0.0432662
0.0432612
0.0432546
0.0432506
0.0432404
0.0432374
0.0432235
0.0432219
0.0432036
0.0432046
0.043181
0.0431859
0.0431561
0.0431655
0.04313
0.0431427
0.0431036
0.0438425
0.0438439
0.0438418
0.0438428
0.043838
0.0438376
0.0438314
0.043828
0.0438221
0.0438146
0.0438096
0.0437982
0.0437939
0.0437785
0.0437757
0.0437554
0.0437552
0.043729
0.0437332
0.0437001
0.0437088
0.0436686
0.0436825
0.0436379
0.044421
0.0444223
0.04442
0.0444208
0.0444155
0.0444146
0.0444078
0.0444037
0.0443969
0.0443885
0.0443824
0.0443698
0.0443644
0.0443474
0.0443435
0.0443211
0.0443198
0.0442909
0.0442944
0.044258
0.0442665
0.0442214
0.0442357
0.0441863
0.0450132
0.0450144
0.0450119
0.0450125
0.0450068
0.0450055
0.0449979
0.0449932
0.0449856
0.0449762
0.0449691
0.0449552
0.0449487
0.0449301
0.0449252
0.0449006
0.0448985
0.0448668
0.0448696
0.0448298
0.0448383
0.0447887
0.0448027
0.0447488
0.045619
0.0456202
0.0456176
0.045618
0.0456117
0.04561
0.0456018
0.0455965
0.045588
0.0455777
0.0455697
0.0455545
0.045547
0.0455267
0.0455208
0.045494
0.0454912
0.0454567
0.045459
0.0454147
0.0454244
0.0453703
0.0453839
0.0453257
0.0462384
0.0462396
0.0462368
0.046237
0.0462303
0.0462282
0.0462193
0.0462134
0.0462041
0.0461928
0.046184
0.0461675
0.0461591
0.046137
0.0461305
0.0461011
0.0460982
0.0460604
0.0460628
0.0460142
0.0460239
0.0459663
0.0459793
0.0459167
0.0468713
0.0468724
0.0468694
0.0468694
0.0468623
0.0468599
0.0468504
0.0468438
0.0468338
0.0468215
0.046812
0.046794
0.0467851
0.046761
0.0467542
0.0467218
0.0467194
0.046677
0.0466809
0.0466288
0.046637
0.0465765
0.0465887
0.0465221
0.0475173
0.0475185
0.0475153
0.0475151
0.0475076
0.0475048
0.0474947
0.0474876
0.0474769
0.0474637
0.0474536
0.047434
0.0474249
0.0473984
0.0473918
0.047356
0.0473546
0.0473087
0.0473117
0.0472571
0.0472645
0.0472008
0.0472125
0.0471418
0.0481764
0.0481776
0.0481742
0.0481739
0.0481659
0.048163
0.0481523
0.0481446
0.0481334
0.0481189
0.0481088
0.0480872
0.0480786
0.0480492
0.0480432
0.0480046
0.0480022
0.0479551
0.0479562
0.0478997
0.0479059
0.0478395
0.0478502
0.0477758
0.0488482
0.0488496
0.0488459
0.0488456
0.0488372
0.048834
0.0488228
0.0488145
0.0488031
0.0487872
0.0487775
0.0487534
0.0487455
0.0487135
0.0487074
0.0486673
0.0486635
0.0486146
0.048615
0.0485562
0.0485611
0.0484921
0.0485022
0.0484241
0.0495328
0.0495342
0.0495301
0.0495301
0.0495211
0.0495179
0.049506
0.0494971
0.0494858
0.0494684
0.0494587
0.0494335
0.0494246
0.0493919
0.0493846
0.0493432
0.0493385
0.0492881
0.0492871
0.0492264
0.0492305
0.0491588
0.049168
0.0490866
0.0502297
0.0502312
0.0502268
0.050227
0.0502173
0.0502144
0.0502018
0.0501927
0.0501807
0.0501629
0.0501524
0.0501266
0.0501169
0.0500834
0.0500749
0.0500327
0.0500266
0.0499751
0.0499727
0.0499106
0.0499133
0.0498393
0.049848
0.0497631
0.0509388
0.0509403
0.050936
0.0509358
0.0509261
0.0509229
0.0509096
0.0509012
0.0508878
0.05087
0.0508587
0.0508325
0.0508219
0.0507876
0.0507783
0.0507351
0.050728
0.0506751
0.050672
0.0506079
0.0506098
0.0505337
0.0505414
0.0504535
0.0516599
0.0516614
0.0516571
0.0516568
0.051647
0.0516436
0.0516299
0.0516217
0.0516068
0.0515901
0.0515771
0.0515509
0.0515395
0.0515047
0.0514944
0.0514504
0.0514425
0.0513886
0.051384
0.0513188
0.0513196
0.0512414
0.0512486
0.0511577
0.0523929
0.0523944
0.0523901
0.0523897
0.0523798
0.0523763
0.0523623
0.0523541
0.0523383
0.0523221
0.0523076
0.0522819
0.0522693
0.0522342
0.0522229
0.0521786
0.0521695
0.0521144
0.0521093
0.0520425
0.0520424
0.0519624
0.0519688
0.0518753
0.0531376
0.0531391
0.0531348
0.0531344
0.0531244
0.0531209
0.0531066
0.0530983
0.0530818
0.053066
0.0530503
0.0530252
0.0530107
0.0529762
0.0529638
0.052919
0.0529091
0.0528532
0.0528468
0.0527789
0.052778
0.0526963
0.0527021
0.0526061
0.0538939
0.0538955
0.0538912
0.0538908
0.0538807
0.0538771
0.0538626
0.0538543
0.0538373
0.0538217
0.0538049
0.0537802
0.0537649
0.05373
0.0537164
0.0536716
0.0536605
0.0536039
0.0535969
0.0535277
0.0535259
0.0534428
0.0534479
0.0533497
0.054662
0.0546636
0.0546592
0.0546589
0.0546486
0.0546451
0.0546303
0.0546219
0.0546045
0.054589
0.0545714
0.0545469
0.0545305
0.0544955
0.054481
0.0544357
0.0544239
0.0543667
0.0543586
0.0542884
0.0542859
0.0542014
0.0542058
0.0541056
0.0554417
0.0554434
0.0554389
0.0554387
0.0554282
0.0554247
0.0554095
0.0554011
0.0553832
0.0553679
0.0553493
0.0553249
0.0553074
0.0552726
0.0552572
0.0552112
0.0551986
0.0551408
0.055132
0.0550608
0.0550574
0.0549718
0.0549755
0.0548736
0.0562331
0.0562349
0.0562303
0.0562302
0.0562194
0.0562158
0.0562003
0.0561918
0.0561733
0.056158
0.0561385
0.0561141
0.0560957
0.0560605
0.0560446
0.0559976
0.0559844
0.0559261
0.0559163
0.0558444
0.0558402
0.0557534
0.0557566
0.0556531
0.0570362
0.0570381
0.0570333
0.0570332
0.057022
0.0570183
0.0570024
0.0569936
0.0569746
0.0569591
0.0569385
0.0569143
0.0568947
0.0568593
0.0568426
0.0567948
0.056781
0.0567221
0.0567114
0.0566388
0.0566336
0.0565461
0.0565486
0.0564438
0.0578507
0.0578527
0.0578477
0.0578474
0.0578359
0.0578319
0.0578155
0.0578064
0.0577867
0.0577708
0.057749
0.057725
0.0577038
0.0576687
0.057651
0.0576022
0.0575881
0.0575283
0.0575166
0.0574438
0.0574377
0.0573494
0.0573512
0.0572454
0.058676
0.058678
0.0586728
0.0586724
0.0586605
0.0586561
0.0586391
0.0586294
0.058609
0.0585926
0.0585698
0.0585458
0.0585231
0.0584881
0.0584688
0.0584202
0.0584052
0.0583444
0.0583319
0.0582591
0.0582518
0.0581631
0.0581643
0.0580576
0.0595112
0.0595132
0.0595078
0.059507
0.0594948
0.05949
0.0594724
0.0594622
0.0594411
0.0594241
0.0594003
0.0593763
0.0593516
0.0593175
0.0592954
0.0592485
0.0592319
0.0591701
0.0591572
0.0590843
0.0590763
0.0589871
0.0589876
0.0588804
0.0603545
0.0603565
0.0603511
0.06035
0.0603376
0.0603323
0.0603144
0.0603036
0.0602819
0.0602644
0.0602399
0.0602157
0.0601895
0.060156
0.0601319
0.0600859
0.0600677
0.0600059
0.0599925
0.0599195
0.0599104
0.0598214
0.0598214
0.0597136
0.061204
0.061206
0.0612006
0.0611995
0.061187
0.0611816
0.0611635
0.0611525
0.0611306
0.0611128
0.0610878
0.0610637
0.0610362
0.0610037
0.0609775
0.0609329
0.0609116
0.0608528
0.0608376
0.0607641
0.0607549
0.060666
0.0606655
0.0605578
0.0620573
0.0620594
0.0620543
0.0620533
0.0620411
0.062036
0.0620181
0.0620074
0.0619858
0.0619683
0.0619433
0.0619195
0.0618917
0.0618599
0.0618323
0.0617893
0.0617658
0.0617092
0.0616925
0.061619
0.0616095
0.0615213
0.0615205
0.0614128
0.0629127
0.0629149
0.0629102
0.0629097
0.0628981
0.0628937
0.0628767
0.0628669
0.0628461
0.0628296
0.0628054
0.0627825
0.0627551
0.0627247
0.0626964
0.0626554
0.0626306
0.0625751
0.0625578
0.0624846
0.0624753
0.0623872
0.0623864
0.0622792
0.0637692
0.0637717
0.0637675
0.0637678
0.0637571
0.063754
0.0637382
0.06373
0.0637107
0.0636958
0.0636732
0.0636521
0.063626
0.0635973
0.0635698
0.0635308
0.0635052
0.0634525
0.0634325
0.0633627
0.0633522
0.0632643
0.0632637
0.0631568
0.0646278
0.0646305
0.0646269
0.0646282
0.0646186
0.064617
0.0646029
0.0645965
0.0645792
0.0645666
0.0645461
0.0645275
0.0645034
0.0644773
0.0644512
0.0644153
0.06439
0.0643401
0.06432
0.0642522
0.0642414
0.0641533
0.0641527
0.0640459
0.0654916
0.0654947
0.0654916
0.0654939
0.0654853
0.0654852
0.0654726
0.0654682
0.0654529
0.0654426
0.0654245
0.0654086
0.065387
0.0653638
0.0653405
0.0653072
0.0652844
0.0652372
0.0652192
0.0651526
0.0651431
0.0650552
0.0650549
0.0649469
0.0663663
0.0663699
0.0663669
0.0663702
0.066362
0.0663633
0.0663514
0.0663488
0.0663348
0.0663266
0.0663102
0.0662969
0.0662773
0.0662569
0.0662368
0.0662055
0.066187
0.0661409
0.0661278
0.0660624
0.066057
0.06597
0.0659708
0.0658624
0.0672597
0.0672641
0.0672602
0.0672649
0.0672553
0.0672585
0.0672451
0.0672447
0.0672294
0.0672236
0.0672069
0.0671955
0.0671768
0.0671579
0.0671419
0.0671078
0.0670994
0.0670474
0.067045
0.066977
0.0669786
0.0668941
0.0668986
0.0667956
0.0681811
0.068185
0.0681819
0.0681847
0.0681762
0.0681766
0.0681645
0.068161
0.0681467
0.0681383
0.068122
0.0681094
0.0680901
0.068073
0.0680543
0.068023
0.0680144
0.0679647
0.0679634
0.0678972
0.0679027
0.0678199
0.0678291
0.067734
0.0691388
0.0691424
0.0691387
0.0691405
0.0691305
0.0691293
0.0691149
0.0691093
0.0690923
0.0690811
0.0690621
0.0690467
0.0690247
0.0690057
0.0689823
0.0689545
0.0689379
0.0688928
0.0688878
0.0688223
0.0688293
0.068745
0.0687577
0.0686628
0.0701392
0.0701426
0.070138
0.0701385
0.0701265
0.0701229
0.0701055
0.0700964
0.0700755
0.07006
0.0700364
0.0700161
0.069989
0.0699652
0.0699359
0.069905
0.0698812
0.0698351
0.0698257
0.0697561
0.0697635
0.0696741
0.069689
0.0695901
0.0711858
0.0711894
0.0711833
0.0711829
0.0711683
0.0711625
0.0711413
0.0711287
0.0711028
0.0710828
0.0710528
0.0710268
0.0709923
0.0709617
0.0709242
0.0708861
0.0708544
0.0708004
0.0707849
0.0707068
0.0707113
0.0706133
0.070629
0.0705217
0.0722786
0.0722826
0.0722749
0.072274
0.0722568
0.0722493
0.0722241
0.0722092
0.0721772
0.0721544
0.072116
0.0720863
0.072042
0.0720047
0.0719577
0.0719098
0.0718697
0.0718008
0.0717782
0.0716861
0.0716835
0.071572
0.0715851
0.0714642
0.0734142
0.0734177
0.0734105
0.0734073
0.07339
0.0733794
0.0733534
0.0733337
0.0733009
0.073271
0.0732314
0.0731927
0.0731449
0.0730989
0.0730432
0.0729893
0.0729314
0.0728579
0.0728174
0.0727128
0.0726953
0.0725654
0.0725703
0.0724273
0.0745861
0.0745894
0.0745821
0.0745783
0.0745602
0.0745486
0.0745212
0.0745
0.074465
0.0744328
0.0743901
0.0743481
0.0742962
0.0742452
0.0741838
0.0741231
0.0740539
0.0739795
0.0739119
0.0738089
0.0737651
0.0736176
0.0736059
0.0734298
0.0757862
0.0757893
0.0757822
0.0757783
0.0757601
0.0757482
0.0757204
0.0756986
0.075663
0.0756299
0.0755862
0.0755427
0.0754893
0.0754362
0.0753724
0.0753085
0.0752353
0.0751572
0.0750783
0.0749777
0.0749041
0.0747598
0.0747209
0.0745072
0.0770058
0.077009
0.0770021
0.0769985
0.0769805
0.076969
0.0769415
0.0769203
0.076885
0.0768523
0.0768091
0.0767661
0.0767132
0.0766604
0.076597
0.0765335
0.0764606
0.0763823
0.0763037
0.0762041
0.0761247
0.0759885
0.075932
0.0757065
0.0782363
0.0782399
0.0782332
0.0782302
0.0782127
0.0782021
0.0781754
0.0781553
0.0781211
0.0780899
0.0780481
0.0780068
0.0779556
0.0779051
0.0778439
0.0777829
0.0777125
0.0776378
0.0775633
0.0774654
0.0773979
0.0772601
0.0772202
0.077022
0.0794698
0.0794736
0.0794673
0.0794651
0.0794483
0.0794389
0.0794133
0.0793949
0.0793622
0.079333
0.0792933
0.0792545
0.0792059
0.0791583
0.0791003
0.079043
0.0789765
0.078906
0.0788364
0.0787446
0.0786824
0.0785525
0.0785153
0.0783317
0.080699
0.0807033
0.0806973
0.080696
0.08068
0.080672
0.0806477
0.0806311
0.0806003
0.0805735
0.0805361
0.0805003
0.0804545
0.0804106
0.0803561
0.080303
0.0802406
0.0801758
0.0801104
0.0800253
0.0799676
0.0798476
0.0798127
0.0796429
0.0819181
0.0819228
0.0819171
0.0819169
0.0819015
0.0818952
0.0818721
0.0818578
0.0818286
0.0818047
0.0817694
0.0817373
0.0816942
0.0816544
0.0816034
0.0815549
0.0814969
0.0814376
0.0813768
0.0812982
0.0812458
0.0811353
0.0811026
0.0809466
0.0831221
0.0831271
0.0831213
0.0831227
0.0831075
0.0831035
0.0830809
0.0830697
0.0830413
0.0830214
0.0829872
0.08296
0.0829182
0.0828843
0.0828353
0.0827928
0.0827383
0.082685
0.0826298
0.082556
0.0825088
0.0824081
0.0823776
0.0822353
0.0843066
0.0843118
0.0843062
0.0843088
0.084294
0.0842921
0.0842702
0.0842619
0.0842344
0.0842186
0.0841852
0.0841633
0.0841223
0.0840949
0.0840468
0.084012
0.0839593
0.0839126
0.0838615
0.0837953
0.0837515
0.0836609
0.0836325
0.0835037
0.0854679
0.0854733
0.0854685
0.085471
0.0854585
0.0854563
0.0854377
0.0854294
0.0854061
0.0853904
0.085362
0.0853409
0.0853052
0.0852798
0.0852368
0.0852055
0.0851574
0.0851168
0.0850684
0.0850103
0.0849701
0.0848891
0.0848629
0.0847471
0.0866032
0.0866089
0.0866047
0.0866077
0.0865964
0.0865951
0.0865785
0.0865713
0.0865509
0.0865365
0.086512
0.0864922
0.0864616
0.0864376
0.0864006
0.0863714
0.086329
0.0862929
0.0862479
0.0861995
0.0861605
0.0860894
0.0860653
0.085962
0.0877107
0.0877162
0.0877127
0.0877161
0.0877059
0.0877056
0.0876906
0.0876849
0.0876668
0.0876542
0.0876328
0.0876151
0.0875884
0.0875669
0.0875343
0.0875085
0.0874706
0.0874391
0.0873987
0.0873573
0.0873212
0.0872586
0.0872368
0.0871456
0.0887882
0.0887936
0.0887904
0.0887944
0.088785
0.088786
0.0887722
0.0887681
0.0887521
0.0887414
0.0887227
0.0887074
0.088684
0.0886653
0.0886367
0.0886142
0.0885809
0.0885539
0.0885169
0.0884825
0.0884484
0.0883956
0.0883756
0.0882961
0.0898339
0.0898393
0.0898366
0.0898411
0.0898326
0.0898344
0.0898222
0.0898195
0.0898053
0.0897965
0.0897803
0.0897673
0.089747
0.0897311
0.089706
0.089687
0.0896576
0.0896347
0.0896028
0.0895731
0.0895418
0.0894985
0.0894792
0.0894113
0.090847
0.0908525
0.09085
0.0908552
0.0908471
0.0908504
0.0908388
0.0908379
0.0908253
0.0908185
0.0908044
0.0907937
0.0907762
0.090763
0.0907414
0.0907255
0.0907001
0.0906811
0.0906525
0.0906291
0.0906001
0.0905653
0.0905475
0.0904901
0.0918269
0.0918321
0.0918302
0.0918352
0.0918288
0.0918318
0.0918225
0.0918221
0.0918116
0.0918062
0.0917945
0.0917858
0.091771
0.0917603
0.0917418
0.091729
0.091707
0.0916917
0.0916676
0.0916475
0.0916232
0.0915952
0.0915792
0.0915312
0.0927726
0.0927781
0.0927756
0.0927826
0.0927746
0.092781
0.0927703
0.0927731
0.0927628
0.0927598
0.0927496
0.0927431
0.0927307
0.0927224
0.0927069
0.0926969
0.0926784
0.0926666
0.0926454
0.0926306
0.092609
0.0925877
0.0925734
0.0925341
0.0936842
0.0936891
0.0936884
0.0936929
0.0936896
0.093692
0.0936869
0.093687
0.0936808
0.0936776
0.0936702
0.0936651
0.0936552
0.0936491
0.0936363
0.0936289
0.0936136
0.0936047
0.0935876
0.0935761
0.0935587
0.0935423
0.0935291
0.0934987
0.0945614
0.094567
0.0945642
0.0945732
0.0945644
0.0945746
0.0945633
0.0945705
0.0945611
0.0945623
0.0945549
0.0945524
0.0945441
0.0945403
0.0945299
0.0945252
0.0945126
0.0945072
0.0944925
0.0944852
0.0944705
0.0944589
0.0944479
0.0944251
0.0954046
0.0954089
0.09541
0.0954125
0.0954138
0.0954133
0.0954141
0.0954126
0.0954116
0.0954093
0.0954062
0.0954039
0.0953983
0.0953961
0.0953881
0.0953856
0.0953757
0.0953726
0.0953613
0.0953571
0.0953455
0.0953381
0.0953292
0.0953135
0.0962137
0.0962193
0.0962161
0.096227
0.0962171
0.096231
0.0962186
0.0962302
0.0962209
0.0962262
0.0962206
0.0962219
0.096217
0.096217
0.096211
0.0962108
0.0962032
0.0962031
0.0961939
0.0961929
0.096184
0.0961802
0.096174
0.0961644
0.0969896
0.0969932
0.0969959
0.0969966
0.0970016
0.0969988
0.0970047
0.0970013
0.0970054
0.0970032
0.0970042
0.097004
0.0970021
0.0970031
0.0969993
0.097001
0.0969956
0.0969975
0.0969912
0.0969932
0.0969866
0.0969867
0.0969825
0.0969782
0.0977322
0.0977377
0.0977347
0.0977458
0.0977368
0.0977516
0.0977403
0.0977539
0.0977457
0.0977539
0.0977501
0.0977545
0.0977524
0.0977556
0.0977534
0.0977569
0.0977536
0.0977578
0.0977535
0.0977579
0.097754
0.0977573
0.0977551
0.0977557
0.0984431
0.0984461
0.0984495
0.0984499
0.098456
0.0984537
0.0984613
0.0984584
0.0984651
0.098464
0.0984678
0.0984696
0.0984707
0.0984744
0.0984741
0.0984792
0.0984776
0.0984837
0.0984814
0.0984886
0.0984862
0.0984927
0.0984922
0.0984973
0.0991218
0.0991266
0.0991251
0.0991341
0.0991289
0.0991406
0.0991341
0.0991457
0.0991412
0.0991499
0.0991487
0.099155
0.0991554
0.0991612
0.0991619
0.0991686
0.0991686
0.0991765
0.0991761
0.099185
0.0991847
0.099194
0.0991945
0.0992038
0.0997706
0.0997734
0.0997763
0.0997784
0.0997824
0.099784
0.0997892
0.0997902
0.099796
0.0997979
0.0998025
0.0998068
0.0998098
0.0998159
0.0998182
0.0998261
0.0998274
0.099837
0.0998377
0.0998492
0.0998498
0.0998619
0.0998637
0.0998763
0.100389
0.100393
0.100393
0.100399
0.100399
0.100405
0.100406
0.100412
0.100414
0.100421
0.100423
0.10043
0.100433
0.10044
0.100443
0.100453
0.100455
0.100466
0.100469
0.100481
0.100484
0.100498
0.1005
0.100516
0.100979
0.100982
0.100984
0.100988
0.100989
0.100995
0.100996
0.101003
0.101005
0.101012
0.101016
0.101023
0.101027
0.101035
0.101039
0.101049
0.101053
0.101065
0.101068
0.101083
0.101086
0.101102
0.101106
0.101124
0.10154
0.101543
0.101546
0.101548
0.101553
0.101555
0.101561
0.101563
0.10157
0.101574
0.10158
0.101587
0.101592
0.101601
0.101606
0.101617
0.101622
0.101635
0.101639
0.101655
0.101659
0.101677
0.101682
0.101702
0.102075
0.102078
0.10208
0.102084
0.102085
0.102093
0.102093
0.102102
0.102103
0.102113
0.102116
0.102125
0.10213
0.10214
0.102145
0.102157
0.102162
0.102177
0.102182
0.102199
0.102204
0.102223
0.102228
0.102251
0.102584
0.102587
0.10259
0.102591
0.102597
0.102598
0.102606
0.102608
0.102616
0.10262
0.102628
0.102635
0.102642
0.102652
0.102658
0.102671
0.102676
0.102691
0.102698
0.102716
0.102721
0.102742
0.102747
0.102772
0.103068
0.103071
0.103072
0.103077
0.103079
0.103085
0.103087
0.103096
0.103098
0.103107
0.103112
0.103121
0.103127
0.103138
0.103145
0.103158
0.103165
0.103181
0.103187
0.103206
0.103212
0.103235
0.10324
0.103266
0.103529
0.10353
0.103534
0.103535
0.10354
0.103543
0.10355
0.103554
0.103561
0.103567
0.103574
0.103582
0.10359
0.103601
0.103608
0.103622
0.103629
0.103645
0.103652
0.103672
0.103678
0.103702
0.103708
0.103735
0.103966
0.103968
0.103969
0.103974
0.103976
0.103982
0.103985
0.103992
0.103997
0.104005
0.104012
0.104021
0.104028
0.10404
0.104047
0.104061
0.104069
0.104086
0.104093
0.104114
0.104121
0.104145
0.104151
0.104181
0.104381
0.104383
0.104386
0.104387
0.104393
0.104395
0.104402
0.104407
0.104413
0.104421
0.104427
0.104437
0.104445
0.104457
0.104464
0.104479
0.104487
0.104504
0.104512
0.104533
0.10454
0.104566
0.104572
0.104602
0.104776
0.104778
0.104779
0.104784
0.104784
0.104793
0.104794
0.104803
0.104807
0.104816
0.104822
0.104832
0.10484
0.104852
0.10486
0.104875
0.104883
0.104901
0.104909
0.10493
0.104938
0.104964
0.10497
0.105002
0.10515
0.105151
0.105155
0.105155
0.105162
0.105163
0.105172
0.105175
0.105183
0.105189
0.105197
0.105207
0.105215
0.105227
0.105235
0.10525
0.105259
0.105277
0.105285
0.105307
0.105315
0.105342
0.105348
0.105381
0.105505
0.105508
0.105508
0.105514
0.105513
0.105523
0.105523
0.105533
0.105536
0.105546
0.105552
0.105563
0.10557
0.105583
0.105591
0.105606
0.105615
0.105634
0.105642
0.105664
0.105672
0.105699
0.105705
0.105738
0.105843
0.105844
0.105847
0.105848
0.105854
0.105855
0.105864
0.105866
0.105876
0.105881
0.10589
0.105899
0.105908
0.10592
0.105929
0.105944
0.105953
0.105971
0.10598
0.106003
0.10601
0.106038
0.106044