/*--------------------------------*- C++ -*----------------------------------*\
  =========                 |
  \\      /  F ield         | OpenFOAM: The Open Source CFD Toolbox
   \\    /   O peration     | Website:  https://openfoam.org
    \\  /    A nd           | Version:  10
     \\/     M anipulation  |
\*---------------------------------------------------------------------------*/
FoamFile
{
    format      ascii;
    class       volScalarField;
    location    "0.2";
    object      T;
}
// * * * * * * * * * * * * * * * * * * * * * * * * * * * * * * * * * * * * * //

dimensions      [0 0 0 1 0 0 0];

internalField   nonuniform List<scalar> 
4176
(
180.351
180.355
180.376
180.386
180.429
180.449
180.51
180.542
180.617
180.664
180.753
180.813
180.917
180.989
181.104
181.195
181.31
181.433
181.538
181.707
181.78
182.015
182.026
182.331
180.36
180.364
180.385
180.396
180.44
180.461
180.522
180.556
180.632
180.681
180.771
180.833
180.939
181.013
181.131
181.225
181.343
181.468
181.576
181.748
181.822
182.066
182.081
182.415
180.388
180.392
180.413
180.424
180.466
180.486
180.546
180.58
180.653
180.702
180.789
180.85
180.953
181.026
181.142
181.232
181.35
181.471
181.576
181.744
181.814
182.054
182.068
182.413
180.439
180.444
180.464
180.475
180.517
180.538
180.597
180.631
180.704
180.753
180.84
180.901
181.005
181.076
181.194
181.283
181.402
181.526
181.625
181.798
181.865
182.102
182.115
182.443
180.514
180.519
180.539
180.55
180.591
180.611
180.67
180.703
180.776
180.824
180.91
180.97
181.073
181.143
181.261
181.348
181.468
181.589
181.687
181.861
181.927
182.161
182.174
182.492
180.613
180.618
180.638
180.649
180.69
180.71
180.768
180.801
180.872
180.921
181.006
181.066
181.168
181.237
181.354
181.439
181.561
181.677
181.78
181.949
182.017
182.249
182.264
182.582
180.736
180.741
180.761
180.771
180.812
180.832
180.889
180.922
180.992
181.04
181.124
181.183
181.284
181.353
181.468
181.552
181.675
181.785
181.893
182.055
182.125
182.354
182.372
182.688
180.883
180.888
180.907
180.918
180.958
180.977
181.034
181.066
181.136
181.183
181.266
181.325
181.424
181.492
181.607
181.689
181.811
181.918
182.028
182.185
182.258
182.482
182.501
182.813
181.054
181.058
181.078
181.088
181.128
181.147
181.203
181.235
181.303
181.35
181.432
181.49
181.588
181.655
181.768
181.848
181.97
182.073
182.184
182.336
182.411
182.63
182.652
182.959
181.248
181.253
181.272
181.282
181.321
181.34
181.395
181.427
181.494
181.54
181.621
181.678
181.775
181.84
181.952
182.031
182.152
182.251
182.364
182.51
182.588
182.801
182.824
183.126
181.466
181.471
181.49
181.499
181.538
181.557
181.611
181.642
181.709
181.754
181.833
181.889
181.985
182.049
182.16
182.236
182.356
182.452
182.565
182.707
182.786
182.994
183.018
183.314
181.708
181.713
181.731
181.741
181.779
181.797
181.851
181.881
181.947
181.991
182.069
182.124
182.218
182.281
182.39
182.464
182.583
182.676
182.789
182.926
183.005
183.208
183.233
183.524
181.974
181.978
181.997
182.006
182.044
182.061
182.114
182.144
182.208
182.252
182.328
182.382
182.474
182.536
182.643
182.715
182.833
182.923
183.036
183.167
183.249
183.444
183.47
183.755
182.263
182.268
182.286
182.294
182.332
182.349
182.401
182.429
182.493
182.535
182.611
182.663
182.754
182.814
182.919
182.989
183.105
183.192
183.305
183.431
183.513
183.703
183.729
184.007
182.577
182.581
182.599
182.607
182.644
182.66
182.711
182.739
182.801
182.843
182.916
182.967
183.056
183.115
183.218
183.286
183.4
183.484
183.596
183.717
183.799
183.983
184.01
184.281
182.913
182.917
182.935
182.943
182.979
182.995
183.045
183.072
183.133
183.173
183.245
183.295
183.382
183.439
183.54
183.606
183.717
183.799
183.909
184.025
184.108
184.285
184.312
184.577
183.274
183.278
183.295
183.303
183.338
183.353
183.403
183.428
183.488
183.527
183.597
183.645
183.73
183.785
183.885
183.948
184.058
184.136
184.245
184.355
184.438
184.609
184.637
184.894
183.658
183.662
183.679
183.686
183.721
183.735
183.784
183.808
183.866
183.904
183.973
184.019
184.102
184.155
184.252
184.313
184.42
184.495
184.603
184.708
184.792
184.955
184.983
185.233
184.066
184.07
184.087
184.093
184.127
184.141
184.188
184.211
184.268
184.304
184.371
184.416
184.497
184.547
184.642
184.7
184.805
184.877
184.982
185.083
185.165
185.323
185.351
185.594
184.498
184.501
184.518
184.524
184.557
184.57
184.616
184.638
184.694
184.728
184.793
184.836
184.914
184.963
185.055
185.11
185.213
185.281
185.384
185.48
185.563
185.712
185.741
185.976
184.953
184.957
184.973
184.978
185.011
185.022
185.068
185.088
185.142
185.175
185.238
185.279
185.355
185.401
185.491
185.543
185.643
185.708
185.809
185.899
185.98
186.124
186.153
186.38
185.432
185.436
185.451
185.456
185.488
185.498
185.543
185.562
185.614
185.645
185.706
185.745
185.818
185.862
185.949
185.998
186.096
186.157
186.255
186.341
186.421
186.558
186.586
186.806
185.935
185.938
185.954
185.958
185.989
185.998
186.041
186.059
186.11
186.138
186.198
186.234
186.305
186.346
186.431
186.476
186.571
186.629
186.723
186.805
186.883
187.013
187.041
187.253
186.461
186.464
186.479
186.483
186.513
186.521
186.563
186.579
186.628
186.655
186.712
186.746
186.814
186.853
186.935
186.977
187.068
187.123
187.214
187.291
187.368
187.49
187.518
187.722
187.011
187.014
187.028
187.031
187.061
187.068
187.108
187.122
187.17
187.195
187.249
187.281
187.347
187.383
187.461
187.501
187.588
187.639
187.727
187.799
187.874
187.99
188.016
188.213
187.584
187.586
187.601
187.603
187.631
187.637
187.676
187.689
187.734
187.757
187.809
187.838
187.902
187.935
188.01
188.046
188.131
188.178
188.263
188.33
188.402
188.511
188.536
188.725
188.18
188.182
188.196
188.198
188.225
188.23
188.267
188.278
188.322
188.343
188.393
188.419
188.48
188.51
188.582
188.615
188.696
188.739
188.821
188.882
188.953
189.054
189.078
189.259
188.799
188.801
188.814
188.815
188.842
188.845
188.881
188.891
188.932
188.951
188.999
189.022
189.08
189.107
189.176
189.206
189.284
189.322
189.401
189.458
189.525
189.62
189.643
189.814
189.44
189.443
189.456
189.456
189.482
189.484
189.518
189.526
189.566
189.582
189.627
189.649
189.704
189.727
189.793
189.819
189.894
189.928
190.003
190.055
190.119
190.207
190.231
190.39
190.105
190.107
190.119
190.119
190.144
190.145
190.178
190.184
190.222
190.236
190.279
190.297
190.349
190.37
190.433
190.455
190.526
190.556
190.628
190.674
190.736
190.816
190.838
190.99
190.792
190.794
190.806
190.805
190.829
190.828
190.86
190.864
190.9
190.912
190.953
190.968
191.018
191.035
191.094
191.113
191.18
191.207
191.274
191.316
191.374
191.448
191.467
191.612
191.501
191.503
191.514
191.512
191.535
191.534
191.564
191.567
191.601
191.611
191.649
191.662
191.708
191.722
191.779
191.794
191.857
191.879
191.943
191.98
192.034
192.101
192.119
192.254
192.232
192.234
192.245
192.242
192.265
192.262
192.291
192.292
192.324
192.331
192.367
192.378
192.421
192.432
192.485
192.497
192.556
192.574
192.634
192.666
192.716
192.777
192.794
192.919
192.985
192.987
192.998
192.994
193.016
193.012
193.039
193.038
193.069
193.074
193.107
193.115
193.156
193.164
193.214
193.222
193.277
193.291
193.347
193.374
193.42
193.475
193.49
193.606
193.76
193.762
193.772
193.768
193.788
193.783
193.809
193.807
193.835
193.838
193.869
193.875
193.913
193.917
193.964
193.968
194.021
194.03
194.082
194.104
194.147
194.195
194.208
194.314
194.556
194.558
194.568
194.563
194.582
194.576
194.601
194.597
194.623
194.625
194.653
194.656
194.691
194.693
194.736
194.737
194.786
194.791
194.84
194.856
194.895
194.937
194.947
195.045
195.374
195.375
195.385
195.379
195.398
195.39
195.414
195.408
195.433
195.432
195.458
195.458
195.491
195.49
195.53
195.527
195.573
195.574
195.619
195.63
195.666
195.701
195.709
195.797
196.212
196.213
196.222
196.217
196.234
196.226
196.248
196.241
196.264
196.261
196.285
196.283
196.313
196.308
196.345
196.339
196.381
196.378
196.419
196.426
196.458
196.488
196.492
196.571
197.072
197.073
197.081
197.075
197.092
197.082
197.103
197.095
197.116
197.111
197.133
197.128
197.155
197.147
197.182
197.172
197.211
197.203
197.241
197.242
197.271
197.295
197.297
197.366
197.952
197.952
197.961
197.954
197.97
197.959
197.979
197.969
197.988
197.982
198.001
197.994
198.019
198.008
198.04
198.026
198.061
198.049
198.084
198.08
198.106
198.124
198.123
198.183
198.852
198.853
198.861
198.853
198.868
198.857
198.875
198.864
198.882
198.873
198.891
198.881
198.903
198.889
198.918
198.901
198.933
198.917
198.948
198.939
198.962
198.974
198.969
199.022
199.773
199.773
199.781
199.773
199.787
199.775
199.792
199.779
199.795
199.785
199.8
199.788
199.808
199.791
199.818
199.796
199.826
199.805
199.834
199.819
199.839
199.845
199.837
199.882
200.713
200.714
200.721
200.712
200.726
200.713
200.729
200.714
200.729
200.717
200.73
200.716
200.733
200.714
200.737
200.713
200.739
200.714
200.74
200.72
200.736
200.736
200.725
200.763
201.674
201.674
201.681
201.672
201.685
201.67
201.685
201.669
201.682
201.668
201.68
201.663
201.678
201.656
201.677
201.649
201.673
201.643
201.666
201.641
201.655
201.649
201.635
201.664
202.654
202.655
202.661
202.651
202.664
202.648
202.662
202.644
202.656
202.64
202.649
202.63
202.643
202.618
202.636
202.605
202.626
202.592
202.613
202.583
202.594
202.581
202.566
202.586
203.654
203.654
203.66
203.65
203.661
203.645
203.657
203.639
203.648
203.631
203.638
203.617
203.628
203.599
203.615
203.58
203.599
203.561
203.579
203.544
203.552
203.533
203.517
203.529
204.672
204.672
204.678
204.667
204.678
204.66
204.672
204.652
204.66
204.641
204.646
204.623
204.631
204.6
204.613
204.575
204.592
204.549
204.564
204.525
204.53
204.504
204.488
204.491
205.71
205.71
205.715
205.703
205.713
205.695
205.705
205.684
205.691
205.669
205.673
205.647
205.653
205.62
205.63
205.589
205.603
205.557
205.569
205.524
205.528
205.494
205.48
205.472
206.765
206.765
206.77
206.758
206.767
206.748
206.757
206.734
206.739
206.716
206.718
206.69
206.694
206.658
206.666
206.621
206.633
206.583
206.593
206.542
206.545
206.504
206.489
206.473
207.838
207.838
207.843
207.83
207.839
207.818
207.826
207.802
207.806
207.781
207.781
207.751
207.753
207.714
207.72
207.672
207.682
207.627
207.635
207.577
207.582
207.533
207.517
207.492
208.928
208.928
208.933
208.919
208.927
208.906
208.913
208.888
208.89
208.864
208.862
208.83
208.83
208.788
208.791
208.74
208.748
208.688
208.696
208.631
208.637
208.578
208.564
208.531
210.035
210.035
210.04
210.026
210.033
210.011
210.017
209.99
209.991
209.963
209.96
209.925
209.924
209.879
209.88
209.826
209.833
209.767
209.776
209.704
209.709
209.643
209.628
209.587
211.159
211.158
211.162
211.148
211.155
211.132
211.137
211.109
211.109
211.079
211.074
211.038
211.034
210.987
210.987
210.928
210.934
210.862
210.873
210.794
210.798
210.726
210.71
210.662
212.297
212.297
212.301
212.286
212.292
212.268
212.273
212.244
212.242
212.211
212.204
212.166
212.161
212.11
212.11
212.047
212.052
211.976
211.985
211.9
211.905
211.826
211.81
211.754
213.451
213.45
213.454
213.439
213.444
213.42
213.423
213.393
213.39
213.358
213.35
213.309
213.304
213.249
213.249
213.182
213.187
213.105
213.113
213.024
213.027
212.944
212.925
212.864
214.618
214.617
214.621
214.605
214.611
214.586
214.588
214.557
214.553
214.519
214.511
214.467
214.462
214.403
214.405
214.331
214.338
214.25
214.259
214.165
214.166
214.078
214.059
213.991
215.799
215.798
215.802
215.786
215.79
215.765
215.767
215.735
215.731
215.694
215.686
215.639
215.635
215.572
215.573
215.496
215.502
215.412
215.417
215.321
215.32
215.228
215.207
215.133
216.992
216.992
216.995
216.979
216.983
216.957
216.958
216.925
216.921
216.882
216.875
216.825
216.82
216.755
216.754
216.677
216.679
216.588
216.591
216.493
216.489
216.393
216.372
216.292
218.197
218.197
218.199
218.184
218.187
218.161
218.161
218.128
218.123
218.083
218.076
218.024
218.018
217.952
217.95
217.87
217.871
217.778
217.78
217.678
217.674
217.574
217.551
217.466
219.414
219.414
219.416
219.4
219.403
219.377
219.376
219.343
219.337
219.297
219.288
219.235
219.228
219.162
219.157
219.077
219.076
218.982
218.981
218.878
218.871
218.768
218.745
218.655
220.641
220.64
220.643
220.627
220.629
220.603
220.602
220.569
220.561
220.522
220.511
220.458
220.45
220.383
220.378
220.296
220.293
220.197
220.196
220.09
220.082
219.976
219.952
219.857
221.877
221.877
221.88
221.863
221.866
221.84
221.838
221.805
221.796
221.758
221.744
221.693
221.683
221.615
221.609
221.526
221.522
221.426
221.421
221.315
221.306
221.196
221.172
221.073
223.124
223.123
223.126
223.11
223.112
223.086
223.084
223.051
223.04
223.003
222.988
222.938
222.926
222.858
222.851
222.767
222.761
222.665
222.66
222.551
222.54
222.429
222.404
222.301
224.379
224.379
224.381
224.365
224.368
224.341
224.339
224.306
224.295
224.258
224.241
224.192
224.178
224.112
224.104
224.017
224.012
223.914
223.907
223.798
223.786
223.673
223.647
223.54
225.643
225.643
225.645
225.629
225.632
225.605
225.602
225.57
225.558
225.522
225.503
225.455
225.439
225.374
225.364
225.278
225.271
225.172
225.165
225.055
225.042
224.926
224.9
224.79
226.915
226.915
226.918
226.901
226.904
226.877
226.874
226.842
226.829
226.794
226.774
226.727
226.71
226.644
226.633
226.547
226.539
226.439
226.43
226.32
226.306
226.189
226.163
226.05
228.195
228.195
228.198
228.181
228.184
228.157
228.154
228.122
228.108
228.074
228.052
228.006
227.987
227.922
227.909
227.823
227.815
227.713
227.704
227.593
227.578
227.46
227.434
227.318
229.483
229.483
229.486
229.469
229.472
229.445
229.442
229.409
229.395
229.36
229.338
229.292
229.271
229.206
229.192
229.107
229.098
228.994
228.985
228.873
228.858
228.739
228.711
228.594
230.779
230.779
230.782
230.765
230.767
230.739
230.736
230.703
230.688
230.653
230.629
230.584
230.562
230.497
230.481
230.397
230.386
230.282
230.273
230.159
230.143
230.024
229.996
229.877
232.081
232.081
232.084
232.066
232.068
232.04
232.036
232.003
231.987
231.952
231.926
231.882
231.857
231.793
231.776
231.691
231.68
231.576
231.566
231.449
231.435
231.314
231.287
231.167
233.388
233.389
233.391
233.373
233.375
233.346
233.342
233.307
233.291
233.255
233.228
233.184
233.157
233.094
233.075
232.989
232.976
232.875
232.864
232.746
232.73
232.61
232.583
232.462
234.699
234.699
234.701
234.683
234.685
234.655
234.65
234.615
234.598
234.562
234.533
234.49
234.46
234.399
234.377
234.293
234.277
234.177
234.166
234.047
234.032
233.911
233.883
233.762
236.01
236.01
236.013
235.994
235.996
235.966
235.96
235.925
235.907
235.871
235.842
235.798
235.766
235.707
235.681
235.601
235.583
235.482
235.471
235.354
235.338
235.217
235.19
235.068
237.319
237.319
237.321
237.303
237.304
237.275
237.27
237.234
237.217
237.18
237.151
237.108
237.075
237.018
236.989
236.912
236.892
236.792
236.779
236.666
236.649
236.527
236.501
236.379
238.621
238.621
238.624
238.606
238.609
238.58
238.575
238.541
238.524
238.489
238.46
238.419
238.386
238.331
238.301
238.226
238.203
238.109
238.091
237.982
237.963
237.843
237.818
237.696
239.916
239.916
239.92
239.903
239.906
239.878
239.876
239.843
239.829
239.795
239.768
239.729
239.697
239.645
239.614
239.544
239.519
239.427
239.411
239.3
239.285
239.165
239.14
239.019
241.202
241.203
241.208
241.191
241.197
241.171
241.171
241.14
241.128
241.098
241.074
241.038
241.008
240.959
240.931
240.864
240.84
240.753
240.735
240.626
240.611
240.492
240.469
240.348
242.483
242.484
242.49
242.475
242.482
242.458
242.46
242.433
242.424
242.397
242.376
242.344
242.318
242.273
242.248
242.186
242.163
242.082
242.062
241.96
241.945
241.826
241.804
241.683
243.764
243.766
243.772
243.759
243.767
243.745
243.75
243.725
243.718
243.695
243.677
243.649
243.626
243.586
243.566
243.507
243.49
243.411
243.397
243.296
243.285
243.167
243.148
243.025
245.055
245.058
245.063
245.051
245.06
245.04
245.044
245.023
245.016
244.996
244.98
244.956
244.936
244.899
244.883
244.826
244.816
244.737
244.733
244.632
244.63
244.514
244.498
244.379
246.366
246.369
246.375
246.363
246.371
246.351
246.355
246.334
246.328
246.308
246.292
246.269
246.249
246.216
246.202
246.145
246.143
246.061
246.066
245.967
245.971
245.859
245.85
245.738
247.71
247.712
247.718
247.704
247.713
247.69
247.694
247.669
247.662
247.64
247.622
247.598
247.576
247.543
247.525
247.472
247.467
247.387
247.397
247.295
247.306
247.194
247.191
247.086
249.096
249.098
249.103
249.088
249.094
249.068
249.069
249.04
249.03
249.003
248.981
248.952
248.925
248.889
248.864
248.812
248.798
248.723
248.725
248.625
248.636
248.522
248.524
248.417
250.531
250.533
250.536
250.519
250.522
250.494
250.49
250.457
250.441
250.408
250.379
250.343
250.309
250.266
250.231
250.175
250.15
250.072
250.065
249.958
249.97
249.847
249.852
249.738
252.016
252.018
252.019
252.001
252.001
251.97
251.961
251.924
251.901
251.863
251.825
251.783
251.738
251.686
251.64
251.573
251.538
251.445
251.431
251.311
251.316
251.179
251.185
251.056
253.548
253.55
253.551
253.531
253.529
253.494
253.483
253.441
253.413
253.369
253.324
253.275
253.22
253.159
253.1
253.024
252.972
252.867
252.837
252.7
252.693
252.535
252.535
252.384
255.121
255.122
255.123
255.101
255.099
255.061
255.049
255.003
254.972
254.923
254.875
254.817
254.757
254.687
254.619
254.535
254.463
254.355
254.296
254.152
254.12
253.939
253.925
253.738
256.723
256.724
256.726
256.703
256.7
256.662
256.648
256.6
256.568
256.516
256.466
256.405
256.341
256.267
256.192
256.102
256.019
255.908
255.825
255.682
255.616
255.423
255.384
255.151
258.344
258.345
258.346
258.323
258.321
258.282
258.269
258.221
258.189
258.137
258.086
258.025
257.96
257.885
257.808
257.717
257.63
257.52
257.424
257.286
257.194
257.007
256.941
256.672
259.97
259.971
259.974
259.951
259.95
259.912
259.899
259.852
259.821
259.771
259.721
259.662
259.598
259.525
259.449
259.361
259.275
259.166
259.074
258.938
258.846
258.664
258.596
258.329
261.592
261.593
261.596
261.574
261.574
261.537
261.525
261.481
261.451
261.404
261.356
261.3
261.239
261.17
261.098
261.015
260.932
260.831
260.743
260.612
260.531
260.354
260.297
260.055
263.198
263.199
263.203
263.182
263.183
263.148
263.138
263.096
263.069
263.025
262.979
262.928
262.87
262.807
262.738
262.662
262.584
262.49
262.408
262.286
262.213
262.047
261.996
261.773
264.781
264.783
264.787
264.767
264.77
264.736
264.729
264.689
264.664
264.624
264.582
264.535
264.481
264.423
264.359
264.289
264.216
264.131
264.055
263.943
263.876
263.724
263.676
263.473
266.335
266.337
266.341
266.323
266.326
266.295
266.289
266.253
266.23
266.194
266.154
266.114
266.062
266.011
265.951
265.889
265.821
265.744
265.672
265.574
265.51
265.372
265.328
265.144
267.853
267.857
267.861
267.844
267.848
267.82
267.814
267.782
267.761
267.73
267.691
267.658
267.607
267.565
267.507
267.454
267.389
267.322
267.257
267.167
267.108
266.985
266.944
266.777
269.333
269.336
269.341
269.326
269.331
269.304
269.301
269.271
269.253
269.225
269.19
269.161
269.114
269.078
269.023
268.979
268.918
268.86
268.798
268.718
268.665
268.556
268.517
268.368
270.771
270.774
270.78
270.764
270.771
270.745
270.746
270.717
270.702
270.677
270.647
270.62
270.579
270.547
270.497
270.458
270.402
270.352
270.295
270.225
270.178
270.081
270.043
269.912
272.164
272.167
272.173
272.158
272.167
272.142
272.145
272.118
272.107
272.083
272.058
272.033
271.998
271.968
271.925
271.891
271.841
271.798
271.743
271.687
271.641
271.558
271.522
271.406
273.51
273.514
273.521
273.507
273.517
273.493
273.498
273.472
273.464
273.443
273.421
273.399
273.369
273.343
273.305
273.275
273.23
273.194
273.146
273.098
273.053
272.983
272.949
272.849
274.81
274.814
274.821
274.807
274.819
274.796
274.803
274.779
274.774
274.755
274.736
274.718
274.691
274.669
274.636
274.61
274.571
274.54
274.495
274.458
274.414
274.356
274.326
274.24
276.062
276.065
276.074
276.06
276.073
276.051
276.06
276.038
276.035
276.018
276.002
275.987
275.964
275.945
275.916
275.895
275.86
275.835
275.796
275.764
275.725
275.678
275.649
275.577
277.266
277.27
277.278
277.265
277.279
277.258
277.268
277.248
277.247
277.233
277.219
277.207
277.187
277.172
277.147
277.13
277.099
277.08
277.043
277.021
276.982
276.948
276.919
276.86
278.423
278.425
278.435
278.422
278.437
278.417
278.429
278.41
278.41
278.398
278.388
278.378
278.361
278.349
278.327
278.315
278.287
278.272
278.242
278.223
278.19
278.164
278.136
278.089
279.531
279.535
279.543
279.532
279.546
279.529
279.54
279.524
279.525
279.516
279.507
279.5
279.485
279.477
279.458
279.45
279.426
279.416
279.387
279.376
279.345
279.327
279.302
279.265
280.594
280.595
280.607
280.593
280.611
280.591
280.607
280.589
280.595
280.585
280.58
280.574
280.562
280.557
280.541
280.535
280.515
280.508
280.485
280.477
280.451
280.44
280.414
280.389
281.609
281.613
281.619
281.615
281.621
281.616
281.62
281.613
281.613
281.61
281.603
281.601
281.591
281.588
281.575
281.573
281.555
281.554
281.532
281.53
281.505
281.501
281.478
281.462
282.58
282.581
282.594
282.579
282.602
282.578
282.602
282.581
282.593
282.584
282.584
282.581
282.575
282.574
282.563
282.563
282.549
282.549
282.532
282.534
282.512
282.514
282.491
282.484
283.506
283.511
283.514
283.516
283.516
283.521
283.517
283.522
283.517
283.521
283.515
283.518
283.511
283.514
283.505
283.508
283.496
283.501
283.484
283.49
283.471
283.478
283.458
283.458
284.391
284.391
284.404
284.39
284.413
284.392
284.416
284.397
284.413
284.405
284.409
284.408
284.406
284.409
284.403
284.408
284.398
284.405
284.392
284.402
284.384
284.396
284.378
284.384
285.232
285.237
285.239
285.243
285.243
285.25
285.246
285.255
285.249
285.258
285.253
285.26
285.256
285.262
285.257
285.264
285.257
285.267
285.256
285.268
285.254
285.269
285.253
285.265
286.035
286.036
286.045
286.039
286.053
286.043
286.059
286.05
286.061
286.058
286.063
286.066
286.067
286.073
286.07
286.079
286.073
286.085
286.076
286.092
286.079
286.098
286.084
286.101
286.797
286.801
286.805
286.806
286.812
286.812
286.817
286.821
286.821
286.829
286.828
286.836
286.836
286.845
286.842
286.853
286.849
286.863
286.857
286.873
286.863
286.886
286.872
286.894
287.524
287.527
287.53
287.534
287.535
287.542
287.541
287.549
287.55
287.556
287.559
287.566
287.568
287.577
287.577
287.588
287.586
287.602
287.596
287.617
287.606
287.632
287.619
287.646
288.213
288.216
288.222
288.218
288.232
288.223
288.24
288.234
288.245
288.247
288.253
288.259
288.262
288.273
288.274
288.286
288.286
288.303
288.299
288.32
288.313
288.34
288.327
288.359
288.869
288.873
288.872
288.882
288.875
288.893
288.882
288.901
288.894
288.909
288.907
288.919
288.921
288.933
288.935
288.949
288.95
288.968
288.964
288.989
288.98
289.011
288.998
289.034
289.491
289.493
289.499
289.495
289.51
289.501
289.52
289.511
289.528
289.526
289.536
289.542
289.548
289.56
289.563
289.577
289.579
289.598
289.597
289.621
289.615
289.647
289.636
289.671
290.081
290.085
290.084
290.094
290.089
290.105
290.096
290.116
290.108
290.126
290.124
290.138
290.14
290.154
290.158
290.173
290.176
290.196
290.194
290.221
290.215
290.249
290.24
290.274
290.642
290.643
290.649
290.648
290.657
290.655
290.668
290.665
290.679
290.68
290.69
290.698
290.704
290.717
290.722
290.738
290.741
290.762
290.762
290.789
290.785
290.819
290.81
290.848
291.172
291.177
291.176
291.184
291.182
291.193
291.191
291.204
291.204
291.217
291.219
291.232
291.237
291.251
291.256
291.273
291.277
291.299
291.299
291.326
291.323
291.358
291.349
291.391
291.677
291.678
291.683
291.683
291.692
291.691
291.701
291.704
291.712
291.719
291.726
291.737
291.743
291.756
291.763
291.78
291.784
291.806
291.808
291.836
291.833
291.869
291.862
291.902
292.154
292.158
292.156
292.166
292.162
292.175
292.174
292.184
292.188
292.198
292.204
292.215
292.222
292.236
292.242
292.26
292.264
292.287
292.289
292.317
292.316
292.352
292.344
292.388
292.607
292.608
292.614
292.611
292.624
292.619
292.632
292.633
292.643
292.65
292.657
292.669
292.675
292.689
292.696
292.714
292.72
292.742
292.745
292.774
292.773
292.809
292.803
292.847
293.036
293.039
293.037
293.048
293.042
293.058
293.052
293.068
293.068
293.081
293.085
293.098
293.105
293.119
293.126
293.145
293.15
293.173
293.177
293.205
293.205
293.241
293.236
293.279
293.442
293.443
293.449
293.445
293.459
293.452
293.47
293.465
293.481
293.483
293.494
293.504
293.512
293.526
293.533
293.552
293.558
293.581
293.584
293.614
293.614
293.649
293.645
293.69
293.827
293.83
293.829
293.838
293.833
293.849
293.842
293.861
293.857
293.874
293.875
293.89
293.896
293.911
293.918
293.938
293.943
293.966
293.971
293.999
294.001
294.036
294.032
294.075
294.192
294.192
294.198
294.195
294.207
294.202
294.218
294.214
294.23
294.232
294.244
294.253
294.261
294.275
294.283
294.302
294.308
294.332
294.335
294.366
294.366
294.4
294.397
294.442
294.537
294.539
294.538
294.547
294.544
294.556
294.553
294.568
294.567
294.582
294.586
294.599
294.606
294.62
294.628
294.647
294.653
294.676
294.681
294.709
294.712
294.746
294.743
294.785
294.864
294.864
294.87
294.867
294.878
294.875
294.888
294.888
294.899
294.905
294.914
294.925
294.933
294.947
294.955
294.974
294.98
295.004
295.006
295.037
295.038
295.072
295.068
295.113
295.173
295.176
295.174
295.183
295.179
295.192
295.19
295.202
295.205
295.216
295.222
295.234
295.242
295.256
295.264
295.282
295.288
295.311
295.317
295.345
295.347
295.382
295.378
295.42
295.467
295.466
295.472
295.469
295.48
295.477
295.49
295.49
295.5
295.507
295.516
295.526
295.534
295.549
295.556
295.575
295.581
295.605
295.608
295.637
295.639
295.674
295.67
295.712
295.744
295.745
295.746
295.752
295.751
295.761
295.76
295.772
295.774
295.786
295.791
295.803
295.811
295.825
295.833
295.851
295.858
295.88
295.885
295.913
295.915
295.95
295.946
295.988
296.007
296.007
296.01
296.011
296.017
296.019
296.027
296.031
296.039
296.046
296.055
296.065
296.073
296.087
296.094
296.112
296.12
296.142
296.146
296.174
296.176
296.211
296.208
296.248
296.255
296.256
296.259
296.26
296.266
296.267
296.275
296.279
296.287
296.295
296.302
296.313
296.321
296.335
296.342
296.36
296.367
296.389
296.393
296.421
296.422
296.459
296.454
296.495
296.491
296.492
296.492
296.498
296.497
296.507
296.506
296.518
296.519
296.531
296.536
296.548
296.555
296.57
296.577
296.594
296.601
296.623
296.628
296.655
296.657
296.691
296.688
296.727
296.714
296.714
296.718
296.716
296.726
296.722
296.736
296.734
296.747
296.75
296.76
296.769
296.778
296.791
296.799
296.815
296.823
296.844
296.849
296.876
296.879
296.909
296.908
296.948
296.924
296.926
296.925
296.933
296.929
296.942
296.938
296.952
296.951
296.965
296.968
296.981
296.987
297.002
297.008
297.025
297.032
297.053
297.059
297.084
297.087
297.119
297.118
297.155
297.124
297.124
297.129
297.126
297.136
297.133
297.145
297.144
297.156
297.16
297.169
297.179
297.186
297.2
297.207
297.223
297.23
297.252
297.256
297.282
297.284
297.315
297.314
297.352
297.313
297.315
297.313
297.322
297.317
297.33
297.326
297.339
297.339
297.351
297.355
297.368
297.373
297.388
297.394
297.411
297.418
297.438
297.443
297.469
297.471
297.502
297.501
297.537
297.492
297.492
297.496
297.493
297.504
297.499
297.512
297.511
297.522
297.527
297.534
297.545
297.551
297.565
297.572
297.588
297.594
297.616
297.619
297.646
297.646
297.679
297.676
297.713
297.661
297.663
297.66
297.67
297.663
297.678
297.672
297.687
297.685
297.699
297.701
297.714
297.719
297.733
297.739
297.756
297.762
297.782
297.786
297.813
297.814
297.843
297.843
297.878
297.821
297.821
297.825
297.822
297.833
297.828
297.841
297.839
297.851
297.854
297.862
297.872
297.878
297.892
297.898
297.915
297.92
297.941
297.946
297.969
297.969
298.003
297.999
298.034
297.972
297.975
297.971
297.981
297.974
297.989
297.982
297.998
297.995
298.009
298.011
298.024
298.028
298.042
298.048
298.065
298.069
298.091
298.093
298.121
298.12
298.149
298.147
298.183
298.115
298.115
298.119
298.116
298.127
298.121
298.135
298.133
298.143
298.148
298.155
298.165
298.171
298.184
298.19
298.207
298.21
298.232
298.235
298.259
298.26
298.292
298.288
298.321
298.25
298.253
298.249
298.259
298.251
298.267
298.259
298.276
298.272
298.286
298.288
298.3
298.304
298.318
298.324
298.341
298.345
298.365
298.367
298.394
298.393
298.423
298.42
298.454
298.378
298.377
298.383
298.378
298.39
298.383
298.398
298.394
298.406
298.409
298.417
298.426
298.432
298.445
298.45
298.467
298.469
298.492
298.493
298.519
298.519
298.549
298.545
298.577
298.498
298.5
298.498
298.507
298.501
298.514
298.508
298.523
298.52
298.534
298.534
298.548
298.551
298.565
298.569
298.587
298.59
298.611
298.613
298.636
298.637
298.667
298.663
298.696
298.613
298.612
298.616
298.614
298.621
298.62
298.629
298.631
298.638
298.644
298.649
298.66
298.664
298.678
298.682
298.699
298.702
298.722
298.724
298.749
298.75
298.777
298.775
298.806
298.72
298.721
298.721
298.725
298.725
298.731
298.733
298.741
298.743
298.752
298.756
298.767
298.77
298.785
298.788
298.805
298.807
298.83
298.83
298.854
298.854
298.883
298.88
298.911
298.821
298.822
298.823
298.825
298.827
298.832
298.834
298.841
298.843
298.853
298.856
298.868
298.871
298.886
298.888
298.906
298.909
298.928
298.929
298.954
298.955
298.98
298.979
299.009
298.917
298.917
298.919
298.919
298.924
298.925
298.931
298.935
298.94
298.947
298.952
298.962
298.966
298.98
298.983
298.999
299.002
299.023
299.024
299.047
299.047
299.075
299.073
299.101
299.007
299.008
299.007
299.013
299.01
299.02
299.017
299.028
299.027
299.039
299.04
299.052
299.055
299.07
299.071
299.088
299.091
299.111
299.113
299.135
299.136
299.16
299.16
299.189
299.091
299.091
299.095
299.092
299.101
299.097
299.108
299.107
299.115
299.12
299.125
299.136
299.139
299.153
299.155
299.171
299.175
299.194
299.195
299.219
299.218
299.244
299.244
299.27
299.17
299.173
299.17
299.178
299.172
299.185
299.178
299.193
299.189
299.203
299.202
299.215
299.217
299.232
299.234
299.25
299.253
299.272
299.274
299.294
299.295
299.321
299.32
299.348
299.246
299.245
299.249
299.246
299.255
299.25
299.262
299.26
299.269
299.274
299.279
299.289
299.292
299.305
299.308
299.324
299.327
299.345
299.345
299.37
299.369
299.393
299.393
299.419
299.315
299.317
299.314
299.323
299.316
299.329
299.323
299.337
299.333
299.346
299.346
299.359
299.36
299.374