/*--------------------------------*- C++ -*----------------------------------*\
  =========                 |
  \\      /  F ield         | OpenFOAM: The Open Source CFD Toolbox
   \\    /   O peration     | Website:  https://openfoam.org
    \\  /    A nd           | Version:  10
     \\/     M anipulation  |
\*---------------------------------------------------------------------------*/
FoamFile
{
    format      ascii;
    class       volVectorField;
    location    "0.2";
    object      U;
}
// * * * * * * * * * * * * * * * * * * * * * * * * * * * * * * * * * * * * * //

dimensions      [0 1 -1 0 0 0 0];

internalField   nonuniform List<vector> 
4176
(
(497.486 -0.0145036 -3.35963e-09)
(497.472 0.0643944 1.08542e-09)
(497.447 0.000695975 -3.10335e-10)
(497.398 0.09131 5.50263e-11)
(497.344 0.0500797 1.24566e-10)
(497.269 0.0906076 -2.62192e-10)
(497.178 0.124759 -4.06915e-10)
(497.086 0.0616915 -9.36665e-11)
(496.951 0.224027 1.72177e-10)
(496.846 0.00616756 2.53921e-10)
(496.67 0.343074 1.79743e-10)
(496.547 -0.067599 2.98956e-10)
(496.336 0.468415 2.84982e-10)
(496.189 -0.137892 5.79401e-12)
(495.954 0.566296 -1.83488e-10)
(495.771 -0.133898 -1.66976e-10)
(495.534 0.526797 -2.35748e-10)
(495.284 0.0253955 -1.21282e-10)
(495.07 0.333085 2.3083e-10)
(494.728 0.324764 2.06775e-10)
(494.573 -0.0183743 -5.74599e-11)
(494.095 0.77338 -1.45476e-10)
(494.065 -0.518225 2.0128e-11)
(493.442 1.4443 8.91598e-11)
(497.467 0.00456458 -3.3603e-09)
(497.453 0.115226 1.08588e-09)
(497.428 0.0757511 -3.10533e-10)
(497.377 0.204226 5.44489e-11)
(497.322 0.185344 1.24722e-10)
(497.245 0.265329 -2.62225e-10)
(497.153 0.320673 -4.07946e-10)
(497.057 0.296786 -9.37938e-11)
(496.922 0.480991 1.7267e-10)
(496.812 0.299296 2.54196e-10)
(496.633 0.661584 1.79493e-10)
(496.506 0.280216 2.99183e-10)
(496.291 0.848989 2.83573e-10)
(496.139 0.259972 5.89039e-12)
(495.898 1.01099 -1.83384e-10)
(495.711 0.303775 -1.66657e-10)
(495.467 1.04055 -2.37054e-10)
(495.213 0.512428 -1.21373e-10)
(494.993 0.91264 2.29924e-10)
(494.644 0.856867 2.06433e-10)
(494.489 0.626878 -5.7475e-11)
(493.99 1.33279 -1.47861e-10)
(493.954 0.123486 2.08964e-11)
(493.267 1.99434 8.87173e-11)
(497.411 0.0229153 -3.36439e-09)
(497.397 0.161885 1.08512e-09)
(497.373 0.146932 -3.12487e-10)
(497.322 0.308571 5.56122e-11)
(497.27 0.312952 1.24528e-10)
(497.193 0.427521 -2.63269e-10)
(497.106 0.5048 -4.05727e-10)
(497.009 0.516021 -9.23141e-11)
(496.879 0.721719 1.74489e-10)
(496.77 0.573957 2.54548e-10)
(496.597 0.959365 1.78712e-10)
(496.471 0.607608 2.9876e-10)
(496.261 1.20477 2.85506e-10)
(496.114 0.635549 6.046e-12)
(495.875 1.42721 -1.83721e-10)
(495.695 0.715523 -1.65686e-10)
(495.452 1.52106 -2.40006e-10)
(495.207 0.967658 -1.22997e-10)
(494.991 1.45546 2.30739e-10)
(494.651 1.3455 2.06126e-10)
(494.504 1.24613 -5.84831e-11)
(494.014 1.88402 -1.45328e-10)
(493.979 0.837077 2.11323e-11)
(493.269 2.61049 8.96144e-11)
(497.307 0.0416505 -3.36313e-09)
(497.293 0.209393 1.08875e-09)
(497.269 0.219432 -3.13361e-10)
(497.218 0.414893 5.8827e-11)
(497.166 0.442926 1.23921e-10)
(497.089 0.592881 -2.67843e-10)
(497.002 0.692366 -4.06112e-10)
(496.905 0.739656 -9.51995e-11)
(496.775 0.966941 1.67572e-10)
(496.666 0.854268 2.58084e-10)
(496.492 1.2627 1.79822e-10)
(496.368 0.941954 2.9738e-10)
(496.156 1.56744 2.87366e-10)
(496.011 1.01973 4.57529e-12)
(495.768 1.85209 -1.90938e-10)
(495.591 1.137 -1.67123e-10)
(495.344 2.0155 -2.37826e-10)
(495.095 1.42817 -1.23379e-10)
(494.889 2.0076 2.33165e-10)
(494.538 1.84238 2.05629e-10)
(494.396 1.85671 -6.1344e-11)
(493.913 2.42187 -1.46271e-10)
(493.884 1.52407 1.92969e-11)
(493.204 3.20728 8.00432e-11)
(497.155 0.0599828 -3.36548e-09)
(497.141 0.255917 1.09502e-09)
(497.118 0.290355 -3.09497e-10)
(497.067 0.519081 5.89701e-11)
(497.016 0.570067 1.27345e-10)
(496.94 0.755054 -2.62607e-10)
(496.854 0.875845 -4.08501e-10)
(496.758 0.959208 -9.34068e-11)
(496.63 1.20683 1.72883e-10)
(496.522 1.12975 2.5617e-10)
(496.349 1.5595 1.80166e-10)
(496.228 1.27074 3.00621e-10)
(496.016 1.9227 2.84254e-10)
(495.874 1.39747 3.6491e-12)
(495.632 2.26981 -1.89097e-10)
(495.459 1.55169 -1.69863e-10)
(495.209 2.51085 -2.39142e-10)
(494.965 1.87134 -1.22608e-10)
(494.762 2.55266 2.27834e-10)
(494.409 2.34026 2.11507e-10)
(494.269 2.45121 -5.36516e-11)
(493.791 2.94772 -1.4342e-10)
(493.761 2.16665 2.28374e-11)
(493.101 3.7652 9.0778e-11)
(496.955 0.0783069 -3.3783e-09)
(496.941 0.302145 1.09263e-09)
(496.918 0.361124 -3.07942e-10)
(496.868 0.622683 5.44176e-11)
(496.817 0.696903 1.16353e-10)
(496.741 0.916371 -2.67787e-10)
(496.656 1.05889 -4.06626e-10)
(496.56 1.17771 -9.76463e-11)
(496.433 1.44613 1.7329e-10)
(496.326 1.40416 2.61653e-10)
(496.155 1.85541 1.80607e-10)
(496.033 1.5987 2.9522e-10)
(495.824 2.27635 2.81877e-10)
(495.683 1.7751 6.11387e-12)
(495.441 2.68423 -1.92215e-10)
(495.273 1.97064 -1.67511e-10)
(495.016 3.00151 -2.28858e-10)
(494.785 2.31422 -1.19764e-10)
(494.569 3.1022 2.37779e-10)
(494.228 2.83709 2.13752e-10)
(494.082 3.04739 -5.79412e-11)
(493.609 3.47569 -1.54264e-10)
(493.573 2.81356 1.95495e-11)
(492.912 4.32215 9.09236e-11)
(496.706 0.0964533 -3.37668e-09)
(496.692 0.347709 1.08959e-09)
(496.669 0.4311 -3.23886e-10)
(496.62 0.724847 5.45603e-11)
(496.57 0.822284 1.31194e-10)
(496.494 1.07547 -2.67075e-10)
(496.41 1.23983 -4.18502e-10)
(496.315 1.39328 -9.34224e-11)
(496.19 1.68269 1.79673e-10)
(496.083 1.67506 2.56937e-10)
(495.915 2.14788 1.78015e-10)
(495.793 1.92287 3.06573e-10)
(495.586 2.62561 2.97975e-10)
(495.447 2.14909 8.12808e-12)
(495.206 3.09256 -1.87885e-10)
(495.042 2.38793 -1.64458e-10)
(494.783 3.48115 -2.38568e-10)
(494.563 2.7589 -1.25448e-10)
(494.336 3.64964 2.32403e-10)
(494.009 3.32209 2.11402e-10)
(493.857 3.64239 -5.94079e-11)
(493.391 4.00316 -1.54489e-10)
(493.351 3.47022 2.17911e-11)
(492.691 4.88441 9.59024e-11)
(496.409 0.114462 -3.39187e-09)
(496.395 0.392806 1.0996e-09)
(496.373 0.500454 -3.03512e-10)
(496.323 0.825989 5.83314e-11)
(496.274 0.946494 1.18535e-10)
(496.198 1.23297 -2.64298e-10)
(496.116 1.41903 -4.02511e-10)
(496.022 1.60669 -9.48888e-11)
(495.898 1.91692 1.61351e-10)
(495.792 1.94335 2.54567e-10)
(495.625 2.43742 1.89039e-10)
(495.505 2.24415 3.01295e-10)
(495.299 2.97126 2.72736e-10)
(495.162 2.52011 -4.59549e-13)
(494.923 3.49638 -1.80938e-10)
(494.762 2.80272 -1.7279e-10)
(494.502 3.95339 -2.35188e-10)
(494.291 3.20121 -1.08925e-10)
(494.057 4.1924 2.36378e-10)
(493.741 3.80268 1.96821e-10)
(493.584 4.23551 -5.96512e-11)
(493.126 4.52577 -1.38495e-10)
(493.082 4.12161 1.92079e-11)
(492.43 5.43941 7.26219e-11)
(496.064 0.132289 -3.4014e-09)
(496.05 0.437346 1.08575e-09)
(496.027 0.569023 -3.25073e-10)
(495.978 0.925903 4.62292e-11)
(495.93 1.06924 1.18608e-10)
(495.855 1.38854 -2.7278e-10)
(495.773 1.59605 -4.18345e-10)
(495.68 1.81745 -9.83645e-11)
(495.558 2.14822 1.6781e-10)
(495.453 2.20835 2.51588e-10)
(495.288 2.72327 1.77374e-10)
(495.17 2.56166 3.00201e-10)
(494.966 3.31245 2.81462e-10)
(494.831 2.88713 8.87393e-13)
(494.592 3.89477 -1.87739e-10)
(494.435 3.21368 -1.69961e-10)
(494.175 4.41715 -2.39726e-10)
(493.972 3.64056 -1.20042e-10)
(493.733 4.72831 2.33065e-10)
(493.429 4.27665 2.03816e-10)
(493.266 4.82606 -6.16823e-11)
(492.817 5.04362 -1.49711e-10)
(492.769 4.76864 2.09013e-11)
(492.126 5.98776 8.89123e-11)
(495.67 0.149932 -3.38411e-09)
(495.656 0.48134 1.11449e-09)
(495.634 0.636803 -3.06195e-10)
(495.585 1.02461 6.95049e-11)
(495.537 1.19053 1.37343e-10)
(495.463 1.5422 -2.55893e-10)
(495.382 1.77088 -4.01934e-10)
(495.29 2.0256 -8.13115e-11)
(495.169 2.37656 1.86121e-10)
(495.065 2.47003 2.68414e-10)
(494.902 3.00536 1.95891e-10)
(494.786 2.87527 3.16407e-10)
(494.584 3.64905 3.00329e-10)
(494.451 3.24992 1.36338e-11)
(494.215 4.28763 -1.7417e-10)
(494.061 3.6205 -1.5945e-10)
(493.801 4.87277 -2.26167e-10)
(493.606 4.07616 -1.091e-10)
(493.363 5.25671 2.47075e-10)
(493.071 4.74441 2.15519e-10)
(492.902 5.41192 -4.96195e-11)
(492.463 5.55476 -1.37689e-10)
(492.411 5.40947 3.02945e-11)
(491.778 6.52777 9.80036e-11)
(495.227 0.167364 -3.40362e-09)
(495.213 0.524733 1.10299e-09)
(495.192 0.703699 -3.15757e-10)
(495.143 1.12199 6.21091e-11)
(495.096 1.31021 1.30744e-10)
(495.022 1.6938 -2.64114e-10)
(494.943 1.94334 -4.07562e-10)
(494.852 2.2309 -8.3369e-11)
(494.733 2.60169 1.84321e-10)
(494.63 2.72809 2.66827e-10)
(494.469 3.28334 1.96357e-10)
(494.354 3.18456 3.1932e-10)
(494.154 3.9806 3.03296e-10)
(494.025 3.60788 1.54255e-11)
(493.79 4.67447 -1.69602e-10)
(493.64 4.02247 -1.53669e-10)
(493.381 5.32015 -2.18942e-10)
(493.193 4.50745 -1.02931e-10)
(492.946 5.77673 2.57657e-10)
(492.665 5.20515 2.26394e-10)
(492.491 5.99178 -6.13641e-11)
(492.064 6.05848 -1.71738e-10)
(492.008 6.04339 1.0404e-12)
(491.386 7.05899 6.68019e-11)
(494.736 0.184563 -3.41081e-09)
(494.722 0.56748 1.10563e-09)
(494.701 0.769633 -3.1895e-10)
(494.653 1.21796 5.6764e-11)
(494.607 1.42815 1.25832e-10)
(494.534 1.84321 -2.703e-10)
(494.456 2.11327 -4.16194e-10)
(494.365 2.43324 -9.3569e-11)
(494.248 2.82345 1.7441e-10)
(494.147 2.98238 2.57505e-10)
(493.988 3.557 1.8602e-10)
(493.875 3.48927 3.10428e-10)
(493.677 4.30681 2.92665e-10)
(493.55 3.96062 5.7729e-12)
(493.317 5.05491 -1.84303e-10)
(493.172 4.41899 -1.67597e-10)
(492.914 5.7593 -2.3631e-10)
(492.732 4.93405 -1.16339e-10)
(492.483 6.28782 2.39344e-10)
(492.214 5.65964 2.08043e-10)
(492.034 6.56295 -5.64936e-11)
(491.62 6.55235 -1.42523e-10)
(491.56 6.67057 2.69632e-11)
(490.949 7.58089 9.32377e-11)
(494.196 0.201501 -3.41872e-09)
(494.183 0.609526 1.10515e-09)
(494.162 0.834506 -3.2512e-10)
(494.114 1.31238 5.09344e-11)
(494.069 1.54419 1.17696e-10)
(493.996 1.99026 -2.82878e-10)
(493.92 2.28047 -4.3126e-10)
(493.83 2.6324 -1.10406e-10)
(493.715 3.0416 1.576e-10)
(493.615 3.23265 2.38942e-10)
(493.458 3.82609 1.59971e-10)
(493.348 3.78911 2.8471e-10)
(493.152 4.62737 2.6012e-10)
(493.028 4.3077 2.41465e-13)
(492.797 5.4285 -1.60536e-10)
(492.656 4.80935 -1.50461e-10)
(492.399 6.19012 -2.18431e-10)
(492.225 5.35562 -1.03986e-10)
(491.973 6.78927 2.52034e-10)
(491.715 6.10623 2.18491e-10)
(491.531 7.12548 -4.84066e-11)
(491.13 7.03643 -1.3747e-10)
(491.067 7.28895 3.22697e-11)
(490.467 8.09287 9.6347e-11)
(493.608 0.218154 -3.41843e-09)
(493.594 0.650817 1.12947e-09)
(493.573 0.898226 -3.26277e-10)
(493.526 1.40515 3.17239e-11)
(493.482 1.65818 1.14869e-10)
(493.411 2.13475 -2.74302e-10)
(493.335 2.44471 -4.10817e-10)
(493.247 2.82815 -7.3175e-11)
(493.133 3.2559 1.77144e-10)
(493.035 3.47866 2.39674e-10)
(492.88 4.09036 1.73235e-10)
(492.772 4.08381 3.086e-10)
(492.579 4.94199 3.02732e-10)
(492.458 4.64877 1.94475e-11)
(492.23 5.79488 -1.93796e-10)
(492.093 5.19305 -1.91611e-10)
(491.838 6.61218 -2.55042e-10)
(491.67 5.77155 -1.22649e-10)
(491.416 7.28061 2.46457e-10)
(491.17 6.54458 2.24305e-10)
(490.982 7.67863 -6.08315e-11)
(490.594 7.50958 -1.66445e-10)
(490.528 7.89725 1.54234e-11)
(489.941 8.59441 9.35563e-11)
(492.97 0.234499 -3.44057e-09)
(492.956 0.691303 1.0908e-09)
(492.936 0.960707 -3.17712e-10)
(492.89 1.49612 8.84916e-11)
(492.846 1.76993 1.40697e-10)
(492.776 2.27649 -2.71843e-10)
(492.702 2.60576 -4.31531e-10)
(492.615 3.0202 -1.19212e-10)
(492.503 3.46605 1.74648e-10)
(492.407 3.72007 2.82052e-10)
(492.255 4.34949 1.94295e-10)
(492.149 4.37304 3.03285e-10)
(491.958 5.25037 2.68696e-10)
(491.841 4.98348 -2.16566e-12)
(491.614 6.15372 -1.69878e-10)
(491.482 5.56963 -1.62684e-10)
(491.229 7.02503 -2.45049e-10)
(491.068 6.18112 -1.34091e-10)
(490.813 7.76126 2.05979e-10)
(490.579 6.97437 1.95311e-10)
(490.387 8.22202 -4.79533e-11)
(490.011 7.97097 -1.42299e-10)
(489.944 8.49422 1.55814e-11)
(489.37 9.08498 6.82188e-11)
(492.283 0.250516 -3.43307e-09)
(492.269 0.73094 1.14199e-09)
(492.25 1.02187 -3.25372e-10)
(492.204 1.5852 2.88419e-11)
(492.161 1.8793 1.13453e-10)
(492.092 2.41527 -2.72836e-10)
(492.019 2.76335 -4.04288e-10)
(491.934 3.20827 -6.59393e-11)
(491.824 3.6717 1.79054e-10)
(491.731 3.95655 2.41582e-10)
(491.58 4.60311 1.80365e-10)
(491.477 4.65642 3.1755e-10)
(491.289 5.55216 3.13504e-10)
(491.175 5.31147 -5.70539e-12)
(490.952 6.5047 -2.26484e-10)
(490.824 5.93864 -1.88279e-10)
(490.573 7.42833 -2.45642e-10)
(490.418 6.58352 -1.09253e-10)
(490.163 8.23042 2.62143e-10)
(489.941 7.39536 2.01943e-10)
(489.745 8.75497 -8.7e-11)
(489.384 8.42027 -1.55637e-10)
(489.313 9.0793 2.89539e-11)
(488.753 9.56387 1.05771e-10)
(491.546 0.266182 -3.4558e-09)
(491.533 0.769682 1.10629e-09)
(491.514 1.08163 -3.4405e-10)
(491.468 1.67227 2.51445e-11)
(491.427 1.98612 1.24289e-10)
(491.359 2.5509 -2.46834e-10)
(491.288 2.91724 -4.01437e-10)
(491.205 3.39207 -8.44764e-11)
(491.097 3.87252 1.76214e-10)
(491.005 4.18769 2.53327e-10)
(490.858 4.8508 1.69425e-10)
(490.757 4.93353 2.86501e-10)
(490.572 5.84695 2.94506e-10)
(490.462 5.63233 2.49516e-11)
(490.241 6.84747 -1.76071e-10)
(490.118 6.2997 -1.65133e-10)
(489.87 7.82182 -2.42298e-10)
(489.722 6.97789 -1.25706e-10)
(489.467 8.68729 2.2021e-10)
(489.256 7.80719 1.78911e-10)
(489.057 9.27596 -9.86972e-11)
(488.71 8.85818 -1.52532e-10)
(488.635 9.65293 4.68767e-11)
(488.091 10.0298 1.02522e-10)
(490.76 0.281472 -3.45651e-09)
(490.747 0.807475 1.13288e-09)
(490.728 1.1399 -3.10852e-10)
(490.683 1.75721 7.99097e-11)
(490.643 2.09025 1.47814e-10)
(490.576 2.68318 -2.51907e-10)
(490.507 3.06718 -3.94592e-10)
(490.425 3.57129 -6.03563e-11)
(490.32 4.06815 2.17168e-10)
(490.231 4.4131 2.65835e-10)
(490.086 5.09213 1.5374e-10)
(489.989 5.20386 2.83612e-10)
(489.807 6.13425 2.62156e-10)
(489.7 5.94554 -2.68548e-11)
(489.483 7.1816 -2.18414e-10)
(489.365 6.65238 -1.90631e-10)
(489.119 8.20523 -2.5964e-10)
(488.978 7.3635 -1.29191e-10)
(488.724 9.1312 2.33618e-10)
(488.524 8.20958 2.07461e-10)
(488.322 9.78456 -5.52534e-11)
(487.99 9.28421 -1.38342e-10)
(487.911 10.2143 3.57807e-11)
(487.382 10.4823 1.06576e-10)
(489.924 0.296358 -3.47202e-09)
(489.911 0.844255 1.1219e-09)
(489.893 1.19659 -3.32024e-10)
(489.849 1.83988 5.37189e-11)
(489.81 2.19149 1.15305e-10)
(489.744 2.8119 -2.95846e-10)
(489.677 3.21292 -4.41457e-10)
(489.597 3.74566 -1.10474e-10)
(489.494 4.25826 1.59114e-10)
(489.407 4.63239 2.42156e-10)
(489.265 5.32665 1.67108e-10)
(489.171 5.46694 2.88607e-10)
(488.993 6.41355 2.58462e-10)
(488.89 6.25054 -3.51248e-11)
(488.676 7.50655 -2.36747e-10)
(488.563 6.99613 -2.13824e-10)
(488.321 8.57814 -2.47326e-10)
(488.186 7.73983 -8.8326e-11)
(487.934 9.56169 2.73856e-10)
(487.746 8.60211 2.33931e-10)
(487.54 10.2803 -3.45465e-11)
(487.224 9.69808 -1.2725e-10)
(487.14 10.7628 4.40125e-11)
(486.628 10.9209 1.1082e-10)
(489.038 0.310805 -3.4971e-09)
(489.025 0.879944 1.13576e-09)
(489.007 1.25155 -3.03559e-10)
(488.964 1.92011 5.87084e-11)
(488.926 2.28965 1.41341e-10)
(488.862 2.93683 -2.47318e-10)
(488.797 3.3542 -4.20819e-10)
(488.719 3.91489 -1.14686e-10)
(488.618 4.44252 1.77669e-10)
(488.534 4.84521 2.81858e-10)
(488.396 5.55395 1.81211e-10)
(488.305 5.72229 3.19029e-10)
(488.13 6.68432 3.09037e-10)
(488.032 6.54675 -1.52018e-11)
(487.822 7.82176 -1.91968e-10)
(487.714 7.33032 -1.54469e-10)
(487.475 8.94 -2.52656e-10)
(487.347 8.10632 -1.50798e-10)
(487.097 9.97838 2.2465e-10)
(486.92 8.98436 2.07141e-10)
(486.712 10.7626 -8.80081e-11)
(486.411 10.0994 -1.5548e-10)
(486.323 11.2977 3.1635e-11)
(485.828 11.3451 7.42183e-11)
(488.101 0.324773 -3.48648e-09)
(488.088 0.914452 1.15025e-09)
(488.071 1.30466 -3.04695e-10)
(488.029 1.99772 9.32892e-11)
(487.992 2.3845 1.59846e-10)
(487.93 3.05772 -2.86175e-10)
(487.866 3.49074 -4.67859e-10)
(487.791 4.07867 -1.2376e-10)
(487.693 4.62061 1.60002e-10)
(487.612 5.05119 2.51321e-10)
(487.477 5.77365 1.81875e-10)
(487.389 5.96947 3.15732e-10)
(487.218 6.94608 3.00411e-10)
(487.124 6.83361 1.00655e-11)
(486.919 8.12664 -1.73823e-10)
(486.816 7.65428 -1.50744e-10)
(486.581 9.29023 -2.14991e-10)
(486.461 8.46229 -1.2629e-10)
(486.213 10.3809 1.96952e-10)
(486.046 9.35596 1.74958e-10)
(485.837 11.2309 -8.84559e-11)
(485.551 10.488 -1.6836e-10)
(485.459 11.8186 5.21296e-12)
(484.982 11.7545 8.30702e-11)
(487.114 0.338221 -3.51559e-09)
(487.101 0.947687 1.10589e-09)
(487.084 1.35576 -3.29063e-10)
(487.043 2.07251 9.37321e-11)
(487.008 2.4758 1.36733e-10)
(486.947 3.17429 -2.87377e-10)
(486.886 3.62223 -4.45419e-10)
(486.813 4.23669 -8.02204e-11)
(486.718 4.79218 2.23768e-10)
(486.64 5.25001 2.90086e-10)
(486.508 5.98537 1.97224e-10)
(486.425 6.20809 3.03099e-10)
(486.257 7.19839 2.56869e-10)
(486.168 7.11061 -1.28819e-11)
(485.967 8.42062 -1.79586e-10)
(485.87 7.96735 -1.73091e-10)
(485.639 9.62818 -2.60542e-10)
(485.526 8.80691 -1.47869e-10)
(485.281 10.7689 2.42608e-10)
(485.125 9.71654 2.30728e-10)
(484.915 11.6842 -5.48757e-11)
(484.645 10.8633 -1.6015e-10)
(484.548 12.325 -8.579e-12)
(484.089 12.1488 8.78371e-11)
(486.075 0.351113 -3.52952e-09)
(486.063 0.979561 1.11024e-09)
(486.047 1.40471 -3.30417e-10)
(486.007 2.14428 9.94625e-11)
(485.974 2.5633 1.47054e-10)
(485.914 3.28626 -2.83221e-10)
(485.855 3.74836 -4.46763e-10)
(485.785 4.38861 -1.30195e-10)
(485.693 4.95689 1.7474e-10)
(485.618 5.44129 2.96122e-10)
(485.49 6.18874 2.0813e-10)
(485.41 6.43777 3.13868e-10)
(485.247 7.44085 2.67871e-10)
(485.163 7.3773 -4.0434e-12)
(484.966 8.70323 -1.69996e-10)
(484.875 8.26893 -1.68991e-10)
(484.648 9.95321 -2.56099e-10)
(484.543 9.13932 -1.38989e-10)
(484.301 11.142 2.53835e-10)
(484.157 10.0657 2.40166e-10)
(483.945 12.1216 -4.50755e-11)
(483.691 11.2248 -1.51642e-10)
(483.591 12.8163 6.18867e-12)
(483.15 12.5275 6.06769e-11)
(484.986 0.363416 -3.54859e-09)
(484.974 1.01 1.15489e-09)
(484.959 1.4514 -3.06461e-10)
(484.92 2.21289 5.6323e-11)
(484.888 2.64681 9.16233e-11)
(484.83 3.39337 -3.00539e-10)
(484.774 3.86882 -4.22454e-10)
(484.706 4.5341 -1.14388e-10)
(484.617 5.11438 1.80871e-10)
(484.546 5.62466 2.87158e-10)
(484.421 6.38338 1.82776e-10)
(484.346 6.65812 3.3002e-10)
(484.187 7.67306 3.2699e-10)
(484.108 7.63329 -9.40433e-12)
(483.916 8.97402 -2.40197e-10)
(483.831 8.55852 -1.93336e-10)
(483.609 10.2648 -2.40724e-10)
(483.511 9.45885 -1.34393e-10)
(483.273 11.4998 2.49413e-10)
(483.139 10.4028 2.26924e-10)
(482.927 12.5421 -7.17177e-11)
(482.69 11.5717 -1.38095e-10)
(482.587 13.2914 5.72157e-11)
(482.165 12.89 9.42197e-11)
(483.846 0.375108 -3.52943e-09)
(483.834 1.03896 1.18311e-09)
(483.82 1.49573 -2.92221e-10)
(483.782 2.27818 6.81661e-11)
(483.752 2.72612 9.71377e-11)
(483.696 3.4954 -3.02098e-10)
(483.642 3.98335 -4.29123e-10)
(483.577 4.67284 -7.10195e-11)
(483.491 5.26426 2.19623e-10)
(483.423 5.79974 2.67468e-10)
(483.303 6.56887 1.56344e-10)
(483.232 6.86875 3.00279e-10)
(483.078 7.89462 2.89609e-10)
(483.003 7.87817 1.10462e-13)
(482.816 9.23261 -1.80484e-10)
(482.737 8.83569 -1.44529e-10)
(482.52 10.5625 -2.52347e-10)
(482.43 9.76495 -1.53759e-10)
(482.197 11.8417 2.22713e-10)
(482.074 10.7273 1.98895e-10)
(481.862 12.945 -5.57943e-11)
(481.641 11.9031 -1.28812e-10)
(481.535 13.7492 6.28542e-11)
(481.132 13.2358 9.45067e-11)
(482.654 0.386174 -3.53639e-09)
(482.643 1.0664 1.15708e-09)
(482.629 1.53765 -3.52788e-10)
(482.592 2.34007 8.04072e-11)
(482.564 2.80112 1.24362e-10)
(482.51 3.59216 -3.09216e-10)
(482.459 4.09169 -4.14104e-10)
(482.397 4.80454 -9.29685e-11)
(482.315 5.40622 1.59838e-10)
(482.25 5.96615 2.85112e-10)
(482.134 6.74482 1.96265e-10)
(482.067 7.06923 3.01535e-10)
(481.918 8.10511 3.13037e-10)
(481.849 8.11153 -1.07753e-11)
(481.667 9.4786 -2.32833e-10)
(481.595 9.10005 -1.75596e-10)
(481.383 10.846 -2.64349e-10)
(481.301 10.0571 -1.43887e-10)
(481.072 12.1672 2.52537e-10)
(480.959 11.0384 1.94456e-10)
(480.748 13.3299 -9.59457e-11)
(480.544 12.2182 -1.49e-10)
(480.435 14.1881 3.1137e-12)
(480.053 13.5642 5.95424e-11)
(481.412 0.396602 -3.60752e-09)
(481.4 1.09229 1.13658e-09)
(481.388 1.5771 -3.54303e-10)
(481.352 2.39849 5.09548e-11)
(481.325 2.8717 1.24918e-10)
(481.274 3.68353 -2.87443e-10)
(481.225 4.19368 -4.26786e-10)
(481.166 4.92897 -7.53875e-11)
(481.087 5.53995 2.06604e-10)
(481.026 6.12355 2.97686e-10)
(480.914 6.9108 2.31813e-10)
(480.853 7.25914 3.08379e-10)
(480.708 8.30408 2.8487e-10)
(480.645 8.33295 -1.68495e-11)
(480.468 9.71156 -2.10628e-10)
(480.402 9.35119 -1.81373e-10)
(480.195 11.1148 -2.47548e-10)
(480.121 10.335 -1.07837e-10)
(479.897 12.476 2.65548e-10)
(479.795 11.3354 2.25347e-10)
(479.586 13.6958 -9.65426e-11)
(479.398 12.5169 -1.74843e-10)
(479.287 14.6079 3.56337e-12)
(478.925 13.8749 7.54748e-11)
(480.118 0.406383 -3.57941e-09)
(480.106 1.11661 1.19405e-09)
(480.095 1.61405 -2.98756e-10)
(480.06 2.45338 6.37733e-11)
(480.035 2.9378 9.10153e-11)
(479.986 3.7694 -3.18884e-10)
(479.94 4.28918 -4.45558e-10)
(479.883 5.04597 -8.11781e-11)
(479.809 5.66524 2.07704e-10)
(479.752 6.27166 3.1062e-10)
(479.644 7.0665 1.97401e-10)
(479.587 7.43808 2.86869e-10)
(479.447 8.49108 2.7379e-10)
(479.39 8.54195 -2.29733e-11)
(479.218 9.93107 -2.05821e-10)
(479.159 9.58867 -1.65714e-10)
(478.958 11.3686 -2.18297e-10)
(478.893 10.5981 -7.06422e-11)
(478.673 12.768 2.55022e-10)
(478.582 11.6175 1.73665e-10)
(478.375 14.0418 -8.49726e-11)
(478.204 12.7994 -1.54301e-10)
(478.09 15.0091 3.89349e-11)
(477.749 14.168 1.23713e-10)
(478.773 0.415503 -3.57977e-09)
(478.761 1.13932 1.16584e-09)
(478.751 1.64846 -3.75907e-10)
(478.717 2.50469 5.77545e-11)
(478.694 2.99933 1.61936e-10)
(478.647 3.84969 -2.83233e-10)
(478.604 4.3781 -4.59058e-10)
(478.55 5.1554 -8.09282e-11)
(478.479 5.78192 1.72956e-10)
(478.426 6.41027 2.34612e-10)
(478.323 7.21164 1.98281e-10)
(478.271 7.60572 3.58141e-10)
(478.136 8.66573 2.99339e-10)
(478.085 8.73809 -3.49913e-11)
(477.919 10.1366 -2.00806e-10)
(477.867 9.81201 -1.43901e-10)
(477.671 11.6069 -2.43734e-10)
(477.614 10.846 -1.36086e-10)
(477.4 13.0427 2.69097e-10)
(477.319 11.8838 2.00949e-10)
(477.116 14.3667 -1.04158e-10)
(476.961 13.0657 -1.60111e-10)
(476.845 15.3907 5.1198e-11)
(476.524 14.4424 9.69461e-11)
(477.376 0.423947 -3.6537e-09)
(477.365 1.16041 1.14359e-09)
(477.355 1.68027 -3.65326e-10)
(477.323 2.55234 4.52659e-11)
(477.301 3.05622 1.14382e-10)
(477.256 3.92432 -3.10008e-10)
(477.216 4.46034 -4.48667e-10)
(477.165 5.25718 -9.31459e-11)
(477.098 5.88989 1.8653e-10)
(477.049 6.53927 2.72319e-10)
(476.95 7.34603 2.05353e-10)
(476.903 7.76184 3.41735e-10)
(476.774 8.8277 3.13055e-10)
(476.728 8.92099 -5.49109e-13)
(476.568 10.3278 -1.95482e-10)
(476.524 10.0207 -1.67247e-10)
(476.334 11.8294 -2.37936e-10)
(476.285 11.0782 -1.02398e-10)
(476.077 13.2997 2.77104e-10)
(476.006 12.1339 2.3458e-10)
(475.806 14.6699 -3.49302e-11)
(475.669 13.3139 -1.82606e-10)
(475.55 15.7534 -1.06002e-11)
(475.25 14.6999 6.94106e-11)
(475.928 0.431698 -3.59278e-09)
(475.917 1.17982 1.21206e-09)
(475.908 1.70943 -3.24612e-10)
(475.877 2.59627 8.54455e-11)
(475.857 3.10839 1.45558e-10)
(475.814 3.99319 -2.85701e-10)
(475.777 4.53581 -4.31652e-10)
(475.729 5.35123 -8.01983e-11)
(475.665 5.98906 1.94161e-10)
(475.62 6.65856 2.73624e-10)
(475.526 7.46957 1.99907e-10)
(475.484 7.90631 3.24844e-10)
(475.36 8.97678 2.88549e-10)
(475.321 9.09039 -2.51406e-11)
(475.167 10.5042 -2.35275e-10)
(475.129 10.2144 -2.14757e-10)
(474.946 12.0354 -2.90941e-10)
(474.906 11.2943 -9.0818e-11)
(474.703 13.5388 2.79059e-10)
(474.643 12.3675 2.24168e-10)
(474.448 14.9512 -4.79515e-11)
(474.326 13.5446 -1.43962e-10)
(474.206 16.0947 2.77306e-11)
(473.928 14.9379 9.81933e-11)
(474.428 0.438742 -3.62464e-09)
(474.417 1.19752 1.18917e-09)
(474.409 1.73588 -3.6351e-10)
(474.379 2.6364 8.56272e-11)
(474.362 3.15576 1.33619e-10)
(474.321 4.05622 -3.13786e-10)
(474.286 4.60442 -4.20637e-10)
(474.241 5.43745 -8.63295e-11)
(474.181 6.07935 1.76137e-10)
(474.14 6.76809 3.00562e-10)
(474.051 7.58221 2.07307e-10)
(474.014 8.03908 3.20048e-10)
(473.895 9.11288 3.28612e-10)
(473.862 9.24614 -7.28806e-12)
(473.714 10.6655 -2.30079e-10)
(473.684 10.3925 -1.67519e-10)
(473.507 12.2245 -2.58868e-10)
(473.476 11.4935 -1.37616e-10)
(473.279 13.7592 2.80753e-10)
(473.23 12.5839 2.13256e-10)
(473.039 15.2109 -8.81896e-11)
(472.933 13.7588 -1.3284e-10)
(472.811 16.413 2.84085e-11)
(472.556 15.1545 7.56846e-11)
(472.876 0.445071 -3.69084e-09)
(472.866 1.21351 1.19434e-09)
(472.858 1.75962 -3.27188e-10)
(472.83 2.6727 4.52645e-11)
(472.814 3.19828 1.40425e-10)
(472.775 4.11334 -2.68159e-10)
(472.744 4.6661 -4.61031e-10)
(472.702 5.51576 -7.95143e-11)
(472.646 6.16067 2.23054e-10)
(472.609 6.8678 2.63036e-10)
(472.524 7.68388 2.14751e-10)
(472.492 8.16013 3.72535e-10)
(472.379 9.23596 2.96636e-10)
(472.352 9.38824 -1.62523e-12)
(472.209 10.8117 -1.77612e-10)
(472.187 10.5551 -1.98676e-10)
(472.016 12.3964 -2.53171e-10)
(471.994 11.6755 -8.97428e-11)
(471.804 13.9605 2.48474e-10)
(471.765 12.7821 2.19768e-10)
(471.58 15.4489 -3.46061e-11)
(471.489 13.956 -1.62471e-10)
(471.365 16.7083 3.54197e-11)
(471.133 15.3508 1.23182e-10)
(471.273 0.450687 -3.66882e-09)
(471.262 1.22778 1.23702e-09)
(471.256 1.78062 -2.96571e-10)
(471.229 2.70515 8.08135e-11)
(471.215 3.23592 1.0218e-10)
(471.178 4.16451 -3.10828e-10)
(471.149 4.72078 -4.3e-10)
(471.111 5.58609 -5.23959e-11)
(471.059 6.23295 2.5103e-10)
(471.026 6.95758 2.97598e-10)
(470.946 7.7745 1.75427e-10)
(470.919 8.26941 3.28898e-10)
(470.811 9.346 3.24743e-10)
(470.79 9.51671 2.3321e-11)
(470.653 10.9427 -1.58231e-10)
(470.638 10.7021 -1.80807e-10)
(470.474 12.5508 -3.02586e-10)
(470.461 11.8398 -1.32415e-10)
(470.277 14.1422 2.63919e-10)
(470.25 12.9614 2.32627e-10)
(470.069 15.6651 -1.42892e-11)
(469.994 14.1364 -1.51457e-10)
(469.869 16.9799 -1.89418e-11)
(469.66 15.5258 7.58338e-11)
(469.617 0.455594 -3.7441e-09)
(469.607 1.24034 1.16775e-09)
(469.602 1.79892 -3.828e-10)
(469.576 2.73378 3.20387e-11)
(469.564 3.26871 1.02497e-10)
(469.53 4.20974 -3.3337e-10)
(469.503 4.76847 -4.78365e-10)
(469.468 5.64841 -1.20504e-10)
(469.42 6.29613 1.65036e-10)
(469.391 7.03738 2.51894e-10)
(469.315 7.85398 1.76316e-10)
(469.293 8.36683 3.10664e-10)
(469.191 9.44292 2.78029e-10)
(469.176 9.63153 -4.19668e-11)
(469.045 11.0586 -2.4922e-10)
(469.038 10.8335 -2.19615e-10)
(468.88 12.688 -2.96761e-10)
(468.875 11.9866 -1.51049e-10)
(468.698 14.3041 2.2363e-10)
(468.682 13.1214 1.78576e-10)
(468.508 15.8585 -1.05754e-10)
(468.447 14.2996 -1.88369e-10)
(468.322 17.2272 -1.17718e-11)
(468.136 15.6794 6.42274e-11)
(467.91 0.459806 -3.6949e-09)
(467.901 1.25123 1.21212e-09)
(467.896 1.81456 -3.71686e-10)
(467.871 2.75864 9.67613e-11)
(467.861 3.29671 1.43023e-10)
(467.829 4.24909 -3.1402e-10)
(467.805 4.8092 -4.12676e-10)
(467.773 5.70274 -7.17334e-11)
(467.728 6.35019 1.93568e-10)
(467.704 7.10714 3.28306e-10)
(467.633 7.92225 2.3251e-10)
(467.616 8.4523 3.39046e-10)
(467.519 9.52661 3.55595e-10)
(467.51 9.73263 9.91321e-12)
(467.385 11.1594 -2.15382e-10)
(467.385 10.9495 -2.07502e-10)
(467.233 12.8079 -3.05006e-10)
(467.238 12.116 -1.13263e-10)
(467.067 14.4464 2.46906e-10)
(467.062 13.2619 1.79333e-10)
(466.894 16.0291 -5.64763e-11)
(466.847 14.4443 -1.64593e-10)
(466.724 17.4492 -1.15183e-11)
(466.561 15.8114 1.07895e-10)
(466.151 0.463335 -3.70447e-09)
(466.142 1.26046 1.22589e-09)
(466.138 1.82759 -3.67114e-10)
(466.114 2.77979 1.04673e-10)
(466.106 3.31999 1.50322e-10)
(466.076 4.28263 -3.0892e-10)
(466.055 4.84305 -4.07532e-10)
(466.026 5.74916 -6.43383e-11)
(465.985 6.39518 2.01626e-10)
(465.964 7.16688 2.6778e-10)
(465.898 7.97926 1.70893e-10)
(465.886 8.52574 3.54286e-10)
(465.794 9.59694 3.00691e-10)
(465.792 9.81985 -4.38316e-11)
(465.673 11.2448 -2.02584e-10)
(465.681 11.0499 -1.95332e-10)
(465.535 12.9105 -2.92221e-10)
(465.549 12.2281 -1.00354e-10)
(465.384 14.5692 2.63403e-10)
(465.39 13.3831 1.92619e-10)
(465.227 16.1771 -4.28554e-11)
(465.195 14.5691 -1.53153e-10)
(465.075 17.6443 9.87525e-12)
(464.934 15.9219 1.27328e-10)
(464.34 0.466192 -3.73995e-09)
(464.331 1.26808 1.27876e-09)
(464.327 1.83806 -3.41817e-10)
(464.305 2.79729 4.6418e-11)
(464.298 3.33862 1.50722e-10)
(464.27 4.31045 -2.52933e-10)
(464.252 4.87012 -4.36817e-10)
(464.226 5.78775 -1.13678e-10)
(464.189 6.43119 2.09881e-10)
(464.172 7.21667 3.32188e-10)
(464.111 8.02505 2.21232e-10)
(464.104 8.58714 3.21593e-10)
(464.018 9.65383 3.23185e-10)
(464.022 9.89307 2.96883e-11)
(463.909 11.3146 -2.17926e-10)
(463.924 11.1345 -2.22588e-10)
(463.785 12.9957 -2.64615e-10)
(463.808 12.3229 -8.72535e-11)
(463.649 14.6728 2.65613e-10)
(463.666 13.4854 1.80698e-10)
(463.508 16.3035 -7.27916e-11)
(463.49 14.6732 -1.35006e-10)
(463.373 17.8109 1.75203e-11)
(463.255 16.0107 5.89565e-11)
(462.476 0.468382 -3.78454e-09)
(462.467 1.27409 1.21432e-09)
(462.465 1.84597 -3.77441e-10)
(462.444 2.81116 3.17525e-11)
(462.439 3.35265 8.92424e-11)
(462.413 4.33262 -3.63811e-10)
(462.397 4.89049 -4.45757e-10)
(462.374 5.8186 -2.01953e-11)
(462.341 6.45833 2.60638e-10)
(462.328 7.25662 3.40953e-10)
(462.271 8.05972 2.50845e-10)
(462.269 8.63657 3.71796e-10)
(462.188 9.69728 3.31692e-10)
(462.199 9.95222 -4.74831e-12)
(462.092 11.3687 -2.2631e-10)
(462.115 11.2032 -2.10114e-10)
(461.981 13.0631 -2.95063e-10)
(462.014 12.4002 -1.52722e-10)
(461.861 14.7568 2.15968e-10)
(461.889 13.5688 1.62057e-10)
(461.738 16.4083 -6.64469e-11)
(461.733 14.7573 -1.03659e-10)
(461.619 17.9492 7.70816e-11)
(461.524 16.0771 1.35506e-10)
(460.56 0.469907 -3.82956e-09)
(460.551 1.27849 1.22831e-09)
(460.55 1.85136 -3.4516e-10)
(460.53 2.82144 2.46794e-11)
(460.526 3.36212 1.09987e-10)
(460.502 4.34916 -3.14093e-10)
(460.49 4.9042 -4.40719e-10)
(460.47 5.84179 -5.5787e-11)
(460.44 6.47666 1.77103e-10)
(460.431 7.28683 2.85568e-10)
(460.378 8.08336 2.30631e-10)
(460.381 8.67415 3.10519e-10)
(460.306 9.72736 2.96662e-10)
(460.322 9.99737 -1.2137e-11)
(460.221 11.4071 -2.05755e-10)
(460.252 11.2558 -1.63763e-10)
(460.125 13.1125 -2.88822e-10)
(460.167 12.4595 -1.19772e-10)
(460.021 14.8209 2.84644e-10)
(460.06 13.633 1.75531e-10)
(459.915 16.4915 -9.75125e-11)
(459.923 14.8218 -1.61934e-10)
(459.813 18.0599 4.00444e-11)
(459.739 16.1217 1.23203e-10)
(458.591 0.470763 -3.77671e-09)
(458.583 1.28128 1.25839e-09)
(458.582 1.85422 -3.67725e-10)
(458.563 2.8281 3.9963e-11)
(458.561 3.36701 9.64404e-11)
(458.539 4.36007 -2.93622e-10)
(458.529 4.91126 -4.63876e-10)