/*--------------------------------*- C++ -*----------------------------------*\
  =========                 |
  \\      /  F ield         | OpenFOAM: The Open Source CFD Toolbox
   \\    /   O peration     | Website:  https://openfoam.org
    \\  /    A nd           | Version:  10
     \\/     M anipulation  |
\*---------------------------------------------------------------------------*/
FoamFile
{
    format      ascii;
    class       surfaceScalarField;
    location    "0.4";
    object      phi;
}
// * * * * * * * * * * * * * * * * * * * * * * * * * * * * * * * * * * * * * //

dimensions      [1 0 -1 0 0 0 0];

internalField   nonuniform List<scalar> 
8154
(
-5.848e-09
-2.22351e-08
-5.70498e-08
-9.23783e-08
-1.71984e-07
-2.26498e-07
-3.69947e-07
-4.53698e-07
-6.73715e-07
-8.13297e-07
-1.10452e-06
-1.33775e-06
-1.66809e-06
-2.02738e-06
-2.36023e-06
-2.8662e-06
-3.25613e-06
-3.9838e-06
-4.55649e-06
-5.50524e-06
-6.81982e-06
-7.26025e-06
-6.8388e-06
-0.000277438
-0.00083237
2.39974e-08
-0.00138746
9.61029e-08
-0.00194289
2.13069e-07
-0.00249866
3.77584e-07
-0.00305504
5.76719e-07
-0.00361201
8.23029e-07
-0.00416974
1.08848e-06
-0.00472844
1.3981e-06
-0.00528791
1.7119e-06
-0.00584877
2.05671e-06
-0.00641057
2.40265e-06
-0.00697377
2.74786e-06
-0.00753866
3.12039e-06
-0.0081041
3.43651e-06
-0.00867313
3.85103e-06
-0.00924021
4.12628e-06
-0.0098149
4.57352e-06
-0.0103832
4.92714e-06
-0.0109646
5.14416e-06
-0.0115338
5.28315e-06
-0.0121234
5.11808e-06
-0.0126948
4.03666e-06
-0.0132929
2.45381e-06
-0.000277462
-0.000832442
2.63043e-08
-0.00138758
1.04629e-07
-0.00194305
2.34424e-07
-0.00249886
4.09659e-07
-0.00305528
6.34602e-07
-0.00361228
8.89071e-07
-0.00417005
1.19464e-06
-0.00472875
1.50144e-06
-0.00528825
1.86771e-06
-0.00584912
2.19125e-06
-0.00641091
2.59318e-06
-0.00697414
2.89256e-06
-0.00753898
3.2992e-06
-0.00810451
3.53977e-06
-0.00867341
3.90557e-06
-0.00924065
4.10533e-06
-0.00981525
4.39029e-06
-0.0103834
5.00419e-06
-0.0109647
4.67138e-06
-0.0115337
5.23606e-06
-0.0121224
5.33401e-06
-0.0126933
5.04568e-06
-0.0132905
4.23297e-06
-0.000277489
-0.00083252
2.12364e-08
-0.00138771
8.47273e-08
-0.00194323
1.87724e-07
-0.00249909
3.2998e-07
-0.00305554
5.01233e-07
-0.00361258
7.06817e-07
-0.00417035
9.22587e-07
-0.00472912
1.16669e-06
-0.00528858
1.39474e-06
-0.00584952
1.64236e-06
-0.00641121
1.84622e-06
-0.00697455
2.04969e-06
-0.00753922
2.19778e-06
-0.00810488
2.28465e-06
-0.0086736
2.35545e-06
-0.00924094
2.20748e-06
-0.00981586
2.34415e-06
-0.0103831
1.90142e-06
-0.0109653
1.7882e-06
-0.0115337
1.39548e-06
-0.0121221
1.15405e-06
-0.0126924
7.25564e-07
-0.0132863
5.20856e-07
-0.00027751
-0.000832584
2.54664e-08
-0.00138781
1.01672e-07
-0.00194337
2.25664e-07
-0.00249926
3.97242e-07
-0.00305574
6.04944e-07
-0.0036128
8.55122e-07
-0.0041706
1.11936e-06
-0.00472935
1.42079e-06
-0.00528882
1.70302e-06
-0.00584973
2.01736e-06
-0.00641142
2.27205e-06
-0.0069747
2.54836e-06
-0.00753931
2.73426e-06
-0.00810495
2.89611e-06
-0.00867346
2.98737e-06
-0.00924108
2.89911e-06
-0.00981541
2.97547e-06
-0.010383
2.28545e-06
-0.0109649
2.52309e-06
-0.0115335
1.72782e-06
-0.0121217
1.20614e-06
-0.0126922
3.839e-07
-0.0132857
-1.67584e-07
-0.000277535
-0.00083266
3.35773e-08
-0.00138793
1.34025e-07
-0.00194354
2.98793e-07
-0.00249947
5.25886e-07
-0.00305599
8.07273e-07
-0.00361306
1.14115e-06
-0.0041709
1.5118e-06
-0.00472963
1.9193e-06
-0.00528914
2.33947e-06
-0.00584998
2.77379e-06
-0.00641169
3.19416e-06
-0.00697488
3.5961e-06
-0.00753947
3.96495e-06
-0.00810504
4.25991e-06
-0.00867337
4.52436e-06
-0.00924116
4.61682e-06
-0.00981471
4.73205e-06
-0.0103832
4.40262e-06
-0.0109641
4.36982e-06
-0.011533
3.67446e-06
-0.0121208
3.2134e-06
-0.0126917
2.27348e-06
-0.0132859
1.35122e-06
-0.000277569
-0.00083276
3.75e-08
-0.0013881
1.49693e-07
-0.00194377
3.33995e-07
-0.00249975
5.87933e-07
-0.00305633
9.03726e-07
-0.00361343
1.27787e-06
-0.0041713
1.696e-06
-0.00473005
2.15405e-06
-0.00528957
2.63133e-06
-0.0058504
3.12141e-06
-0.00641209
3.6025e-06
-0.00697525
4.05845e-06
-0.00753976
4.48261e-06
-0.00810531
4.82277e-06
-0.00867346
5.12631e-06
-0.00924127
5.25166e-06
-0.00981438
5.37112e-06
-0.0103832
5.0843e-06
-0.0109634
4.96888e-06
-0.0115325
4.2175e-06
-0.0121199
3.68168e-06
-0.0126908
2.64139e-06
-0.0132846
1.6131e-06
-0.000277607
-0.000832872
4.13373e-08
-0.00138828
1.65023e-07
-0.00194402
3.68301e-07
-0.00250007
6.48464e-07
-0.0030567
9.97253e-07
-0.00361385
1.41079e-06
-0.00417176
1.87383e-06
-0.00473053
2.38195e-06
-0.00529006
2.91268e-06
-0.00585088
3.45947e-06
-0.00641255
3.99672e-06
-0.00697567
4.50949e-06
-0.0075401
4.98354e-06
-0.00810561
5.37206e-06
-0.00867358
5.70939e-06
-0.00924139
5.8644e-06
-0.00981409
5.9988e-06
-0.0103831
5.72072e-06
-0.0109627
5.59817e-06
-0.0115319
4.81184e-06
-0.0121189
4.20673e-06
-0.0126897
2.99176e-06
-0.0132829
1.79464e-06
-0.000277648
-0.000832996
4.50405e-08
-0.00138849
1.79795e-07
-0.0019443
4.01312e-07
-0.00250042
7.06493e-07
-0.00305711
1.08674e-06
-0.00361432
1.53734e-06
-0.00417227
2.04291e-06
-0.00473106
2.59754e-06
-0.00529061
3.17901e-06
-0.00585142
3.77815e-06
-0.00641306
4.36961e-06
-0.00697615
4.93463e-06
-0.00754049
5.45788e-06
-0.00810595
5.88996e-06
-0.00867374
6.26e-06
-0.00924153
6.44285e-06
-0.0098138
6.58235e-06
-0.010383
6.33046e-06
-0.0109619
6.17719e-06
-0.0115313
5.37474e-06
-0.0121177
4.83281e-06
-0.0126885
3.36352e-06
-0.0132812
2.01525e-06
-0.000277693
-0.000833131
4.86976e-08
-0.00138871
1.9437e-07
-0.00194461
4.33825e-07
-0.0025008
7.63534e-07
-0.00305756
1.1744e-06
-0.00361482
1.66096e-06
-0.00417282
2.20735e-06
-0.00473164
2.80659e-06
-0.00529121
3.43611e-06
-0.00585201
4.08525e-06
-0.00641363
4.72796e-06
-0.00697667
5.34341e-06
-0.00754092
5.91379e-06
-0.00810632
6.38842e-06
-0.00867392
6.7898e-06
-0.00924167
6.99776e-06
-0.00981355
7.13742e-06
-0.0103828
6.90461e-06
-0.0109611
6.72772e-06
-0.0115307
5.91175e-06
-0.0121163
4.86205e-06
-0.0126872
3.71268e-06
-0.0132791
2.20834e-06
-0.000277742
-0.000833277
5.23063e-08
-0.00138895
2.08748e-07
-0.00194493
4.65872e-07
-0.00250121
8.19701e-07
-0.00305805
1.26056e-06
-0.00361537
1.78218e-06
-0.00417342
2.36804e-06
-0.00473227
3.01011e-06
-0.00529186
3.68528e-06
-0.00585265
4.38163e-06
-0.00641424
5.07243e-06
-0.00697724
5.73532e-06
-0.0075414
6.35034e-06
-0.00810672
6.86584e-06
-0.00867413
7.298e-06
-0.00924181
7.52921e-06
-0.00981331
7.66761e-06
-0.0103827
7.4498e-06
-0.0109602
7.24947e-06
-0.01153
6.39571e-06
-0.0121148
5.60171e-06
-0.0126857
4.03334e-06
-0.0132769
2.39978e-06
-0.000277794
-0.000833433
5.588e-08
-0.00138921
2.22989e-07
-0.00194529
4.97624e-07
-0.00250165
8.75372e-07
-0.00305857
1.34595e-06
-0.00361596
1.90224e-06
-0.00417406
2.52691e-06
-0.00473294
3.21083e-06
-0.00529255
3.93003e-06
-0.00585335
4.67146e-06
-0.0064149
5.40743e-06
-0.00697786
6.11471e-06
-0.00754192
6.7712e-06
-0.00810715
7.32525e-06
-0.00867436
7.78738e-06
-0.00924195
8.04306e-06
-0.0098131
8.18753e-06
-0.0103825
7.97179e-06
-0.0109594
7.74429e-06
-0.0115292
6.86284e-06
-0.0121132
6.01012e-06
-0.012684
4.35735e-06
-0.0132745
2.58546e-06
-0.00027785
-0.0008336
5.94098e-08
-0.00138948
2.37064e-07
-0.00194567
5.29035e-07
-0.00250212
9.30514e-07
-0.00305913
1.43062e-06
-0.00361658
2.0214e-06
-0.00417475
2.68461e-06
-0.00473366
3.40991e-06
-0.00529329
4.17221e-06
-0.00585408
4.95721e-06
-0.00641561
5.73601e-06
-0.00697851
6.48467e-06
-0.00754247
7.17903e-06
-0.00810761
7.76811e-06
-0.00867462
8.25734e-06
-0.0092421
8.5359e-06
-0.00981288
8.68694e-06
-0.0103822
8.46895e-06
-0.0109585
8.20698e-06
-0.0115284
7.28721e-06
-0.0121116
6.37731e-06
-0.0126823
4.65174e-06
-0.013272
2.75576e-06
-0.000277909
-0.000833778
6.28941e-08
-0.00138977
2.50963e-07
-0.00194607
5.60085e-07
-0.00250262
9.851e-07
-0.00305972
1.51456e-06
-0.00361725
2.13975e-06
-0.00417547
2.84144e-06
-0.00473443
3.60805e-06
-0.00529408
4.41314e-06
-0.00585486
5.24103e-06
-0.00641636
6.06121e-06
-0.00697921
6.84899e-06
-0.00754306
7.57802e-06
-0.0081081
8.19839e-06
-0.00867489
8.71105e-06
-0.00924225
9.00935e-06
-0.00981266
9.1645e-06
-0.010382
8.94701e-06
-0.0109576
8.64527e-06
-0.0115275
7.68011e-06
-0.0121098
6.7094e-06
-0.0126804
4.89518e-06
-0.0132692
2.90286e-06
-0.000277972
-0.000833966
6.6334e-08
-0.00139008
2.64686e-07
-0.00194649
5.90749e-07
-0.00250315
1.03905e-06
-0.00306034
1.59761e-06
-0.00361795
2.25699e-06
-0.00417624
2.99702e-06
-0.00473523
3.80493e-06
-0.0052949
4.65279e-06
-0.00585568
5.52342e-06
-0.00641714
6.38443e-06
-0.00697993
7.21007e-06
-0.00754368
7.97151e-06
-0.00810861
8.61985e-06
-0.00867519
9.15188e-06
-0.00924241
9.46587e-06
-0.00981245
9.62346e-06
-0.0103817
9.40835e-06
-0.0109566
9.06482e-06
-0.0115265
8.05532e-06
-0.012108
7.01411e-06
-0.0126784
5.05435e-06
-0.0132663
3.02878e-06
-0.000278038
-0.000834164
6.97364e-08
-0.00139041
2.78251e-07
-0.00194694
6.21045e-07
-0.00250371
1.09232e-06
-0.003061
1.67958e-06
-0.00361869
2.37273e-06
-0.00417704
3.1507e-06
-0.00473608
3.99961e-06
-0.00529577
4.89012e-06
-0.00585654
5.8035e-06
-0.00641797
6.70538e-06
-0.0069807
7.56865e-06
-0.00754433
8.36167e-06
-0.00810915
9.03599e-06
-0.0086755
9.58401e-06
-0.00924257
9.90883e-06
-0.00981223
1.00648e-05
-0.0103813
9.84956e-06
-0.0109556
9.46521e-06
-0.0115254
8.41723e-06
-0.0121061
7.31362e-06
-0.0126763
5.2745e-06
-0.0132633
3.16056e-06
-0.000278108
-0.000834372
7.31042e-08
-0.00139075
2.91672e-07
-0.00194741
6.50974e-07
-0.0025043
1.14485e-06
-0.00306169
1.76028e-06
-0.00361947
2.48651e-06
-0.00417789
3.30162e-06
-0.00473697
4.19078e-06
-0.00529669
5.12334e-06
-0.00585744
6.07917e-06
-0.00641883
7.02197e-06
-0.00698149
7.92314e-06
-0.007545
8.74815e-06
-0.00810969
9.44831e-06
-0.00867583
1.00112e-05
-0.00924273
1.03435e-05
-0.00981202
1.04914e-05
-0.0103809
1.0263e-05
-0.0109546
9.84475e-06
-0.0115243
8.75986e-06
-0.012104
7.59509e-06
-0.0126742
5.49247e-06
-0.0132601
3.28303e-06
-0.000278181
-0.000834591
7.64285e-08
-0.00139111
3.04907e-07
-0.0019479
6.80436e-07
-0.00250491
1.19644e-06
-0.00306242
1.83932e-06
-0.00362028
2.59765e-06
-0.00417878
3.44871e-06
-0.00473791
4.37681e-06
-0.00529764
5.35014e-06
-0.00585838
6.34742e-06
-0.00641973
7.33064e-06
-0.00698231
8.2698e-06
-0.0075457
9.12756e-06
-0.00811026
9.85465e-06
-0.00867616
1.04336e-05
-0.00924288
1.07739e-05
-0.00981179
1.09123e-05
-0.0103805
1.06673e-05
-0.0109535
1.02142e-05
-0.0115231
9.09293e-06
-0.012102
7.86636e-06
-0.012672
5.69257e-06
-0.0132568
3.39716e-06
-0.000278258
-0.000834819
7.96839e-08
-0.00139149
3.17855e-07
-0.00194842
7.09218e-07
-0.00250556
1.24674e-06
-0.00306318
1.91618e-06
-0.00362114
2.70543e-06
-0.00417971
3.59093e-06
-0.00473888
4.5562e-06
-0.00529864
5.56841e-06
-0.00585937
6.60537e-06
-0.00642067
7.62763e-06
-0.00698317
8.60406e-06
-0.00754643
9.49489e-06
-0.00811084
1.02501e-05
-0.0086765
1.08474e-05
-0.00924302
1.11976e-05
-0.00981154
1.13289e-05
-0.0103801
1.10692e-05
-0.0109524
1.05771e-05
-0.0115219
9.42258e-06
-0.0120998
8.13434e-06
-0.0126697
5.8868e-06
-0.0132534
3.50558e-06
-0.000278337
-0.000835057
8.28131e-08
-0.00139188
3.30297e-07
-0.00194896
7.36864e-07
-0.00250623
1.29502e-06
-0.00306397
1.98986e-06
-0.00362202
2.80856e-06
-0.00418067
3.72669e-06
-0.00473989
4.727e-06
-0.00529968
5.77567e-06
-0.00586039
6.84979e-06
-0.00642164
7.90874e-06
-0.00698406
8.92061e-06
-0.00754719
9.84365e-06
-0.00811143
1.06273e-05
-0.00867685
1.1245e-05
-0.00924316
1.16083e-05
-0.00981128
1.17364e-05
-0.0103796
1.14648e-05
-0.0109512
1.09336e-05
-0.0115206
9.75246e-06
-0.0120976
8.40448e-06
-0.0126674
6.08065e-06
-0.0132499
3.61148e-06
-0.00027842
-0.000835305
8.57394e-08
-0.00139229
3.41939e-07
-0.00194952
7.62756e-07
-0.00250692
1.34028e-06
-0.00306479
2.059e-06
-0.00362294
2.90535e-06
-0.00418167
3.85403e-06
-0.00474094
4.88698e-06
-0.00530075
5.96939e-06
-0.00586145
7.07768e-06
-0.00642265
8.17021e-06
-0.00698498
9.21456e-06
-0.00754797
1.01675e-05
-0.00811205
1.09784e-05
-0.00867721
1.16171e-05
-0.00924329
1.19962e-05
-0.00981101
1.21262e-05
-0.010379
1.18474e-05
-0.01095
1.12814e-05
-0.0115193
1.00817e-05
-0.0120952
8.67902e-06
-0.0126649
6.28023e-06
-0.0132462
3.71922e-06
-0.000278506
-0.000835561
8.83745e-08
-0.00139271
3.52437e-07
-0.00195009
7.86159e-07
-0.00250764
1.38131e-06
-0.00306563
2.12186e-06
-0.00362389
2.9936e-06
-0.0041827
3.97039e-06
-0.00474202
5.03329e-06
-0.00530186
6.14651e-06
-0.00586254
7.2857e-06
-0.0064237
8.40827e-06
-0.00698594
9.4814e-06
-0.00754878
1.04607e-05
-0.00811269
1.12958e-05
-0.00867759
1.19541e-05
-0.00924342
1.23492e-05
-0.00981073
1.24853e-05
-0.0103784
1.22068e-05
-0.0109488
1.16205e-05
-0.0115179
1.04026e-05
-0.0120929
8.94994e-06
-0.0126624
6.48665e-06
-0.0132425
3.83181e-06
-0.000278594
-0.000835825
9.06327e-08
-0.00139314
3.61453e-07
-0.00195069
8.06329e-07
-0.00250838
1.41683e-06
-0.0030665
2.17658e-06
-0.00362487
3.07083e-06
-0.00418377
4.07269e-06
-0.00474314
5.16243e-06
-0.005303
6.30321e-06
-0.00586366
7.46986e-06
-0.00642477
8.61876e-06
-0.00698691
9.71661e-06
-0.00754962
1.07181e-05
-0.00811335
1.15732e-05
-0.00867799
1.22474e-05
-0.00924356
1.26561e-05
-0.00981046
1.27983e-05
-0.0103779
1.25237e-05
-0.0109476
1.1928e-05
-0.0115164
1.06933e-05
-0.0120904
9.19835e-06
-0.0126597
6.68996e-06
-0.0132386
3.94643e-06
-0.000278685
-0.000836096
9.24447e-08
-0.00139358
3.68705e-07
-0.0019513
8.22622e-07
-0.00250914
1.44569e-06
-0.0030674
2.22132e-06
-0.00362587
3.13442e-06
-0.00418486
4.15757e-06
-0.00474428
5.27031e-06
-0.00530416
6.43487e-06
-0.00586481
7.62523e-06
-0.00642587
8.79657e-06
-0.00698791
9.91502e-06
-0.00755047
1.09343e-05
-0.00811402
1.18046e-05
-0.0086784
1.249e-05
-0.00924371
1.29081e-05
-0.00981018
1.30534e-05
-0.0103773
1.27807e-05
-0.0109464
1.21745e-05
-0.0115149
1.09301e-05
-0.0120879
9.39885e-06
-0.012657
6.86445e-06
-0.0132347
4.04712e-06
-0.000278777
-0.000836372
9.3763e-08
-0.00139404
3.73996e-07
-0.00195192
8.34556e-07
-0.00250992
1.46695e-06
-0.00306831
2.25452e-06
-0.00362689
3.18202e-06
-0.00418597
4.22168e-06
-0.00474544
5.35262e-06
-0.00530535
6.53627e-06
-0.00586598
7.74586e-06
-0.00642699
8.9354e-06
-0.00698893
1.00703e-05
-0.00755134
1.11029e-05
-0.00811471
1.19837e-05
-0.00867882
1.26754e-05
-0.00924385
1.30977e-05
-0.00980991
1.32419e-05
-0.0103766
1.29676e-05
-0.0109451
1.23488e-05
-0.0115134
1.10975e-05
-0.0120854
9.52482e-06
-0.0126542
6.96581e-06
-0.0132306
4.1013e-06
-0.000278871
-0.000836653
9.4577e-08
-0.0013945
3.7727e-07
-0.00195255
8.41969e-07
-0.0025107
1.48022e-06
-0.00306924
2.27541e-06
-0.00362793
3.21226e-06
-0.0041871
4.2629e-06
-0.00474663
5.40633e-06
-0.00530656
6.60339e-06
-0.00586717
7.82707e-06
-0.00642812
9.02994e-06
-0.00698996
1.01772e-05
-0.00755223
1.12191e-05
-0.0081154
1.21069e-05
-0.00867924
1.28001e-05
-0.009244
1.32226e-05
-0.00980964
1.33599e-05
-0.010376
1.30807e-05
-0.0109439
1.24472e-05
-0.0115118
1.11912e-05
-0.0120828
9.56616e-06
-0.0126513
6.95668e-06
-0.0132266
4.08328e-06
-0.000278966
-0.000836935
9.52675e-08
-0.00139496
3.80042e-07
-0.00195319
8.48231e-07
-0.0025115
1.49142e-06
-0.00307017
2.29303e-06
-0.00362898
3.2379e-06
-0.00418824
4.29819e-06
-0.00474782
5.45305e-06
-0.00530779
6.66318e-06
-0.00586838
7.90152e-06
-0.00642927
9.11994e-06
-0.00699101
1.02831e-05
-0.00755311
1.13399e-05
-0.00811609
1.22411e-05
-0.00867966
1.29438e-05
-0.00924414
1.33738e-05
-0.00980936
1.3513e-05
-0.0103754
1.3236e-05
-0.0109426
1.25968e-05
-0.0115102
1.1342e-05
-0.0120802
9.68612e-06
-0.0126484
7.04821e-06
-0.0132225
4.19009e-06
-0.000279061
-0.00083722
9.55673e-08
-0.00139543
3.81243e-07
-0.00195383
8.50936e-07
-0.0025123
1.49624e-06
-0.00307112
2.30064e-06
-0.00363004
3.24905e-06
-0.0041894
4.31386e-06
-0.00474903
5.47446e-06
-0.00530902
6.69186e-06
-0.0058696
7.93924e-06
-0.00643043
9.16846e-06
-0.00699206
1.03439e-05
-0.00755402
1.14138e-05
-0.0081168
1.23278e-05
-0.00868009
1.30412e-05
-0.00924427
1.34797e-05
-0.00980908
1.36227e-05
-0.0103747
1.3348e-05
-0.0109414
1.27036e-05
-0.0115086
1.1447e-05
-0.0120776
9.78456e-06
-0.0126455
7.13246e-06
-0.0132183
4.36726e-06
-0.000279157
-0.000837506
9.53658e-08
-0.0013959
3.80436e-07
-0.00195448
8.49113e-07
-0.0025131
1.493e-06
-0.00307207
2.29561e-06
-0.00363111
3.24198e-06
-0.00419056
4.30471e-06
-0.00475025
5.46358e-06
-0.00531027
6.68002e-06
-0.00587083
7.92787e-06
-0.00643161
9.15942e-06
-0.00699313
1.03394e-05
-0.00755493
1.14162e-05
-0.00811751
1.23386e-05
-0.00868053
1.30604e-05
-0.00924442
1.35062e-05
-0.0098088
1.36527e-05
-0.0103741
1.33792e-05
-0.0109401
1.27282e-05
-0.0115069
1.14729e-05
-0.0120749
9.80654e-06
-0.0126426
7.18362e-06
-0.0132141
3.95015e-06
-0.000279252
-0.000837791
9.46997e-08
-0.00139637
3.77775e-07
-0.00195512
8.43146e-07
-0.00251391
1.48244e-06
-0.00307301
2.27925e-06
-0.00363217
3.21875e-06
-0.00419171
4.27374e-06
-0.00475147
5.42439e-06
-0.00531152
6.6326e-06
-0.00587206
7.87302e-06
-0.00643279
9.09868e-06
-0.00699421
1.02754e-05
-0.00755585
1.1352e-05
-0.00811824
1.22777e-05
-0.00868097
1.30054e-05
-0.00924456
1.34591e-05
-0.00980853
1.36117e-05
-0.0103734
1.33426e-05
-0.0109388
1.26868e-05
-0.0115053
1.14309e-05
-0.0120723
9.75262e-06
-0.0126397
7.1622e-06
-0.0132098
3.9194e-06
-0.000279347
-0.000838074
9.35947e-08
-0.00139684
3.73371e-07
-0.00195576
8.33316e-07
-0.0025147
1.46516e-06
-0.00307395
2.25263e-06
-0.00363322
3.18112e-06
-0.00419287
4.22366e-06
-0.00475268
5.3608e-06
-0.00531276
6.55483e-06
-0.00587328
7.78121e-06
-0.00643397
8.99372e-06
-0.00699528
1.01595e-05
-0.00755678
1.12283e-05
-0.00811897
1.21511e-05
-0.00868142
1.28808e-05
-0.00924471
1.33417e-05
-0.00980825
1.35045e-05
-0.0103728
1.32472e-05
-0.0109376
1.25972e-05
-0.0115036
1.13444e-05
-0.0120697
9.64603e-06
-0.0126368
7.08673e-06
-0.0132055
4.19972e-06
-0.000279441
-0.000838354
9.20769e-08
-0.0013973
3.67332e-07
-0.00195639
8.19883e-07
-0.00251549
1.44165e-06
-0.00307488
2.21662e-06
-0.00363427
3.13054e-06
-0.004194
4.15675e-06
-0.00475387
5.27621e-06
-0.00531399
6.45157e-06
-0.0058745
7.65895e-06
-0.00643513
8.8527e-06
-0.00699635
1.00012e-05
-0.0075577
1.10553e-05
-0.0081197
1.19681e-05
-0.00868188
1.26935e-05
-0.00924488
1.31581e-05
-0.00980799
1.33322e-05
-0.0103721
1.30934e-05
-0.0109363
1.24637e-05
-0.0115019
1.12332e-05
-0.0120671
9.54251e-06
-0.0126339
7.01613e-06
-0.0132014
4.16468e-06
-0.000279533
-0.000838629
9.01849e-08
-0.00139775
3.59812e-07
-0.00195701
8.0318e-07
-0.00251626
1.41249e-06
-0.00307579
2.17214e-06
-0.00363529
3.06833e-06
-0.00419512
4.07493e-06
-0.00475505
5.17339e-06
-0.0053152
6.32678e-06
-0.00587569
7.51183e-06
-0.00643628
8.68318e-06
-0.0069974
9.81019e-06
-0.00755861
1.08442e-05
-0.00812043
1.17408e-05
-0.00868234
1.24551e-05
-0.00924505
1.29173e-05
-0.00980775
1.30987e-05
-0.0103715
1.28791e-05
-0.0109351
1.22781e-05
-0.0115002
1.10865e-05
-0.0120646
9.43246e-06
-0.012631
6.93589e-06
-0.0131972
4.11956e-06
-0.000279623
-0.000838898
8.79758e-08
-0.00139819
3.51031e-07
-0.00195762
7.8368e-07
-0.00251702
1.37846e-06
-0.00307669
2.12029e-06
-0.0036363
2.99597e-06
-0.00419622
3.98004e-06
-0.0047562
5.05468e-06
-0.00531638
6.18357e-06
-0.00587686
7.34406e-06
-0.00643741
8.49103e-06
-0.00699844
9.59445e-06
-0.00755951
1.06057e-05
-0.00812115
1.14823e-05
-0.0086828
1.21802e-05
-0.00924523
1.26332e-05
-0.00980753
1.28148e-05
-0.0103709
1.26092e-05
-0.0109339
1.20373e-05
-0.0114986
1.08922e-05
-0.0120621
9.2888e-06
-0.0126282
6.85574e-06
-0.0131931
4.06477e-06
-0.000279711
-0.000839161
8.55224e-08
-0.00139862
3.41274e-07
-0.00195822
7.6199e-07
-0.00251777
1.34057e-06
-0.00307756
2.0625e-06
-0.00363728
2.91525e-06
-0.0041973
3.8742e-06
-0.00475733
4.92242e-06
-0.00531754
6.02451e-06
-0.00587801
7.15863e-06
-0.00643852
8.28005e-06
-0.00699945
9.35927e-06
-0.00756039
1.03473e-05
-0.00812185
1.12033e-05
-0.00868325
1.18828e-05
-0.00924542
1.23228e-05
-0.00980733
1.24974e-05
-0.0103703
1.22973e-05
-0.0109328
1.17468e-05
-0.011497
1.06459e-05
-0.0120597
9.10629e-06
-0.0126254
6.77359e-06
-0.013189
4.00499e-06
-0.000279796
-0.000839417
8.29057e-08
-0.00139905
3.30857e-07
-0.0019588
7.38801e-07
-0.00251849
1.29998e-06
-0.00307842
2.00043e-06
-0.00363824
2.82832e-06
-0.00419834
3.75989e-06
-0.00475843
4.77925e-06
-0.00531868
5.85221e-06
-0.00587913
6.95801e-06
-0.00643959
8.05261e-06
-0.00700044
9.10729e-06
-0.00756124
1.0073e-05
-0.00812254
1.09098e-05
-0.00868369
1.15727e-05
-0.00924559
1.2e-05
-0.00980713
1.21652e-05
-0.0103698
1.19638e-05
-0.0109317
1.14226e-05
-0.0114954
1.03519e-05
-0.0120573
8.87168e-06
-0.0126227
6.6468e-06
-0.013185
3.92835e-06
-0.000279879
-0.000839665
8.02004e-08
-0.00139945
3.20078e-07
-0.00195936
7.14765e-07
-0.00251919
1.25782e-06
-0.00307924
1.93575e-06
-0.00363917
2.73739e-06
-0.00419936
3.6398e-06
-0.0047595
4.62821e-06
-0.00531978
5.66967e-06
-0.00588022
6.74482e-06
-0.00644065
7.81063e-06
-0.0070014
8.83959e-06
-0.00756208
9.78301e-06
-0.0081232
1.06024e-05
-0.00868411
1.12523e-05
-0.00924576
1.16712e-05
-0.00980693
1.18309e-05
-0.0103692
1.16289e-05
-0.0109306
1.10915e-05
-0.0114939
1.00367e-05
-0.0120551
8.58841e-06
-0.0126199
6.41946e-06
-0.0131811
3.81785e-06
-0.000279959
-0.000839904
7.74632e-08
-0.00139985
3.09164e-07
-0.0019599
6.904e-07
-0.00251986
1.21499e-06
-0.00308005
1.86986e-06
-0.00364008
2.64443e-06
-0.00420035
3.51648e-06
-0.00476055
4.47228e-06
-0.00532086
5.48011e-06
-0.00588129
6.52206e-06
-0.00644168
7.55644e-06
-0.00700235
8.55721e-06
-0.0075629
9.47685e-06
-0.00812386
1.02788e-05
-0.00868452
1.09179e-05
-0.00924593
1.1333e-05
-0.00980673
1.14947e-05
-0.0103687
1.12997e-05
-0.0109296
1.07727e-05
-0.0114925
9.73465e-06
-0.0120529
8.30936e-06
-0.0126174
6.18737e-06
-0.0131773
3.67496e-06
-0.000280037
-0.000840136
7.47254e-08
-0.00140023
2.98242e-07
-0.00196042
6.65996e-07
-0.00252052
1.17204e-06
-0.00308082
1.80367e-06
-0.00364095
2.55077e-06
-0.00420131
3.39176e-06
-0.00476155
4.31383e-06
-0.0053219
5.28634e-06
-0.00588232
6.29276e-06
-0.00644268
7.29276e-06
-0.00700327
8.26195e-06
-0.0075637
9.15438e-06
-0.0081245
9.93606e-06
-0.00868493
1.05634e-05
-0.00924609
1.09758e-05
-0.00980654
1.11455e-05
-0.0103682
1.09665e-05
-0.0109285
1.04638e-05
-0.0114911
9.4529e-06
-0.0120508
8.05455e-06
-0.0126148
5.97079e-06
-0.0131736
3.48931e-06
-0.000280112
-0.000840359
7.19867e-08
-0.0014006
2.87315e-07
-0.00196093
6.41574e-07
-0.00252115
1.12903e-06
-0.00308157
1.7373e-06
-0.00364179
2.4567e-06
-0.00420223
3.26621e-06
-0.00476253
4.15378e-06
-0.0053229
5.08975e-06
-0.00588332
6.05871e-06
-0.00644365
7.02155e-06
-0.00700417
7.95551e-06
-0.00756448
8.81635e-06
-0.00812512
9.57275e-06
-0.00868534
1.01834e-05
-0.00924627
1.05891e-05
-0.00980636
1.07671e-05
-0.0103677
1.0608e-05
-0.0109275
1.01436e-05
-0.0114897
9.17721e-06
-0.0120487
7.8324e-06
-0.0126124
5.79086e-06
-0.0131701
3.31598e-06
-0.000280183
-0.000840574
6.92266e-08
-0.00140095
2.76302e-07
-0.00196142
6.16954e-07
-0.00252176
1.08565e-06
-0.00308229
1.67032e-06
-0.0036426
2.36171e-06
-0.00420312
3.13927e-06
-0.00476346
3.99164e-06
-0.00532387
4.89004e-06
-0.00588429
5.81994e-06
-0.00644458
6.74335e-06
-0.00700503
7.6388e-06
-0.00756524
8.46378e-06
-0.00812574
9.18901e-06
-0.00868575
9.77575e-06
-0.00924645
1.01665e-05
-0.0098062
1.03461e-05
-0.0103672
1.02017e-05
-0.0109265
9.77892e-06
-0.0114883
8.86578e-06
-0.0120467
7.60547e-06
-0.0126099
5.6449e-06
-0.0131668
3.29195e-06
-0.000280253
-0.000840781
6.63979e-08
-0.00140129
2.65016e-07
-0.00196189
5.91717e-07
-0.00252234
1.04116e-06
-0.00308298
1.60159e-06
-0.00364338
2.26418e-06
-0.00420397
3.0089e-06
-0.00476436
3.82497e-06
-0.0053248
4.68446e-06
-0.00588521
5.57353e-06
-0.00644548
6.45539e-06
-0.00700585
7.30943e-06
-0.00756597
8.0949e-06
-0.00812632
8.7835e-06
-0.00868614
9.33909e-06
-0.00924663
9.70507e-06
-0.00980605
9.87563e-06
-0.0103668
9.73379e-06
-0.0109256
9.34235e-06
-0.0114871
8.47325e-06
-0.0120447
7.30178e-06
-0.0126075
5.43259e-06
-0.0131635
3.22663e-06
-0.000280319
-0.00084098
6.34351e-08
-0.00140162
2.53184e-07
-0.00196234
5.6524e-07
-0.0025229
9.94448e-07
-0.00308364
1.52939e-06
-0.00364412
2.16169e-06
-0.00420479
2.87182e-06
-0.00476522
3.64969e-06
-0.00532569
4.46793e-06
-0.00588609
5.31381e-06
-0.00644633
6.15113e-06
-0.00700664
6.96113e-06
-0.00756665
7.7029e-06
-0.00812688
8.35122e-06
-0.0086865
8.86781e-06
-0.0092468
9.20262e-06
-0.0098059
9.35007e-06
-0.0103664
9.20155e-06
-0.0109247
8.8182e-06
-0.0114859
7.98126e-06
-0.0120428
6.87481e-06
-0.0126053
5.09735e-06
-0.0131603
3.0433e-06
-0.000280382
-0.000841169
6.05951e-08
-0.00140193
2.41823e-07
-0.00196276
5.39807e-07
-0.00252344
9.49581e-07
-0.00308428
1.46007e-06
-0.00364483
2.06343e-06
-0.00420557
2.74059e-06
-0.00476604
3.48227e-06
-0.00532653
4.26142e-06
-0.00588692
5.06685e-06
-0.00644714
5.86248e-06
-0.00700738
6.63249e-06
-0.0075673
7.3342e-06
-0.0081274
7.94757e-06
-0.00868684
8.42824e-06
-0.00924695
8.73756e-06
-0.00980574
8.86181e-06
-0.0103661
8.71094e-06
-0.0109238
8.32455e-06
-0.0114848
7.51794e-06
-0.0120411
6.4518e-06
-0.0126033
4.75531e-06
-0.0131572
2.81491e-06
-0.000280443
-0.00084135
5.80885e-08
-0.00140223
2.31798e-07
-0.00196317
5.17369e-07
-0.00252395
9.10037e-07
-0.00308488
1.3991e-06
-0.00364551
1.97726e-06
-0.00420631
2.62606e-06
-0.00476682
3.33678e-06
-0.00532734
4.08312e-06
-0.00588772
4.85468e-06
-0.00644791
5.61716e-06
-0.00700808
6.3553e-06
-0.00756791
7.02875e-06
-0.00812788
7.6167e-06
-0.00868716
8.07759e-06
-0.00924707
8.37166e-06
-0.00980558
8.49414e-06
-0.0103657
8.34836e-06
-0.010923
7.97973e-06
-0.0114838
7.19928e-06
-0.0120394
6.19328e-06
-0.0126013
4.55284e-06
-0.0131544
2.73658e-06
-0.000280501
-0.000841524
5.53828e-08
-0.00140251
2.20971e-07
-0.00196357
4.93128e-07
-0.00252444
8.67307e-07
-0.00308546
1.33324e-06
-0.00364616
1.88422e-06
-0.00420702
2.50241e-06
-0.00476756
3.17969e-06
-0.00532811
3.89052e-06
-0.00588848
4.62527e-06
-0.00644865
5.35175e-06
-0.00700876
6.05505e-06
-0.0075685
6.69773e-06
-0.00812835
7.25771e-06
-0.00868746
7.6978e-06
-0.00924719
7.97601e-06
-0.00980542
8.09901e-06
-0.0103653
7.95906e-06
-0.0109222
7.60949e-06
-0.0114828
6.84995e-06
-0.0120377
5.89336e-06
-0.0125995
4.30625e-06
-0.0131517
2.65363e-06
-0.000280556
-0.00084169
5.24475e-08
-0.00140278
2.0922e-07
-0.00196394
4.66824e-07
-0.00252491
8.20969e-07
-0.00308601
1.26188e-06
-0.00364678
1.7835e-06
-0.0042077
2.36869e-06
-0.00476828
3.00987e-06
-0.00532884
3.68233e-06
-0.0058892
4.37727e-06
-0.00644935
5.06472e-06
-0.0070094
5.73018e-06
-0.00756906
6.33922e-06
-0.00812879
6.86849e-06
-0.00868775
7.28589e-06
-0.00924731
7.54732e-06
-0.00980527
7.67177e-06
-0.010365
7.53992e-06
-0.0109215
7.21795e-06
-0.0114818
6.4824e-06
-0.0120362
5.56833e-06
-0.0125978
4.02116e-06
-0.013149
2.45335e-06
-0.000280609
-0.000841846
4.92556e-08
-0.00140304
1.96443e-07
-0.00196429
4.38243e-07
-0.00252535
7.70678e-07
-0.00308653
1.18453e-06
-0.00364737
1.6745e-06
-0.00420834
2.22412e-06
-0.00476895
2.82644e-06
-0.00532954
3.45766e-06
-0.00588989
4.10974e-06
-0.00645001
4.75532e-06
-0.00701
5.37989e-06
-0.00756958
5.95282e-06
-0.00812921
6.44853e-06
-0.00868803
6.84179e-06
-0.00924743
7.08419e-06
-0.00980514
7.20844e-06
-0.0103647
7.08263e-06
-0.0109208
6.79838e-06
-0.0114809
6.09564e-06
-0.0120346
5.25613e-06
-0.0125963
4.0691e-06
-0.0131466
2.29112e-06
-0.000280658
-0.000841993
4.57846e-08
-0.00140328
1.8255e-07
-0.00196463
4.07195e-07
-0.00252576
7.16118e-07
-0.00308702
1.10073e-06
-0.00364792
1.55656e-06
-0.00420894
2.0679e-06
-0.00476958
2.62841e-06
-0.00533019
3.21548e-06
-0.00589053
3.8216e-06
-0.00645063
4.42249e-06
-0.00701058
5.00312e-06
-0.00757008
5.53777e-06
-0.00812961
5.99727e-06
-0.00868828
6.36609e-06
-0.00924755
6.58754e-06
-0.00980503
6.70916e-06
-0.0103644
6.5823e-06
-0.0109201
6.33096e-06
-0.01148
5.66327e-06
-0.0120331
4.96785e-06
-0.0125948
3.63384e-06
-0.0131443
2.16398e-06
-0.000280704
-0.00084213
4.20235e-08
-0.00140351
1.67495e-07
-0.00196494
3.7357e-07
-0.00252615
6.57088e-07
-0.00308748
1.01014e-06
-0.00364843
1.42919e-06
-0.0042095
1.89929e-06
-0.00477017
2.41487e-06
-0.0053308
2.95478e-06
-0.00589113
3.51174e-06
-0.00645121
4.06518e-06
-0.00701111
4.59855e-06
-0.00757054
5.09286e-06
-0.00812998
5.51317e-06
-0.0086885
5.85836e-06
-0.00924767
6.05748e-06
-0.00980491
6.17876e-06
-0.0103641
6.04543e-06
-0.0109194
5.82111e-06
-0.0114793
5.17072e-06
-0.0120317
4.59942e-06
-0.0125933
3.33183e-06
-0.0131421
1.98744e-06
-0.000280746
-0.000842255
3.7982e-08
-0.00140371
1.51301e-07
-0.00196522
3.37389e-07
-0.0025265
5.93568e-07
-0.00308789
9.12684e-07
-0.0036489
1.2922e-06
-0.00421002
1.71796e-06
-0.00477071
2.18524e-06
-0.00533136
2.67487e-06
-0.00589169
3.1793e-06
-0.00645174
3.68262e-06
-0.0070116
4.16515e-06
-0.00757096
4.61727e-06
-0.00813033
4.99455e-06
-0.0086887
5.31718e-06
-0.00924779
5.49071e-06
-0.00980479
5.61728e-06
-0.0103639
5.47775e-06
-0.0109187
5.30549e-06
-0.0114788
5.06906e-06
-0.0120305
4.0694e-06
-0.012592
3.02252e-06
-0.0131401
1.7981e-06
-0.000280784
-0.000842368
3.36854e-08
-0.0014039
1.34051e-07
-0.00196548
2.98796e-07
-0.00252682
5.25773e-07
-0.00308827
8.08556e-07
-0.00364932
1.14579e-06
-0.00421048
1.5241e-06
-0.0047712
1.93962e-06
-0.00533186
2.3757e-06
-0.00589219
2.82385e-06
-0.00645222
3.27449e-06
-0.00701205
3.70232e-06
-0.00757135
4.11121e-06
-0.00813065
4.44062e-06
-0.00868887
4.74373e-06
-0.00924792
4.88511e-06
-0.00980464
5.0213e-06
-0.0103637
4.86621e-06
-0.0109181
4.81599e-06
-0.0114782
4.35247e-06
-0.0120294
3.66571e-06
-0.0125908
2.72752e-06
-0.0131383
1.61755e-06
-0.000280817
-0.000842469
2.91498e-08
-0.00140407
1.15826e-07
-0.0019657
2.57977e-07
-0.0025271
4.54025e-07
-0.00308861
6.9822e-07
-0.0036497
9.90606e-07
-0.0042109
1.31862e-06
-0.00477164
1.67902e-06
-0.00533231
2.05825e-06
-0.00589264
2.44583e-06
-0.00645265
2.84161e-06
-0.00701246
3.20991e-06
-0.00757168
3.57696e-06
-0.00813096
3.8517e-06
-0.00868901
4.14419e-06
-0.00924806
4.24311e-06
-0.00980445
4.40325e-06
-0.0103637
4.59599e-06
-0.0109176
4.1246e-06
-0.0114776
3.75549e-06
-0.0120285
3.20469e-06
-0.0125897
2.39684e-06
-0.0131367
1.42121e-06
-0.000280846
-0.000842556
2.43374e-08
-0.00140421
9.6643e-08
-0.0019659
2.15105e-07
-0.00252735
3.78781e-07
-0.0030889
5.82485e-07
-0.00365003
8.27807e-07
-0.00421126
1.10296e-06
-0.00477202