/*--------------------------------*- C++ -*----------------------------------*\
  =========                 |
  \\      /  F ield         | OpenFOAM: The Open Source CFD Toolbox
   \\    /   O peration     | Website:  https://openfoam.org
    \\  /    A nd           | Version:  10
     \\/     M anipulation  |
\*---------------------------------------------------------------------------*/
FoamFile
{
    format      ascii;
    class       volScalarField;
    location    "0.4";
    object      rho;
}
// * * * * * * * * * * * * * * * * * * * * * * * * * * * * * * * * * * * * * //

dimensions      [1 -3 0 0 0 0 0];

internalField   nonuniform List<scalar> 
4176
(
0.0308487
0.0308517
0.0308578
0.0308684
0.0308813
0.0308978
0.0309186
0.0309402
0.0309692
0.0309956
0.0310323
0.0310648
0.0311069
0.0311475
0.0311923
0.0312441
0.031287
0.0313549
0.0313931
0.031479
0.0315108
0.0316159
0.0316365
0.0317503
0.0308567
0.0308596
0.0308648
0.0308748
0.0308857
0.0309016
0.0309191
0.03094
0.0309649
0.0309899
0.031022
0.0310523
0.0310899
0.031127
0.0311679
0.0312143
0.031254
0.0313144
0.0313498
0.0314267
0.0314539
0.031554
0.031575
0.0317036
0.030876
0.0308789
0.0308844
0.0308947
0.0309062
0.0309224
0.0309409
0.0309622
0.0309884
0.031014
0.0310477
0.0310787
0.0311182
0.0311562
0.0311993
0.0312469
0.031289
0.031352
0.0313875
0.0314682
0.0314956
0.0315944
0.0316135
0.0317343
0.0309047
0.0309076
0.0309129
0.0309229
0.030934
0.0309498
0.0309679
0.0309884
0.0310141
0.0310388
0.031072
0.0311016
0.0311408
0.031177
0.0312198
0.0312656
0.0313073
0.0313703
0.0314013
0.0314842
0.0315093
0.0316067
0.0316248
0.0317366
0.0309442
0.0309471
0.0309523
0.0309624
0.0309734
0.0309894
0.0310072
0.031028
0.0310534
0.0310784
0.0311112
0.0311412
0.0311801
0.0312165
0.0312594
0.0313046
0.0313483
0.0314082
0.0314428
0.0315236
0.0315504
0.0316474
0.0316668
0.0317803
0.0309937
0.0309965
0.0310017
0.0310117
0.0310225
0.0310383
0.0310557
0.0310764
0.0311013
0.0311261
0.0311583
0.0311881
0.0312263
0.0312624
0.0313048
0.0313489
0.031393
0.03145
0.031488
0.0315648
0.0315924
0.0316884
0.0317086
0.0318236
0.0310535
0.0310564
0.0310615
0.0310714
0.0310822
0.0310979
0.0311151
0.0311356
0.0311603
0.0311849
0.0312168
0.0312463
0.0312842
0.0313198
0.0313621
0.0314055
0.0314498
0.0315051
0.0315441
0.0316189
0.0316477
0.0317422
0.0317627
0.0318757
0.0311237
0.0311265
0.0311315
0.0311414
0.031152
0.0311675
0.0311845
0.0312048
0.0312291
0.0312534
0.0312849
0.031314
0.0313516
0.0313866
0.0314286
0.0314711
0.0315155
0.0315689
0.031609
0.0316812
0.0317111
0.031804
0.0318249
0.0319367
0.0312042
0.031207
0.0312119
0.0312217
0.0312321
0.0312476
0.0312643
0.0312844
0.0313084
0.0313324
0.0313635
0.0313922
0.0314294
0.0314638
0.0315055
0.0315471
0.0315915
0.0316432
0.0316842
0.031754
0.0317849
0.0318757
0.0318972
0.0320072
0.031295
0.0312978
0.0313027
0.0313124
0.0313226
0.0313379
0.0313544
0.0313743
0.0313979
0.0314216
0.0314523
0.0314805
0.0315172
0.031551
0.0315923
0.031633
0.0316773
0.0317274
0.031769
0.0318364
0.0318684
0.0319567
0.0319787
0.0320869
0.0313963
0.0313991
0.0314039
0.0314135
0.0314235
0.0314386
0.0314549
0.0314745
0.0314977
0.0315211
0.0315513
0.0315791
0.0316153
0.0316484
0.0316893
0.0317291
0.0317731
0.0318217
0.0318639
0.0319289
0.0319618
0.0320474
0.0320699
0.0321761
0.031508
0.0315108
0.0315155
0.031525
0.0315349
0.0315498
0.0315657
0.031585
0.0316079
0.0316309
0.0316607
0.0316879
0.0317237
0.0317561
0.0317965
0.0318352
0.031879
0.0319261
0.0319687
0.0320313
0.0320646
0.0321481
0.0321707
0.0322749
0.0316303
0.0316331
0.0316377
0.031647
0.0316567
0.0316714
0.031687
0.0317061
0.0317285
0.0317511
0.0317804
0.0318071
0.0318423
0.031874
0.0319139
0.0319516
0.031995
0.0320406
0.0320835
0.0321437
0.0321777
0.0322584
0.0322813
0.0323832
0.0317632
0.0317659
0.0317704
0.0317797
0.0317891
0.0318036
0.0318189
0.0318376
0.0318597
0.0318818
0.0319106
0.0319367
0.0319714
0.0320023
0.0320416
0.0320783
0.0321212
0.0321653
0.0322083
0.0322661
0.0323006
0.0323789
0.0324016
0.0325013
0.0319068
0.0319095
0.0319139
0.031923
0.0319323
0.0319465
0.0319614
0.0319798
0.0320013
0.032023
0.0320513
0.0320768
0.0321108
0.0321409
0.0321796
0.0322152
0.0322576
0.0323003
0.0323432
0.0323986
0.0324335
0.0325092
0.0325319
0.0326291
0.0320612
0.0320639
0.0320682
0.0320771
0.0320861
0.0321001
0.0321147
0.0321326
0.0321537
0.0321748
0.0322025
0.0322273
0.0322607
0.03229
0.032328
0.0323626
0.0324044
0.0324455
0.0324882
0.0325412
0.0325766
0.0326492
0.0326725
0.0327668
0.0322265
0.0322292
0.0322333
0.0322421
0.0322508
0.0322645
0.0322787
0.0322962
0.0323168
0.0323373
0.0323644
0.0323885
0.0324212
0.0324496
0.0324869
0.0325203
0.0325615
0.0326011
0.0326434
0.0326941
0.0327297
0.0327995
0.0328231
0.0329145
0.0324027
0.0324054
0.0324094
0.0324181
0.0324265
0.0324399
0.0324536
0.0324707
0.0324907
0.0325107
0.0325371
0.0325604
0.0325923
0.0326198
0.0326563
0.0326885
0.032729
0.0327671
0.032809
0.0328572
0.0328932
0.03296
0.0329839
0.0330722
0.0325901
0.0325927
0.0325966
0.0326051
0.0326132
0.0326263
0.0326396
0.0326562
0.0326756
0.0326949
0.0327206
0.0327432
0.0327742
0.0328007
0.0328363
0.0328673
0.032907
0.0329436
0.0329849
0.0330308
0.0330669
0.0331307
0.0331549
0.03324
0.0327887
0.0327913
0.032795
0.0328033
0.0328111
0.0328238
0.0328366
0.0328527
0.0328715
0.0328902
0.0329151
0.0329368
0.032967
0.0329924
0.0330271
0.0330569
0.0330957
0.0331306
0.0331713
0.0332148
0.033251
0.0333118
0.0333363
0.0334181
0.0329986
0.0330011
0.0330047
0.0330127
0.0330202
0.0330325
0.0330449
0.0330604
0.0330786
0.0330965
0.0331206
0.0331415
0.0331707
0.0331951
0.0332288
0.0332572
0.0332951
0.0333283
0.0333683
0.0334095
0.0334457
0.0335031
0.0335281
0.0336065
0.0332199
0.0332224
0.0332258
0.0332336
0.0332407
0.0332526
0.0332644
0.0332794
0.0332969
0.0333141
0.0333373
0.0333573
0.0333856
0.0334088
0.0334415
0.0334685
0.0335053
0.0335368
0.0335759
0.0336148
0.0336508
0.0337052
0.0337304
0.0338052
0.0334527
0.0334551
0.0334583
0.0334659
0.0334726
0.0334842
0.0334954
0.0335098
0.0335265
0.0335429
0.0335653
0.0335843
0.0336116
0.0336337
0.0336652
0.0336908
0.0337266
0.0337563
0.0337944
0.033831
0.0338669
0.0339177
0.0339431
0.0340145
0.0336971
0.0336995
0.0337025
0.0337098
0.0337162
0.0337272
0.0337379
0.0337516
0.0337676
0.0337832
0.0338047
0.0338226
0.0338489
0.0338698
0.0339002
0.0339243
0.0339589
0.0339869
0.0340239
0.0340582
0.0340937
0.0341412
0.0341666
0.0342343
0.0339531
0.0339555
0.0339583
0.0339654
0.0339713
0.033982
0.033992
0.0340051
0.0340202
0.034035
0.0340555
0.0340724
0.0340976
0.0341172
0.0341465
0.0341691
0.0342025
0.0342287
0.0342646
0.0342965
0.0343316
0.0343756
0.0344008
0.0344649
0.034221
0.0342233
0.0342259
0.0342328
0.0342382
0.0342484
0.0342578
0.0342702
0.0342845
0.0342984
0.0343179
0.0343338
0.0343578
0.0343762
0.0344042
0.0344253
0.0344575
0.0344817
0.0345165
0.034546
0.0345805
0.0346212
0.0346461
0.0347064
0.0345007
0.0345029
0.0345054
0.0345119
0.034517
0.0345267
0.0345354
0.0345472
0.0345607
0.0345736
0.0345921
0.0346068
0.0346297
0.0346467
0.0346735
0.034693
0.0347239
0.0347463
0.0347798
0.034807
0.0348406
0.0348779
0.0349027
0.0349594
0.0347923
0.0347945
0.0347967
0.034803
0.0348077
0.0348169
0.034825
0.0348361
0.0348487
0.0348607
0.0348782
0.0348917
0.0349134
0.034929
0.0349545
0.0349724
0.0350019
0.0350223
0.0350546
0.0350794
0.0351121
0.0351459
0.0351708
0.0352232
0.035096
0.0350981
0.0351001
0.0351062
0.0351104
0.0351191
0.0351265
0.0351369
0.0351487
0.0351598
0.0351762
0.0351885
0.035209
0.0352232
0.0352473
0.0352635
0.0352916
0.0353101
0.0353411
0.0353634
0.0353952
0.0354253
0.0354502
0.0354984
0.0354117
0.0354138
0.0354157
0.0354214
0.0354252
0.0354335
0.0354402
0.0354499
0.0354607
0.0354709
0.0354862
0.0354974
0.0355166
0.0355294
0.0355521
0.0355666
0.0355932
0.0356097
0.0356393
0.0356592
0.0356899
0.0357165
0.0357414
0.0357849
0.0357397
0.0357418
0.0357434
0.0357489
0.0357522
0.03576
0.035766
0.035775
0.0357849
0.0357942
0.0358084
0.0358184
0.0358364
0.0358477
0.0358691
0.0358817
0.0359069
0.0359213
0.0359495
0.0359669
0.0359966
0.0360197
0.0360441
0.0360835
0.03608
0.036082
0.0360834
0.0360886
0.0360914
0.0360988
0.0361041
0.0361124
0.0361214
0.0361297
0.0361429
0.0361517
0.0361684
0.0361783
0.0361983
0.0362092
0.0362329
0.0362451
0.0362718
0.0362867
0.036315
0.0363349
0.0363591
0.0363939
0.0364327
0.0364346
0.0364358
0.0364408
0.0364431
0.0364499
0.0364546
0.0364621
0.0364703
0.0364776
0.0364897
0.0364974
0.0365128
0.0365212
0.0365399
0.036549
0.0365712
0.0365813
0.0366064
0.0366188
0.0366457
0.0366623
0.0366863
0.0367163
0.0367979
0.0367997
0.0368007
0.0368054
0.0368073
0.0368136
0.0368176
0.0368244
0.0368316
0.036838
0.036849
0.0368555
0.0368697
0.0368766
0.036894
0.0369012
0.036922
0.0369299
0.0369535
0.0369633
0.0369887
0.0370021
0.0370256
0.037051
0.0371756
0.0371774
0.0371781
0.0371826
0.037184
0.0371899
0.0371931
0.0371993
0.0372056
0.037211
0.0372209
0.0372261
0.0372391
0.0372446
0.0372606
0.037266
0.0372854
0.0372912
0.0373133
0.0373205
0.0373444
0.0373544
0.0373774
0.037398
0.0375659
0.0375677
0.0375682
0.0375724
0.0375734
0.0375788
0.0375814
0.0375868
0.0375923
0.0375967
0.0376056
0.0376095
0.0376212
0.0376252
0.0376398
0.0376435
0.0376614
0.0376651
0.0376857
0.0376904
0.0377127
0.0377197
0.0377417
0.0377575
0.037969
0.0379707
0.0379711
0.037975
0.0379756
0.0379805
0.0379824
0.0379872
0.0379917
0.0379953
0.038003
0.0380058
0.0380162
0.0380187
0.0380319
0.0380337
0.0380502
0.0380518
0.0380709
0.038073
0.0380941
0.0380977
0.0381186
0.0381298
0.038385
0.0383866
0.0383868
0.0383905
0.0383906
0.0383951
0.0383963
0.0384004
0.0384041
0.0384067
0.0384134
0.038415
0.0384242
0.0384251
0.038437
0.0384369
0.038452
0.0384513
0.038469
0.0384685
0.0384881
0.0384887
0.0385087
0.0385148
0.0388139
0.0388155
0.0388155
0.038819
0.0388186
0.0388227
0.0388233
0.0388267
0.0388295
0.0388312
0.0388368
0.0388372
0.0388452
0.0388447
0.0388551
0.0388532
0.0388668
0.0388639
0.03888
0.0388768
0.0388953
0.0388926
0.0389116
0.0389132
0.0392559
0.0392575
0.0392573
0.0392605
0.0392597
0.0392634
0.0392633
0.0392661
0.039268
0.0392688
0.0392734
0.0392726
0.0392794
0.0392774
0.0392864
0.0392827
0.0392948
0.0392896
0.0393043
0.0392983
0.0393153
0.0393095
0.0393276
0.0393248
0.0397112
0.0397128
0.0397123
0.0397154
0.0397141
0.0397173
0.0397166
0.0397187
0.0397198
0.0397197
0.0397232
0.0397213
0.0397268
0.0397233
0.0397311
0.0397255
0.0397362
0.0397287
0.039742
0.0397331
0.0397488
0.0397395
0.0397563
0.03975
0.0401799
0.0401814
0.0401808
0.0401835
0.0401818
0.0401846
0.0401832
0.0401847
0.0401849
0.0401839
0.0401864
0.0401832
0.0401876
0.0401826
0.0401891
0.0401816
0.040191
0.0401811
0.0401931
0.0401813
0.0401958
0.040183
0.0401987
0.0401879
0.040662
0.0406635
0.0406626
0.0406652
0.040663
0.0406654
0.0406633
0.0406641
0.0406634
0.0406615
0.0406629
0.0406586
0.0406618
0.0406553
0.0406605
0.0406512
0.0406592
0.040647
0.0406579
0.040643
0.0406566
0.04064
0.0406547
0.0406393
0.0411577
0.0411592
0.0411581
0.0411604
0.0411578
0.0411597
0.0411569
0.0411571
0.0411555
0.0411527
0.0411531
0.0411476
0.0411495
0.0411416
0.0411454
0.0411343
0.041141
0.0411264
0.0411362
0.0411183
0.0411309
0.0411107
0.0411246
0.0411046
0.0416671
0.0416685
0.0416673
0.0416693
0.0416663
0.0416677
0.0416642
0.0416637
0.0416613
0.0416575
0.0416568
0.0416501
0.0416508
0.0416414
0.0416439
0.041631
0.0416363
0.0416194
0.0416281
0.0416072
0.0416189
0.0415951
0.0416083
0.0415839
0.0421902
0.0421916
0.0421902
0.042192
0.0421885
0.0421894
0.0421853
0.0421841
0.0421808
0.0421761
0.0421743
0.0421664
0.0421659
0.042155
0.0421561
0.0421414
0.0421453
0.0421261
0.0421336
0.0421098
0.0421206
0.042093
0.0421059
0.0420766
0.0427272
0.0427285
0.0427269
0.0427284
0.0427245
0.042725
0.0427201
0.0427182
0.042714
0.0427084
0.0427056
0.0426965
0.0426947
0.0426823
0.0426821
0.0426655
0.0426681
0.0426465
0.0426529
0.0426261
0.042636
0.0426044
0.0426177
0.0425829
0.043278
0.0432793
0.0432774
0.0432787
0.0432743
0.0432744
0.0432688
0.0432662
0.0432612
0.0432546
0.0432507
0.0432404
0.0432374
0.0432235
0.043222
0.0432035
0.0432048
0.0431809
0.043186
0.0431562
0.0431653
0.0431294
0.0431434
0.0431033
0.0438426
0.0438439
0.0438418
0.0438429
0.043838
0.0438376
0.0438314
0.0438281
0.0438221
0.0438146
0.0438096
0.0437981
0.0437939
0.0437785
0.0437757
0.0437553
0.0437555
0.0437291
0.0437331
0.0437
0.0437087
0.0436683
0.0436828
0.0436378
0.0444211
0.0444223
0.04442
0.0444209
0.0444155
0.0444147
0.0444077
0.0444038
0.044397
0.0443885
0.0443825
0.0443697
0.0443644
0.0443474
0.0443434
0.044321
0.0443201
0.0442912
0.0442943
0.0442577
0.0442667
0.0442215
0.0442358
0.0441861
0.0450133
0.0450145
0.045012
0.0450126
0.0450068
0.0450055
0.0449979
0.0449933
0.0449856
0.0449762
0.0449692
0.0449552
0.0449488
0.0449302
0.0449251
0.0449005
0.0448988
0.0448671
0.0448696
0.044829
0.0448389
0.0447885
0.044803
0.0447487
0.0456191
0.0456203
0.0456176
0.045618
0.0456118
0.0456101
0.0456018
0.0455966
0.0455881
0.0455777
0.0455698
0.0455545
0.0455471
0.0455268
0.0455207
0.0454939
0.0454916
0.0454567
0.0454593
0.0454144
0.0454246
0.0453702
0.0453843
0.0453256
0.0462385
0.0462397
0.0462369
0.0462371
0.0462303
0.0462283
0.0462194
0.0462135
0.0462042
0.0461929
0.0461841
0.0461675
0.0461593
0.0461371
0.0461304
0.046101
0.0460985
0.0460599
0.0460636
0.0460143
0.0460238
0.0459662
0.0459794
0.0459167
0.0468714
0.0468725
0.0468695
0.0468695
0.0468623
0.04686
0.0468504
0.0468439
0.0468339
0.0468216
0.0468121
0.0467941
0.0467852
0.046761
0.0467541
0.0467218
0.0467195
0.0466772
0.0466811
0.0466285
0.0466374
0.0465763
0.046589
0.0465221
0.0475175
0.0475186
0.0475154
0.0475152
0.0475076
0.047505
0.0474948
0.0474877
0.047477
0.0474638
0.0474537
0.0474341
0.0474251
0.0473983
0.047392
0.0473562
0.0473545
0.0473091
0.0473116
0.0472571
0.0472647
0.0472009
0.0472126
0.0471418
0.0481766
0.0481777
0.0481743
0.048174
0.048166
0.0481631
0.0481523
0.0481447
0.0481335
0.0481191
0.0481089
0.0480872
0.0480788
0.048049
0.0480436
0.0480045
0.0480024
0.0479549
0.0479566
0.0478998
0.047906
0.0478394
0.0478504
0.0477758
0.0488484
0.0488497
0.0488461
0.0488457
0.0488373
0.0488342
0.0488228
0.0488146
0.0488032
0.0487873
0.0487776
0.0487534
0.0487457
0.0487135
0.0487075
0.0486671
0.0486639
0.0486148
0.0486149
0.0485562
0.0485614
0.0484921
0.0485023
0.0484242
0.0495329
0.0495343
0.0495303
0.0495302
0.0495212
0.0495181
0.0495061
0.0494972
0.049486
0.0494685
0.0494589
0.0494336
0.0494248
0.0493921
0.0493846
0.0493434
0.0493387
0.0492883
0.0492871
0.0492266
0.0492306
0.0491588
0.0491682
0.0490866
0.0502298
0.0502313
0.050227
0.0502271
0.0502174
0.0502146
0.0502019
0.0501928
0.0501809
0.0501631
0.0501526
0.0501267
0.050117
0.0500835
0.050075
0.0500328
0.050027
0.0499751
0.049973
0.0499106
0.0499135
0.0498394
0.0498481
0.0497632
0.050939
0.0509404
0.0509361
0.050936
0.0509263
0.050923
0.0509097
0.0509014
0.050888
0.0508702
0.050859
0.0508325
0.050822
0.0507879
0.0507782
0.0507354
0.0507284
0.0506754
0.050672
0.050608
0.0506101
0.0505337
0.0505416
0.0504537
0.0516601
0.0516616
0.0516573
0.051657
0.0516472
0.0516438
0.0516301
0.0516219
0.051607
0.0515902
0.0515775
0.0515509
0.0515396
0.0515049
0.0514942
0.0514509
0.0514426
0.0513887
0.0513843
0.0513188
0.0513197
0.0512415
0.0512487
0.0511579
0.052393
0.0523945
0.0523903
0.0523899
0.05238
0.0523765
0.0523625
0.0523543
0.0523385
0.0523223
0.0523078
0.052282
0.0522695
0.0522343
0.0522228
0.0521789
0.0521696
0.0521148
0.0521096
0.0520425
0.0520427
0.0519625
0.0519689
0.0518755
0.0531378
0.0531393
0.053135
0.0531346
0.0531246
0.0531211
0.0531068
0.0530985
0.053082
0.0530662
0.0530504
0.0530253
0.0530112
0.0529761
0.0529638
0.0529192
0.0529091
0.0528536
0.0528471
0.052779
0.0527781
0.0526964
0.0527022
0.0526063
0.0538941
0.0538957
0.0538914
0.053891
0.0538808
0.0538773
0.0538628
0.0538545
0.0538375
0.0538219
0.0538052
0.0537804
0.053765
0.0537302
0.0537168
0.0536716
0.0536605
0.0536043
0.0535972
0.0535278
0.0535262
0.0534429
0.0534479
0.0533499
0.0546622
0.0546638
0.0546595
0.0546592
0.0546488
0.0546453
0.0546305
0.0546221
0.0546047
0.0545893
0.0545716
0.054547
0.0545304
0.0544959
0.0544816
0.0544355
0.0544239
0.0543671
0.0543587
0.0542888
0.0542861
0.0542016
0.0542059
0.0541058
0.0554419
0.0554436
0.0554392
0.0554389
0.0554284
0.0554249
0.0554098
0.0554013
0.0553835
0.0553681
0.0553496
0.0553251
0.0553077
0.0552728
0.0552578
0.055211
0.0551986
0.055141
0.0551321
0.0550613
0.0550577
0.0549719
0.0549756
0.0548738
0.0562334
0.0562352
0.0562306
0.0562304
0.0562196
0.056216
0.0562005
0.056192
0.0561736
0.0561582
0.0561388
0.0561143
0.056096
0.0560607
0.056045
0.0559976
0.0559848
0.0559262
0.0559162
0.055845
0.0558403
0.0557538
0.0557567
0.0556533
0.0570365
0.0570383
0.0570336
0.0570334
0.0570223
0.0570186
0.0570026
0.0569939
0.0569749
0.0569593
0.0569388
0.0569145
0.0568949
0.0568596
0.0568429
0.056795
0.0567815
0.0567219
0.0567113
0.0566394
0.0566339
0.0565465
0.0565486
0.0564441
0.0578509
0.0578529
0.057848
0.0578476
0.0578361
0.0578322
0.0578157
0.0578066
0.057787
0.057771
0.0577494
0.0577252
0.0577043
0.0576688
0.0576509
0.0576027
0.0575888
0.0575281
0.0575167
0.0574442
0.0574377
0.0573498
0.0573513
0.0572456
0.0586763
0.0586783
0.0586731
0.0586726
0.0586607
0.0586563
0.0586394
0.0586297
0.0586093
0.0585929
0.0585701
0.0585461
0.0585233
0.0584884
0.0584685
0.0584208
0.0584057
0.0583444
0.0583323
0.0582591
0.058252
0.0581636
0.0581643
0.0580579
0.0595114
0.0595134
0.0595081
0.0595073
0.0594951
0.0594902
0.0594727
0.0594624
0.0594414
0.0594243
0.0594006
0.0593765
0.0593519
0.0593177
0.0592959
0.0592486
0.059232
0.0591707
0.059158
0.0590841
0.0590761
0.0589876
0.0589877
0.0588807
0.0603547
0.0603567
0.0603514
0.0603503
0.0603379
0.0603326
0.0603147
0.0603039
0.0602823
0.0602647
0.0602402
0.060216
0.0601898
0.0601563
0.0601324
0.060086
0.060067
0.0600069
0.0599936
0.0599189
0.0599106
0.0598219
0.0598213
0.059714
0.0612042
0.0612062
0.0612009
0.0611997
0.0611873
0.0611819
0.0611638
0.0611528
0.0611309
0.0611131
0.0610881
0.0610639
0.0610365
0.061004
0.0609777
0.0609332
0.0609118
0.0608533
0.0608385
0.060764
0.0607549
0.0606664
0.0606655
0.0605581
0.0620576
0.0620597
0.0620546
0.0620536
0.0620414
0.0620362
0.0620185
0.0620078
0.0619861
0.0619686
0.0619437
0.0619197
0.061892
0.0618602
0.0618326
0.0617897
0.0617666
0.0617088
0.0616929
0.0616195
0.0616099
0.0615215
0.0615204
0.0614132
0.062913
0.0629152
0.0629105
0.06291
0.0628984
0.062894
0.062877
0.0628672
0.0628465
0.0628299
0.0628058
0.0627829
0.0627554
0.062725
0.0626968
0.0626557
0.0626308
0.0625756
0.0625571
0.0624859
0.0624754
0.0623876
0.0623864
0.0622795
0.0637695
0.0637719
0.0637678
0.0637681
0.0637574
0.0637543
0.0637386
0.0637303
0.063711
0.0636961
0.0636736
0.0636524
0.0636263
0.0635976
0.06357
0.0635312
0.0635054
0.0634524
0.0634332
0.0633631
0.0633526
0.0632648
0.0632637
0.0631572
0.064628
0.0646308
0.0646273
0.0646285
0.0646189
0.0646173
0.0646032
0.0645968
0.0645796
0.0645669
0.0645465
0.0645278
0.0645037
0.0644776
0.0644517
0.0644154
0.0643906
0.0643404
0.0643209
0.064252
0.0642415
0.0641538
0.0641528
0.0640463
0.0654919
0.065495
0.0654919
0.0654942
0.0654856
0.0654855
0.0654729
0.0654685
0.0654533
0.065443
0.0654249
0.065409
0.0653873
0.0653641
0.0653408
0.0653075
0.0652847
0.0652377
0.0652193
0.0651532
0.0651434
0.0650557
0.0650548
0.0649474
0.0663666
0.0663703
0.0663672
0.0663705
0.0663623
0.0663636
0.0663517
0.0663491
0.0663351
0.0663269
0.0663106
0.0662972
0.0662776
0.0662571
0.0662372
0.0662055
0.0661876
0.0661414
0.0661279
0.0660628
0.0660572
0.0659706
0.0659708
0.0658629
0.06726
0.0672644
0.0672605
0.0672652
0.0672556
0.0672588
0.0672454
0.0672452
0.0672297
0.067224
0.0672073
0.0671958
0.0671772
0.0671581
0.0671424
0.0671082
0.0670997
0.067048
0.0670453
0.0669772
0.0669789
0.0668945
0.0668984
0.0667962
0.0681814
0.0681853
0.0681822
0.068185
0.0681765
0.068177
0.0681648
0.0681614
0.0681471
0.0681386
0.0681224
0.0681098
0.0680904
0.0680733
0.0680547
0.0680235
0.0680145
0.0679652
0.0679634
0.0678979
0.0679028
0.0678204
0.0678289
0.0677346
0.0691391
0.0691427
0.0691391
0.0691408
0.0691309
0.0691297
0.0691152
0.0691096
0.0690927
0.0690815
0.0690625
0.0690471
0.069025
0.069006
0.0689827
0.0689549
0.0689383
0.0688923
0.068889
0.0688227
0.0688296
0.0687454
0.0687574
0.0686634
0.0701395
0.0701429
0.0701383
0.0701388
0.0701268
0.0701233
0.0701057
0.0700968
0.0700758
0.0700604
0.0700367
0.0700165
0.0699893
0.0699656
0.0699363
0.0699052
0.0698816
0.0698352
0.0698262
0.0697565
0.0697639
0.0696745
0.0696887
0.0695908
0.0711861
0.0711898
0.0711837
0.0711832
0.0711687
0.0711628
0.0711416
0.0711291
0.0711032
0.0710831
0.0710531
0.0710272
0.0709927
0.070962
0.0709246
0.0708864
0.0708547
0.0708011
0.0707848
0.0707072
0.0707117
0.0706138
0.0706287
0.0705224
0.0722789
0.072283
0.0722752
0.0722743
0.0722571
0.0722496
0.0722244
0.0722095
0.0721775
0.0721548
0.0721164
0.0720867
0.0720422
0.0720051
0.0719581
0.0719102
0.07187
0.071801
0.0717787
0.0716863
0.0716839
0.0715725
0.0715848
0.0714648
0.0734145
0.0734181
0.0734108
0.0734076
0.0733904
0.0733797
0.0733537
0.0733341
0.0733012
0.0732713
0.0732317
0.0731931
0.0731453
0.0730992
0.0730436
0.0729896
0.0729317
0.0728581
0.0728178
0.0727131
0.0726958
0.0725657
0.07257
0.072428
0.0745864
0.0745896
0.0745824
0.0745786
0.0745606
0.0745489
0.0745215
0.0745004
0.0744653
0.0744331
0.0743905
0.0743485
0.0742965
0.0742455
0.0741842
0.0741234
0.0740542
0.07398
0.0739121
0.0738092
0.0737656
0.073618
0.0736056
0.0734305
0.0757865
0.0757897
0.0757825
0.0757787
0.0757604
0.0757485
0.0757207
0.075699
0.0756633
0.0756302
0.0755865
0.0755431
0.0754897
0.0754365
0.0753728
0.0753088
0.0752357
0.0751574
0.0750787
0.0749782
0.0749046
0.07476
0.0747207
0.0745079
0.0770061
0.0770094
0.0770024
0.0769989
0.0769808
0.0769694
0.0769418
0.0769206
0.0768853
0.0768527
0.0768094
0.0767665
0.0767135
0.0766607
0.0765974
0.0765338
0.0764608
0.0763827
0.0763038
0.0762046
0.0761252
0.0759888
0.0759318
0.0757072
0.0782365
0.0782402
0.0782335
0.0782306
0.078213
0.0782025
0.0781757
0.0781556
0.0781214
0.0780902
0.0780484
0.0780072
0.077956
0.0779053
0.0778443
0.0777832
0.0777129
0.0776381
0.0775634
0.077466
0.0773983
0.0772603
0.07722
0.0770227
0.0794701
0.0794739
0.0794676
0.0794655
0.0794486
0.0794393
0.0794136
0.0793952
0.0793625
0.0793334
0.0792936
0.0792549
0.0792062
0.0791586
0.0791007
0.0790433
0.0789766
0.0789064
0.078837
0.0787446
0.0786828
0.0785527
0.0785151
0.0783324
0.0806994
0.0807036
0.0806976
0.0806964
0.0806803
0.0806724
0.080648
0.0806315
0.0806006
0.0805739
0.0805364
0.0805007
0.0804549
0.0804109
0.0803566
0.0803033
0.080241
0.0801762
0.0801108
0.0800255
0.0799682
0.0798478
0.0798126
0.0796436
0.0819184
0.0819231
0.0819174
0.0819172
0.0819018
0.0818956
0.0818723
0.0818581
0.0818289
0.0818051
0.0817697
0.0817376
0.0816945
0.0816547
0.0816037
0.0815553
0.0814971
0.0814379
0.0813777
0.0812978
0.0812465
0.0811354
0.0811024
0.0809473
0.0831224
0.0831275
0.0831215
0.0831231
0.0831078
0.0831038
0.0830812
0.08307
0.0830417
0.0830217
0.0829875
0.0829604
0.0829186
0.0828845
0.0828357
0.0827931
0.0827387
0.0826854
0.0826295
0.0825569
0.0825092
0.0824081
0.0823775
0.082236
0.0843068
0.0843122
0.0843064
0.0843092
0.0842943
0.0842925
0.0842704
0.0842623
0.0842347
0.0842189
0.0841855
0.0841637
0.0841227
0.0840952
0.0840472
0.0840124
0.0839595
0.0839127
0.0838617
0.0837961
0.0837519
0.0836609
0.0836324
0.0835043
0.0854681
0.0854736
0.0854687
0.0854714
0.0854587
0.0854567
0.0854379
0.0854297
0.0854064
0.0853908
0.0853623
0.0853413
0.0853056
0.08528
0.0852373
0.0852058
0.0851578
0.0851174
0.0850687
0.0850109
0.0849703
0.0848891
0.084863
0.0847477
0.0866037
0.0866092
0.086605
0.0866081
0.0865966
0.0865955
0.0865787
0.0865717
0.0865512
0.0865368
0.0865123
0.0864925
0.086462
0.0864378
0.0864009
0.0863718
0.0863293
0.0862931
0.0862486
0.0861991
0.0861615
0.0860895
0.0860652
0.0859626
0.0877112
0.0877166
0.0877128
0.0877165
0.087706
0.0877061
0.0876907
0.0876853
0.0876671
0.0876546
0.0876331
0.0876155
0.0875887
0.0875672
0.0875347
0.0875089
0.0874709
0.0874397
0.0873983
0.0873575
0.0873221
0.0872589
0.0872368
0.0871462
0.0887884
0.0887939
0.0887906
0.0887948
0.0887853
0.0887863
0.0887725
0.0887686
0.0887523
0.0887418
0.088723
0.0887077
0.0886844
0.0886655
0.088637
0.0886146
0.0885811
0.0885538
0.0885175
0.0884829
0.0884489
0.0883961
0.0883754
0.0882965
0.0898341
0.0898397
0.0898367
0.0898416
0.0898327
0.089835
0.0898222
0.0898199
0.0898055
0.0897969
0.0897805
0.0897677
0.0897473
0.0897313
0.0897065
0.0896874
0.0896579
0.0896354
0.0896028
0.0895737
0.089542
0.0894984
0.0894796
0.0894117
0.0908474
0.0908528
0.0908503
0.0908554
0.0908476
0.0908504
0.0908393
0.0908382
0.0908256
0.0908188
0.0908048
0.0907941
0.0907766
0.0907632
0.0907418
0.0907259
0.0907003
0.0906812
0.090653
0.0906292
0.0906008
0.0905651
0.0905481
0.0904904
0.0918272
0.0918326
0.09183
0.0918363
0.0918282
0.091833
0.091822
0.0918231
0.0918115
0.0918068
0.0917946
0.0917862
0.0917713
0.0917605
0.0917423
0.0917293
0.0917073
0.0916922
0.0916676
0.0916479
0.0916235
0.0915954
0.0915796
0.0915315
0.0927729
0.0927781
0.0927765
0.0927818
0.0927763
0.0927798
0.0927719
0.0927724
0.0927637
0.0927598
0.0927501
0.0927434
0.0927311
0.0927226
0.0927073
0.0926973
0.0926786
0.0926667
0.0926459
0.0926309
0.0926095
0.0925881
0.0925737
0.0925342
0.0936845
0.0936899
0.0936874
0.0936952
0.0936873
0.093695
0.0936846
0.0936893
0.0936797
0.0936788
0.09367
0.0936657
0.0936554
0.0936493
0.0936367
0.0936294
0.0936137
0.0936053
0.0935879
0.0935764
0.0935589
0.0935426
0.0935297
0.0934988
0.0945618
0.0945667
0.0945658
0.0945714
0.0945674
0.0945719
0.0945664
0.0945686
0.094563
0.0945616
0.0945557
0.0945525
0.0945447
0.0945405
0.0945304
0.0945256
0.0945128
0.0945072
0.0944927
0.0944855
0.0944708
0.0944592
0.0944484
0.0944252
0.0954048
0.09541
0.0954085
0.0954155
0.0954106
0.0954174
0.0954107
0.0954161
0.0954096
0.0954111
0.0954057
0.0954047
0.0953984
0.0953964
0.0953886
0.095386
0.0953758
0.0953731
0.0953618
0.0953572
0.0953457
0.0953385
0.0953299
0.0953135
0.0962142
0.096219
0.0962179
0.096225
0.0962203
0.096228
0.0962221
0.0962277
0.0962233
0.0962251
0.0962218
0.0962218
0.0962176
0.0962172
0.0962115
0.0962112
0.0962034
0.0962032
0.096194
0.0961934
0.0961841
0.0961806
0.0961746
0.0961643
0.0969898
0.0969943
0.0969945
0.0969993
0.0969989
0.0970025
0.0970015
0.0970048
0.0970032
0.0970052
0.0970035
0.0970049
0.0970021
0.0970035
0.0969997
0.0970014
0.0969958
0.0969979
0.0969918
0.0969931
0.0969868
0.0969872
0.0969833
0.096978
0.0977327
0.0977374
0.0977362
0.0977445
0.0977392
0.0977495
0.097743
0.097752
0.0977478
0.0977529
0.0977512
0.0977543
0.097753
0.0977558
0.0977539
0.0977572
0.0977538
0.0977581
0.0977535
0.0977585
0.0977539
0.0977577
0.097756
0.0977554
0.0984432
0.0984471
0.0984486
0.0984519
0.0984544
0.0984562
0.0984594
0.0984608
0.0984637
0.0984655
0.0984673
0.0984703
0.0984708
0.0984748
0.0984744
0.0984795
0.0984777
0.098484
0.0984819
0.0984885
0.0984864
0.0984933
0.098493
0.098497
0.0991223
0.0991266
0.099126
0.0991336
0.0991301
0.09914
0.0991354
0.0991452
0.0991423
0.0991496
0.0991494
0.099155
0.0991558
0.0991615
0.0991624
0.0991689
0.0991688
0.0991768
0.099176
0.0991855
0.0991847
0.0991943
0.0991955
0.0992037
0.0997707
0.0997741
0.099776
0.0997794
0.099782
0.0997849
0.0997888
0.099791
0.0997959
0.0997985
0.0998026
0.0998071
0.09981
0.0998163
0.0998185
0.0998264
0.0998276
0.0998373
0.0998382
0.0998493
0.09985
0.0998624
0.0998642
0.0998763
0.100389
0.100393
0.100394
0.100399
0.100399
0.100406
0.100406
0.100413
0.100414
0.100421
0.100423
0.10043
0.100433
0.100441
0.100444
0.100453
0.100455
0.100466
0.100468
0.100482
0.100484
0.100498
0.100501
0.100516
0.100979
0.100982
0.100984
0.100988
0.10099
0.100995
0.100998
0.101002
0.101007
0.101012
0.101016
0.101023
0.101027
0.101035
0.101039
0.101049
0.101053
0.101065
0.101069
0.101083
0.101086
0.101103
0.101106
0.101124
0.101541
0.101544
0.101545
0.101549
0.101552
0.101556
0.10156
0.101565
0.101569
0.101575
0.10158
0.101587
0.101592
0.101601
0.101606
0.101617
0.101622
0.101635
0.101639
0.101655
0.101659
0.101678
0.101682
0.101702
0.102076
0.102078
0.102081
0.102084
0.102087
0.102091
0.102095
0.102101
0.102105
0.102112
0.102116
0.102125
0.10213
0.10214
0.102145
0.102157
0.102163
0.102177
0.102182
0.102199
0.102203
0.102224
0.102228
0.102251
0.102585
0.102587
0.102589
0.102593
0.102595
0.102601
0.102604
0.10261
0.102615
0.102621
0.102627
0.102636
0.102642
0.102652
0.102658
0.102671
0.102677
0.102692
0.102698
0.102716
0.102721
0.102743
0.102748
0.102772
0.103069
0.103071
0.103074
0.103075
0.103081
0.103083
0.10309
0.103094
0.1031
0.103107
0.103112
0.103121
0.103128
0.103139
0.103145
0.103158
0.103165
0.103181
0.103187
0.103207
0.103212
0.103235
0.10324
0.103267
0.103529
0.103532
0.103532
0.103538
0.103538
0.103546
0.103547
0.103556
0.103559
0.103568
0.103574
0.103583
0.10359
0.103601
0.103608
0.103622
0.103629
0.103646
0.103652
0.103672
0.103678
0.103703
0.103708
0.103736
0.103966
0.103968
0.103971
0.103972
0.103979
0.103979
0.103988
0.10399
0.103999
0.104004
0.104012
0.104021
0.104029
0.10404
0.104047
0.104062
0.104069
0.104086
0.104094
0.104114
0.104121
0.104146
0.104151
0.104181
0.104382
0.104384
0.104385
0.10439
0.10439
0.104399
0.104399
0.10441
0.104412
0.104422
0.104427
0.104438
0.104445
0.104457
0.104465
0.104479
0.104487
0.104505
0.104512
0.104533
0.104541
0.104566
0.104572
0.104602
0.104776
0.104778
0.104781
0.104782
0.104788
0.104789
0.104798
0.1048
0.104809
0.104814
0.104823
0.104832
0.10484
0.104852
0.10486
0.104875
0.104884
0.104901
0.10491
0.104931
0.104938
0.104964
0.104971
0.105002
0.10515
0.105153
0.105153
0.105158
0.105159
0.105167
0.105168
0.105178
0.105181
0.105191
0.105197
0.105208
0.105215
0.105227
0.105236
0.10525
0.10526
0.105277
0.105286
0.105307
0.105315
0.105342
0.105348
0.10538
0.105506
0.105507
0.10551
0.105511
0.105517
0.105519
0.105526
0.10553
0.105538
0.105545
0.105553
0.105563
0.105571
0.105583
0.105591
0.105607
0.105616
0.105634
0.105643
0.105665
0.105672
0.105699
0.105706
0.105739
0.105843
0.105845
0.105845
0.10585
0.105851
0.105859
0.105861
0.105869
0.105874
0.105883
0.105889
0.1059
0.105908
0.10592
0.105929
0.105944
0.105953
0.105972
0.10598