/*--------------------------------*- C++ -*----------------------------------*\
  =========                 |
  \\      /  F ield         | OpenFOAM: The Open Source CFD Toolbox
   \\    /   O peration     | Website:  https://openfoam.org
    \\  /    A nd           | Version:  10
     \\/     M anipulation  |
\*---------------------------------------------------------------------------*/
FoamFile
{
    format      ascii;
    class       volVectorField;
    location    "0.4";
    object      U;
}
// * * * * * * * * * * * * * * * * * * * * * * * * * * * * * * * * * * * * * //

dimensions      [0 1 -1 0 0 0 0];

internalField   nonuniform List<vector> 
4176
(
(497.488 -0.0141001 -6.34932e-09)
(497.474 0.0636539 1.90217e-09)
(497.45 0.00147537 -6.13104e-10)
(497.4 0.0903134 8.97234e-12)
(497.346 0.0510314 -1.41761e-10)
(497.271 0.0894944 -6.01343e-10)
(497.181 0.125874 -4.0444e-10)
(497.088 0.0605291 2.64791e-10)
(496.954 0.22527 6.67256e-10)
(496.848 0.00490947 6.7608e-10)
(496.672 0.344354 4.64841e-10)
(496.549 -0.0690302 3.68825e-10)
(496.339 0.46977 1.28594e-10)
(496.192 -0.13939 -2.52905e-10)
(495.956 0.56776 -4.11152e-10)
(495.773 -0.135463 -2.74016e-10)
(495.537 0.528439 -2.11136e-10)
(495.286 0.0237553 -1.3912e-11)
(495.073 0.334914 3.05295e-10)
(494.73 0.323237 1.69351e-10)
(494.576 -0.0169294 -1.41061e-10)
(494.097 0.771802 -1.59215e-10)
(494.067 -0.516305 1.25199e-10)
(493.444 1.4426 2.51868e-10)
(497.47 0.00496905 -6.34844e-09)
(497.455 0.114473 1.90232e-09)
(497.431 0.0765173 -6.13282e-10)
(497.379 0.203216 8.16663e-12)
(497.325 0.186277 -1.41672e-10)
(497.247 0.264212 -6.00973e-10)
(497.156 0.321772 -4.05088e-10)
(497.059 0.295623 2.649e-10)
(496.925 0.482223 6.67903e-10)
(496.814 0.29804 6.76246e-10)
(496.636 0.662871 4.64344e-10)
(496.508 0.278795 3.68697e-10)
(496.293 0.850351 1.27e-10)
(496.142 0.258491 -2.52778e-10)
(495.901 1.01246 -4.10939e-10)
(495.713 0.302208 -2.735e-10)
(495.47 1.04219 -2.1231e-10)
(495.215 0.510783 -1.40386e-11)
(494.996 0.914456 3.04263e-10)
(494.646 0.855386 1.68947e-10)
(494.491 0.628437 -1.41024e-10)
(493.992 1.33109 -1.61543e-10)
(493.956 0.125307 1.25965e-10)
(493.27 1.99269 2.51495e-10)
(497.413 0.0233134 -6.35114e-09)
(497.399 0.161129 1.90129e-09)
(497.375 0.147683 -6.15353e-10)
(497.324 0.307555 9.09955e-12)
(497.273 0.313871 -1.41952e-10)
(497.194 0.4264 -6.01737e-10)
(497.108 0.505887 -4.02367e-10)
(497.011 0.514854 2.66776e-10)
(496.882 0.722939 6.69921e-10)
(496.772 0.572701 6.76498e-10)
(496.599 0.96065 4.63293e-10)
(496.473 0.606201 3.67759e-10)
(496.263 1.20615 1.28569e-10)
(496.116 0.63408 -2.5266e-10)
(495.877 1.42867 -4.11144e-10)
(495.697 0.713961 -2.72237e-10)
(495.455 1.5227 -2.15038e-10)
(495.209 0.966027 -1.56701e-11)
(494.994 1.45726 3.04899e-10)
(494.653 1.34407 1.68515e-10)
(494.506 1.24768 -1.41974e-10)
(494.016 1.88225 -1.58862e-10)
(493.981 0.838913 1.26294e-10)
(493.271 2.60883 2.52448e-10)
(497.309 0.0420431 -6.34908e-09)
(497.294 0.208635 1.90519e-09)
(497.271 0.22017 -6.16362e-10)
(497.22 0.413872 1.20953e-11)
(497.169 0.443832 -1.42757e-10)
(497.09 0.591756 -6.06055e-10)
(497.004 0.693439 -4.02241e-10)
(496.907 0.738484 2.6436e-10)
(496.777 0.968148 6.63262e-10)
(496.668 0.85301 6.79972e-10)
(496.494 1.26398 4.64159e-10)
(496.37 0.940561 3.6599e-10)
(496.158 1.56883 1.3004e-10)
(496.013 1.01829 -2.54189e-10)
(495.771 1.85356 -4.18257e-10)
(495.593 1.13546 -2.73445e-10)
(495.346 2.01714 -2.12622e-10)
(495.097 1.42657 -1.60374e-11)
(494.891 2.00939 3.07156e-10)
(494.54 1.84097 1.67894e-10)
(494.399 1.85824 -1.44775e-10)
(493.915 2.42005 -1.5965e-10)
(493.885 1.52595 1.2457e-10)
(493.206 3.20558 2.42985e-10)
(497.157 0.0603701 -6.35079e-09)
(497.143 0.255159 1.91158e-09)
(497.12 0.291081 -6.12598e-10)
(497.069 0.518059 1.20803e-11)
(497.019 0.570961 -1.39542e-10)
(496.941 0.753926 -6.00627e-10)
(496.856 0.876906 -4.04114e-10)
(496.759 0.958029 2.6663e-10)
(496.632 1.20802 6.68888e-10)
(496.524 1.12849 6.7796e-10)
(496.351 1.56077 4.6431e-10)
(496.229 1.26936 3.68831e-10)
(496.018 1.9241 1.26606e-10)
(495.876 1.39605 -2.55184e-10)
(495.634 2.27128 -4.16333e-10)
(495.461 1.55016 -2.7596e-10)
(495.211 2.51248 -2.13725e-10)
(494.966 1.86975 -1.52616e-11)
(494.764 2.55441 3.01672e-10)
(494.411 2.33884 1.73666e-10)
(494.271 2.45273 -1.37036e-10)
(493.793 2.94589 -1.56709e-10)
(493.763 2.16852 1.28204e-10)
(493.103 3.76341 2.53832e-10)
(496.957 0.0786901 -6.36336e-09)
(496.942 0.30139 1.90953e-09)
(496.92 0.361841 -6.11129e-10)
(496.869 0.621664 7.23551e-12)
(496.819 0.697788 -1.50801e-10)
(496.742 0.915242 -6.05658e-10)
(496.658 1.05994 -4.01622e-10)
(496.561 1.17653 2.62923e-10)
(496.435 1.44731 6.69659e-10)
(496.327 1.40289 6.83435e-10)
(496.157 1.85667 4.64584e-10)
(496.035 1.59733 3.63066e-10)
(495.825 2.27776 1.23808e-10)
(495.684 1.77371 -2.52812e-10)
(495.443 2.68571 -4.19401e-10)
(495.274 1.96914 -2.73366e-10)
(495.018 3.00312 -2.03206e-10)
(494.787 2.31266 -1.23983e-11)
(494.571 3.10393 3.11482e-10)
(494.229 2.8356 1.75796e-10)
(494.084 3.04897 -1.41285e-10)
(493.611 3.4739 -1.67444e-10)
(493.575 2.81538 1.25012e-10)
(492.914 4.32029 2.54134e-10)
(496.708 0.0968337 -6.36363e-09)
(496.693 0.34696 1.90699e-09)
(496.671 0.431813 -6.27175e-10)
(496.62 0.723833 7.23093e-12)
(496.572 0.823162 -1.36237e-10)
(496.495 1.07434 -6.04874e-10)
(496.412 1.24087 -4.12956e-10)
(496.316 1.39208 2.67733e-10)
(496.192 1.68385 6.76455e-10)
(496.084 1.67378 6.78784e-10)
(495.916 2.14913 4.61836e-10)
(495.795 1.92151 3.74012e-10)
(495.588 2.62702 1.39482e-10)
(495.448 2.14772 -2.5098e-10)
(495.208 3.09405 -4.15042e-10)
(495.043 2.38645 -2.70062e-10)
(494.785 3.48275 -2.12671e-10)
(494.564 2.75736 -1.80286e-11)
(494.338 3.65133 3.05961e-10)
(494.01 3.32046 1.73308e-10)
(493.859 3.64412 -1.42729e-10)
(493.392 4.00147 -1.67527e-10)
(493.352 3.47193 1.27383e-10)
(492.693 4.8825 2.59261e-10)
(496.411 0.114841 -6.3801e-09)
(496.396 0.392065 1.91744e-09)
(496.374 0.501166 -6.07069e-10)
(496.324 0.824985 1.06008e-11)
(496.276 0.94737 -1.49249e-10)
(496.199 1.23185 -6.02083e-10)
(496.118 1.42006 -3.96372e-10)
(496.022 1.60549 2.66801e-10)
(495.899 1.91806 6.5855e-10)
(495.793 1.94207 6.76445e-10)
(495.626 2.43866 4.72761e-10)
(495.506 2.24279 3.6828e-10)
(495.301 2.97268 1.13771e-10)
(495.164 2.51876 -2.59758e-10)
(494.924 3.49788 -4.08101e-10)
(494.763 2.80126 -2.78139e-10)
(494.504 3.95497 -2.09041e-10)
(494.292 3.19965 -1.44106e-12)
(494.059 4.19407 3.09799e-10)
(493.742 3.8009 1.58584e-10)
(493.586 4.23742 -1.42961e-10)
(493.127 4.5242 -1.5141e-10)
(493.083 4.1232 1.2494e-10)
(492.431 5.43748 2.36157e-10)
(496.065 0.132668 -6.39303e-09)
(496.051 0.436617 1.90418e-09)
(496.029 0.569739 -6.29097e-10)
(495.979 0.924913 -1.71292e-12)
(495.932 1.07012 -1.49562e-10)
(495.855 1.38742 -6.10588e-10)
(495.775 1.59706 -4.11611e-10)
(495.68 1.81625 2.64022e-10)
(495.559 2.14935 6.65533e-10)
(495.454 2.20707 6.7361e-10)
(495.289 2.72451 4.60997e-10)
(495.17 2.56031 3.6667e-10)
(494.967 3.31388 1.21957e-10)
(494.832 2.8858 -2.58646e-10)
(494.594 3.89628 -4.14884e-10)
(494.436 3.21222 -2.75062e-10)
(494.177 4.41871 -2.13327e-10)
(493.973 3.63898 -1.245e-11)
(493.735 4.73 3.06349e-10)
(493.43 4.2747 1.65416e-10)
(493.268 4.82815 -1.44986e-10)
(492.818 5.04218 -1.62483e-10)
(492.77 4.77009 1.26791e-10)
(492.127 5.98584 2.52629e-10)
(495.671 0.150312 -6.37818e-09)
(495.656 0.480625 1.93359e-09)
(495.635 0.637527 -6.10627e-10)
(495.585 1.02364 2.13281e-11)
(495.539 1.19142 -1.31248e-10)
(495.463 1.54109 -5.93786e-10)
(495.384 1.77189 -3.94561e-10)
(495.29 2.02438 2.81814e-10)
(495.17 2.37768 6.84434e-10)
(495.066 2.46874 6.90616e-10)
(494.903 3.0066 4.79376e-10)
(494.787 2.87393 3.82403e-10)
(494.585 3.65048 1.40282e-10)
(494.452 3.2486 -2.46178e-10)
(494.216 4.28914 -4.01378e-10)
(494.062 3.61905 -2.64358e-10)
(493.803 4.87432 -1.99488e-10)
(493.607 4.07454 -1.46395e-12)
(493.364 5.25842 3.20232e-10)
(493.071 4.74235 1.76945e-10)
(492.903 5.41416 -1.32922e-10)
(492.463 5.55344 -1.50317e-10)
(492.412 5.41083 1.36359e-10)
(491.779 6.52588 2.61923e-10)
(495.228 0.167746 -6.40042e-09)
(495.214 0.524032 1.92294e-09)
(495.193 0.704432 -6.20689e-10)
(495.143 1.12104 1.37519e-11)
(495.098 1.3111 -1.38333e-10)
(495.023 1.69269 -6.02103e-10)
(494.945 1.94434 -3.99546e-10)
(494.852 2.22969 2.80563e-10)
(494.734 2.6028 6.83273e-10)
(494.631 2.7268 6.89264e-10)
(494.47 3.28456 4.79763e-10)
(494.355 3.18322 3.84801e-10)
(494.155 3.98203 1.42658e-10)
(494.026 3.60658 -2.44696e-10)
(493.791 4.67598 -3.96854e-10)
(493.641 4.02102 -2.58342e-10)
(493.382 5.32167 -1.91957e-10)
(493.194 4.50581 4.79757e-12)
(492.947 5.77847 3.3069e-10)
(492.666 5.20351 1.87636e-10)
(492.492 5.99362 -1.44689e-10)
(492.065 6.05675 -1.84204e-10)
(492.009 6.04515 1.07283e-10)
(491.387 7.05712 2.30951e-10)
(494.737 0.184947 -6.41042e-09)
(494.723 0.566796 1.92653e-09)
(494.702 0.770376 -6.24401e-10)
(494.653 1.21703 8.24382e-12)
(494.608 1.42905 -1.43777e-10)
(494.534 1.84212 -6.08417e-10)
(494.457 2.11427 -4.07522e-10)
(494.365 2.43202 2.71232e-10)
(494.249 2.82454 6.74059e-10)
(494.147 2.98108 6.80225e-10)
(493.988 3.55822 4.69327e-10)
(493.875 3.48794 3.7544e-10)
(493.678 4.30824 1.31384e-10)
(493.551 3.95933 -2.54685e-10)
(493.318 5.05641 -4.11609e-10)
(493.172 4.41753 -2.72027e-10)
(492.914 5.76082 -2.08993e-10)
(492.733 4.93241 -8.49782e-12)
(492.484 6.28957 3.12248e-10)
(492.214 5.65794 1.69105e-10)
(492.035 6.56483 -1.39852e-10)
(491.62 6.55066 -1.54882e-10)
(491.561 6.67227 1.33414e-10)
(490.95 7.57899 2.57611e-10)
(494.197 0.201886 -6.42114e-09)
(494.183 0.608855 1.92709e-09)
(494.163 0.835258 -6.3108e-10)
(494.114 1.31147 2.26402e-12)
(494.07 1.5451 -1.52485e-10)
(493.997 1.98917 -6.21155e-10)
(493.921 2.28146 -4.21922e-10)
(493.83 2.63118 2.55326e-10)
(493.715 3.04269 6.58007e-10)
(493.616 3.23135 6.61992e-10)
(493.459 3.8273 4.43197e-10)
(493.348 3.78779 3.4922e-10)
(493.152 4.62879 9.814e-11)
(493.029 4.30642 -2.60583e-10)
(492.798 5.42999 -3.87927e-10)
(492.656 4.80789 -2.54659e-10)
(492.4 6.19163 -1.90828e-10)
(492.225 5.35398 3.97133e-12)
(491.973 6.79103 3.24826e-10)
(491.715 6.10452 1.79356e-10)
(491.532 7.12737 -1.31815e-10)
(491.13 7.03473 -1.49689e-10)
(491.067 7.29064 1.38936e-10)
(490.468 8.09096 2.60957e-10)
(493.608 0.21854 -6.42543e-09)
(493.594 0.650156 1.95252e-09)
(493.574 0.898983 -6.32701e-10)
(493.526 1.40425 -1.70861e-11)
(493.483 1.65908 -1.55928e-10)
(493.41 2.13368 -6.12787e-10)
(493.336 2.44571 -4.00791e-10)
(493.247 2.82693 2.93522e-10)
(493.134 3.25699 6.78379e-10)
(493.036 3.47736 6.63095e-10)
(492.881 4.09157 4.56436e-10)
(492.772 4.08249 3.72581e-10)
(492.579 4.94341 1.40075e-10)
(492.459 4.64749 -2.41777e-10)
(492.23 5.79637 -4.21315e-10)
(492.093 5.1916 -2.95564e-10)
(491.838 6.61369 -2.27131e-10)
(491.67 5.76991 -1.45521e-11)
(491.417 7.28238 3.19139e-10)
(491.17 6.54287 1.84968e-10)
(490.983 7.68052 -1.44299e-10)
(490.594 7.50786 -1.78514e-10)
(490.528 7.89895 1.22316e-10)
(489.942 8.59249 2.58436e-10)
(492.97 0.234884 -6.45223e-09)
(492.956 0.69065 1.91515e-09)
(492.937 0.961463 -6.24778e-10)
(492.889 1.49523 3.9488e-11)
(492.847 1.77084 -1.30569e-10)
(492.776 2.27542 -6.10566e-10)
(492.702 2.60675 -4.20846e-10)
(492.615 3.01899 2.48543e-10)
(492.504 3.46713 6.76764e-10)
(492.407 3.71878 7.05882e-10)
(492.255 4.35069 4.77488e-10)
(492.149 4.37172 3.66747e-10)
(491.958 5.25178 1.05308e-10)
(491.841 4.9822 -2.63802e-10)
(491.615 6.1552 -3.97533e-10)
(491.482 5.56817 -2.66417e-10)
(491.229 7.02656 -2.16807e-10)
(491.068 6.17948 -2.57961e-11)
(490.814 7.76302 2.78554e-10)
(490.579 6.97267 1.55776e-10)
(490.387 8.2239 -1.31477e-10)
(490.011 7.96922 -1.5423e-10)
(489.944 8.49595 1.22727e-10)
(489.37 9.08306 2.33391e-10)
(492.283 0.250897 -6.44977e-09)
(492.269 0.730289 1.96771e-09)
(492.25 1.02262 -6.32805e-10)
(492.203 1.58432 -2.02842e-11)
(492.162 1.8802 -1.58422e-10)
(492.092 2.41421 -6.11831e-10)
(492.02 2.76434 -3.92944e-10)
(491.934 3.20707 3.02888e-10)
(491.825 3.67279 6.82118e-10)
(491.73 3.95526 6.65912e-10)
(491.58 4.60431 4.63556e-10)
(491.477 4.65511 3.80502e-10)
(491.289 5.55356 1.49373e-10)
(491.175 5.31019 -2.67774e-10)
(490.952 6.50617 -4.54307e-10)
(490.824 5.93719 -2.91782e-10)
(490.573 7.42987 -2.1706e-10)
(490.419 6.58188 -7.53228e-13)
(490.164 8.23218 3.34644e-10)
(489.94 7.39365 1.62193e-10)
(489.746 8.75685 -1.70602e-10)
(489.384 8.41851 -1.67421e-10)
(489.312 9.08105 1.36383e-10)
(488.753 9.56195 2.71243e-10)
(491.546 0.266558 -6.4779e-09)
(491.533 0.769028 1.93361e-09)
(491.514 1.08237 -6.52164e-10)
(491.468 1.67138 -2.41113e-11)
(491.428 1.98702 -1.48215e-10)
(491.358 2.54984 -5.86147e-10)
(491.288 2.91823 -3.89378e-10)
(491.204 3.39087 2.85508e-10)
(491.097 3.87362 6.80299e-10)
(491.005 4.18641 6.78198e-10)
(490.857 4.85201 4.52715e-10)
(490.757 4.93221 3.48938e-10)
(490.572 5.84833 1.29585e-10)
(490.462 5.63103 -2.37659e-10)
(490.242 6.84893 -4.04059e-10)
(490.118 6.29825 -2.68423e-10)
(489.87 7.82336 -2.13362e-10)
(489.722 6.97626 -1.7012e-11)
(489.468 8.68904 2.92625e-10)
(489.255 7.80547 1.38944e-10)
(489.057 9.27785 -1.82382e-10)
(488.71 8.8564 -1.64174e-10)
(488.635 9.65468 1.54592e-10)
(488.091 10.0279 2.68302e-10)
(490.76 0.281842 -6.4843e-09)
(490.746 0.806815 1.96186e-09)
(490.728 1.14063 -6.19677e-10)
(490.683 1.75631 3.05686e-11)
(490.644 2.09113 -1.25326e-10)
(490.576 2.68212 -5.91562e-10)
(490.507 3.06817 -3.81797e-10)
(490.425 3.57011 3.10825e-10)
(490.32 4.06926 7.22367e-10)
(490.23 4.41184 6.91213e-10)
(490.086 5.09334 4.37091e-10)
(489.988 5.20255 3.45519e-10)
(489.806 6.13561 9.64103e-11)
(489.7 5.94423 -2.89978e-10)
(489.483 7.18304 -4.46611e-10)
(489.364 6.65094 -2.93708e-10)
(489.119 8.20679 -2.30343e-10)
(488.978 7.36187 -2.02942e-11)
(488.724 9.13295 3.05954e-10)
(488.524 8.20785 1.67256e-10)
(488.322 9.78647 -1.39023e-10)
(487.99 9.28244 -1.49845e-10)
(487.91 10.216 1.43755e-10)
(487.382 10.4803 2.72678e-10)
(489.924 0.29672 -6.50589e-09)
(489.91 0.843585 1.95256e-09)
(489.893 1.19729 -6.41658e-10)
(489.848 1.83896 4.30323e-12)
(489.81 2.19236 -1.58526e-10)
(489.743 2.81084 -6.35867e-10)
(489.677 3.21392 -4.27924e-10)
(489.596 3.74449 2.61985e-10)
(489.494 4.25938 6.65467e-10)
(489.407 4.63115 6.68072e-10)
(489.265 5.32787 4.50548e-10)
(489.171 5.46563 3.49978e-10)
(488.992 6.41489 9.18696e-11)
(488.89 6.24921 -2.98804e-10)
(488.677 7.50798 -4.65171e-10)
(488.563 6.99469 -3.16708e-10)
(488.32 8.57971 -2.17654e-10)
(488.186 7.7382 2.07746e-11)
(487.934 9.56344 3.46126e-10)
(487.745 8.60036 1.93477e-10)
(487.541 10.2822 -1.18418e-10)
(487.223 9.69632 -1.38612e-10)
(487.14 10.7644 1.52288e-10)
(486.628 10.9188 2.77295e-10)
(489.037 0.311158 -6.5374e-09)
(489.024 0.87926 1.96819e-09)
(489.007 1.25223 -6.14029e-10)
(488.963 1.91917 9.24198e-12)
(488.926 2.2905 -1.33207e-10)
(488.861 2.93576 -5.87789e-10)
(488.797 3.35519 -4.06511e-10)
(488.718 3.91373 2.59091e-10)
(488.618 4.44366 6.85148e-10)
(488.534 4.84399 7.08306e-10)
(488.395 5.55519 4.6476e-10)
(488.305 5.72098 3.7993e-10)
(488.13 6.68565 1.4158e-10)
(488.031 6.5454 -2.79474e-10)
(487.822 7.82317 -4.20637e-10)
(487.713 7.32887 -2.57199e-10)
(487.474 8.94157 -2.22605e-10)
(487.347 8.1047 -4.14589e-11)
(487.097 9.98013 2.96843e-10)
(486.919 8.98261 1.66439e-10)
(486.712 10.7646 -1.72007e-10)
(486.41 10.0977 -1.66693e-10)
(486.322 11.2993 1.40221e-10)
(485.828 11.3429 2.41056e-10)
(488.1 0.325117 -6.53348e-09)
(488.087 0.913755 1.98455e-09)
(488.071 1.30532 -6.16065e-10)
(488.028 1.99676 4.35778e-11)
(487.992 2.38533 -1.15676e-10)
(487.929 3.05664 -6.27115e-10)
(487.866 3.49173 -4.5279e-10)
(487.79 4.07752 2.51393e-10)
(487.693 4.62176 6.68748e-10)
(487.611 5.04999 6.78416e-10)
(487.476 5.7749 4.6555e-10)
(487.389 5.96818 3.76039e-10)
(487.218 6.9474 1.3205e-10)
(487.124 6.83224 -2.54827e-10)
(486.919 8.12802 -4.02773e-10)
(486.816 7.65282 -2.53293e-10)
(486.58 9.29179 -1.84546e-10)
(486.46 8.46066 -1.67201e-11)
(486.213 10.3826 2.69077e-10)
(486.046 9.35423 1.34002e-10)
(485.837 11.2328 -1.72583e-10)
(485.551 10.4863 -1.79423e-10)
(485.458 11.8202 1.14122e-10)
(484.982 11.7522 2.50276e-10)
(487.113 0.338557 -6.56942e-09)
(487.1 0.946975 1.94223e-09)
(487.084 1.35639 -6.41366e-10)
(487.042 2.07153 4.3912e-11)
(487.008 2.47661 -1.39673e-10)
(486.946 3.1732 -6.28865e-10)
(486.886 3.62322 -4.29563e-10)
(486.812 4.23555 2.96351e-10)
(486.718 4.79334 7.33825e-10)
(486.639 5.24882 7.17846e-10)
(486.507 5.98663 4.81048e-10)
(486.424 6.2068 3.62861e-10)
(486.257 7.19971 8.75679e-11)
(486.168 7.10922 -2.7841e-10)
(485.966 8.42198 -4.08854e-10)
(485.869 7.96587 -2.75449e-10)
(485.638 9.62973 -2.2971e-10)
(485.525 8.80527 -3.80454e-11)
(485.281 10.7706 3.14684e-10)
(485.125 9.71485 1.89493e-10)
(484.914 11.6862 -1.39137e-10)
(484.644 10.8617 -1.71062e-10)
(484.548 12.3265 1.00676e-10)
(484.089 12.1463 2.55421e-10)
(486.075 0.351441 -6.59022e-09)
(486.062 0.978837 1.94867e-09)
(486.047 1.40533 -6.43627e-10)
(486.006 2.14329 4.95386e-11)
(485.973 2.5641 -1.30261e-10)
(485.913 3.28517 -6.25329e-10)
(485.855 3.74935 -4.30113e-10)
(485.784 4.38748 2.47876e-10)
(485.692 4.95807 6.86167e-10)
(485.617 5.44012 7.24593e-10)
(485.489 6.19001 4.92124e-10)
(485.409 6.43649 3.73072e-10)
(485.246 7.44216 9.76116e-11)
(485.162 7.37591 -2.70308e-10)
(484.965 8.70457 -3.99611e-10)
(484.874 8.26743 -2.71168e-10)
(484.648 9.95474 -2.24864e-10)
(484.542 9.13768 -2.88934e-11)
(484.301 11.1438 3.25861e-10)
(484.156 10.0641 1.98654e-10)
(483.945 12.1235 -1.29486e-10)
(483.69 11.2232 -1.62399e-10)
(483.59 12.8176 1.15817e-10)
(483.15 12.5248 2.28654e-10)
(484.985 0.363737 -6.61734e-09)
(484.973 1.00927 1.99547e-09)
(484.958 1.452 -6.20559e-10)
(484.919 2.21188 6.05498e-12)
(484.888 2.6476 -1.8663e-10)
(484.829 3.39228 -6.43226e-10)
(484.774 3.86982 -4.0499e-10)
(484.705 4.53299 2.65215e-10)
(484.617 5.11556 6.93675e-10)
(484.545 5.6235 7.16383e-10)
(484.421 6.38466 4.66953e-10)
(484.345 6.65685 3.88661e-10)
(484.186 7.67437 1.55753e-10)
(484.107 7.63189 -2.7639e-10)
(483.915 8.97536 -4.70141e-10)
(483.83 8.55702 -2.95327e-10)
(483.608 10.2663 -2.09074e-10)
(483.51 9.45721 -2.40116e-11)
(483.273 11.5015 3.21391e-10)
(483.138 10.4013 1.8513e-10)
(482.927 12.5439 -1.56296e-10)
(482.689 11.5701 -1.48696e-10)
(482.585 13.2928 1.6722e-10)
(482.164 12.8872 2.62615e-10)
(483.845 0.375424 -6.60661e-09)
(483.833 1.03822 2.0259e-09)
(483.819 1.49632 -6.0728e-10)
(483.78 2.27717 1.74385e-11)
(483.751 2.72691 -1.82004e-10)
(483.695 3.49432 -6.45406e-10)
(483.642 3.98435 -4.10842e-10)
(483.575 4.67173 3.10152e-10)
(483.491 5.26545 7.33892e-10)
(483.422 5.79859 6.97501e-10)
(483.302 6.57016 4.40723e-10)
(483.231 6.86747 3.58361e-10)
(483.077 7.89592 1.1735e-10)
(483.002 7.87676 -2.67626e-10)
(482.815 9.23395 -4.10751e-10)
(482.737 8.83419 -2.46348e-10)
(482.52 10.564 -2.20277e-10)
(482.43 9.76331 -4.30774e-11)
(482.196 11.8434 2.94644e-10)
(482.072 10.7257 1.56816e-10)
(481.861 12.9468 -1.40543e-10)
(481.64 11.9014 -1.39255e-10)
(481.534 13.7506 1.73243e-10)
(481.132 13.233 2.63352e-10)
(482.654 0.386487 -6.62242e-09)
(482.641 1.06565 2.0022e-09)
(482.629 1.53823 -6.68886e-10)
(482.591 2.33906 2.9413e-11)
(482.563 2.80192 -1.55587e-10)
(482.509 3.59109 -6.53179e-10)
(482.459 4.0927 -3.94991e-10)
(482.395 4.80344 2.89812e-10)
(482.314 5.40741 6.75574e-10)
(482.249 5.965 7.15917e-10)
(482.133 6.7461 4.80877e-10)
(482.066 7.06794 3.59047e-10)
(481.917 8.1064 1.39741e-10)
(481.848 8.11011 -2.79275e-10)
(481.666 9.47993 -4.63478e-10)
(481.594 9.09855 -2.77236e-10)
(481.382 10.8475 -2.31799e-10)
(481.3 10.0555 -3.2902e-11)
(481.071 12.1689 3.24434e-10)
(480.958 11.0369 1.5208e-10)
(480.747 13.3316 -1.80881e-10)
(480.543 12.2164 -1.59281e-10)
(480.434 14.1897 1.13895e-10)
(480.052 13.5615 2.28848e-10)
(481.411 0.396914 -6.70282e-09)
(481.399 1.09154 1.98409e-09)
(481.387 1.57769 -6.71462e-10)
(481.351 2.39749 -5.57152e-14)
(481.325 2.87251 -1.56068e-10)
(481.272 3.68247 -6.32101e-10)
(481.225 4.1947 -4.06837e-10)
(481.164 4.92788 3.09004e-10)
(481.086 5.54115 7.23878e-10)
(481.025 6.12239 7.29349e-10)
(480.913 6.91208 5.16675e-10)
(480.852 7.25784 3.65313e-10)
(480.707 8.30536 1.10508e-10)
(480.644 8.33151 -2.86121e-10)
(480.467 9.7129 -4.4166e-10)
(480.401 9.3497 -2.82843e-10)
(480.194 11.1163 -2.14553e-10)
(480.12 10.3334 3.45328e-12)
(479.897 12.4777 3.37412e-10)
(479.794 11.3339 1.82663e-10)
(479.585 13.6975 -1.81664e-10)
(479.397 12.5149 -1.84965e-10)
(479.286 14.6097 1.14757e-10)
(478.924 13.8726 2.45243e-10)
(480.117 0.406696 -6.68425e-09)
(480.105 1.11587 2.04398e-09)
(480.094 1.61465 -6.16983e-10)
(480.059 2.4524 1.25499e-11)
(480.035 2.93862 -1.90951e-10)
(479.984 3.76836 -6.64251e-10)
(479.939 4.29022 -4.24766e-10)
(479.882 5.04488 3.04917e-10)
(479.808 5.66644 7.26556e-10)
(479.75 6.27049 7.4318e-10)
(479.643 7.06777 4.82519e-10)
(479.586 7.43676 3.43261e-10)
(479.446 8.49236 9.83436e-11)
(479.389 8.5405 -2.93066e-10)
(479.217 9.9324 -4.37264e-10)
(479.159 9.58718 -2.67022e-10)
(478.957 11.3701 -1.84847e-10)
(478.892 10.5965 4.09644e-11)
(478.673 12.7696 3.26852e-10)
(478.58 11.6159 1.30678e-10)
(478.375 14.0434 -1.70285e-10)
(478.203 12.7971 -1.64275e-10)
(478.089 15.0113 1.50559e-10)
(477.747 14.1664 2.93947e-10)
(478.772 0.41582 -6.69452e-09)
(478.76 1.13859 2.0189e-09)
(478.75 1.64907 -6.95281e-10)
(478.716 2.50372 6.31633e-12)
(478.693 3.00018 -1.21035e-10)
(478.645 3.84867 -6.29354e-10)
(478.603 4.37915 -4.37412e-10)
(478.548 5.15432 3.06907e-10)
(478.478 5.78312 6.93426e-10)
(478.425 6.40909 6.68124e-10)
(478.322 7.2129 4.83683e-10)
(478.269 7.60439 4.13946e-10)
(478.135 8.667 1.22797e-10)
(478.083 8.73664 -3.05928e-10)
(477.918 10.138 -4.32677e-10)
(477.866 9.81053 -2.45053e-10)
(477.67 11.6084 -2.0983e-10)
(477.613 10.8444 -2.41372e-11)
(477.399 13.0443 3.409e-10)
(477.318 11.8821 1.57648e-10)
(477.115 14.3684 -1.89674e-10)
(476.96 13.0631 -1.69937e-10)
(476.843 15.3933 1.63265e-10)
(476.523 14.4415 2.6767e-10)
(477.375 0.424269 -6.77879e-09)
(477.363 1.15969 1.99946e-09)
(477.354 1.6809 -6.85845e-10)
(477.321 2.5514 -6.39622e-12)
(477.301 3.05711 -1.69702e-10)
(477.255 3.92332 -6.56732e-10)
(477.215 4.46141 -4.26152e-10)
(477.163 5.2561 2.9647e-10)
(477.097 5.89108 7.0867e-10)
(477.047 6.53807 7.06799e-10)
(476.949 7.34729 4.91066e-10)
(476.902 7.7605 3.96967e-10)
(476.773 8.82896 1.35401e-10)
(476.727 8.91953 -2.72366e-10)
(476.567 10.3291 -4.27799e-10)
(476.523 10.0192 -2.68243e-10)
(476.333 11.8309 -2.03567e-10)
(476.284 11.0766 9.88752e-12)
(476.076 13.3013 3.4888e-10)
(476.005 12.1322 1.90969e-10)
(475.805 14.6716 -1.20648e-10)
(475.668 13.3117 -1.92279e-10)
(475.548 15.7555 1.01911e-10)
(475.249 14.6983 2.40632e-10)
(475.926 0.432027 -6.72846e-09)
(475.915 1.17911 2.07074e-09)
(475.907 1.71009 -6.46296e-10)
(475.875 2.59536 3.35235e-11)
(475.856 3.10931 -1.39566e-10)
(475.813 3.99222 -6.33174e-10)
(475.776 4.5369 -4.08259e-10)
(475.727 5.35014 3.11228e-10)
(475.664 5.99025 7.18009e-10)
(475.619 6.65735 7.09114e-10)
(475.525 7.47082 4.85954e-10)
(475.483 7.90496 3.79499e-10)
(475.359 8.97804 1.09765e-10)
(475.319 9.08892 -2.97862e-10)
(475.165 10.5055 -4.6806e-10)
(475.128 10.2129 -3.15599e-10)
(474.945 12.0369 -2.56109e-10)
(474.905 11.2927 2.18163e-11)
(474.702 13.5404 3.50811e-10)
(474.642 12.3658 1.8024e-10)
(474.446 14.953 -1.33886e-10)
(474.325 13.5428 -1.53461e-10)
(474.204 16.0965 1.40712e-10)
(473.927 14.9357 2.69918e-10)
(474.426 0.439079 -6.77136e-09)
(474.416 1.19684 2.05074e-09)
(474.408 1.73658 -6.86418e-10)
(474.378 2.63552 3.34377e-11)
(474.36 3.15672 -1.52561e-10)
(474.319 4.05527 -6.62028e-10)
(474.285 4.60553 -3.9636e-10)
(474.24 5.43636 3.06943e-10)
(474.18 6.08053 7.01724e-10)
(474.139 6.76686 7.37089e-10)
(474.05 7.58346 4.93719e-10)
(474.012 8.03772 3.74122e-10)
(473.894 9.11414 1.48697e-10)
(473.861 9.24467 -2.8096e-10)
(473.712 10.6668 -4.63343e-10)
(473.683 10.391 -2.68229e-10)
(473.505 12.226 -2.2356e-10)
(473.474 11.4919 -2.46171e-11)
(473.278 13.7608 3.52484e-10)
(473.228 12.5822 1.69008e-10)
(473.037 15.2126 -1.7435e-10)
(472.932 13.7568 -1.42177e-10)
(472.809 16.4148 1.41873e-10)
(472.555 15.1524 2.47931e-10)
(472.874 0.445417 -6.84899e-09)
(472.864 1.21284 2.05884e-09)
(472.857 1.76034 -6.51314e-10)
(472.828 2.67185 -7.20948e-12)
(472.813 3.19927 -1.46812e-10)
(472.774 4.11241 -6.17232e-10)
(472.742 4.66722 -4.35873e-10)
(472.7 5.51467 3.15632e-10)
(472.645 6.16185 7.5043e-10)
(472.607 6.86655 7.00642e-10)
(472.523 7.68512 5.01556e-10)
(472.491 8.15877 4.26014e-10)
(472.377 9.23723 1.1557e-10)
(472.35 9.38676 -2.76242e-10)
(472.208 10.813 -4.11364e-10)
(472.186 10.5536 -2.99248e-10)
(472.015 12.3979 -2.17386e-10)
(471.993 11.6739 2.36166e-11)
(471.803 13.9621 3.20183e-10)
(471.764 12.7804 1.75196e-10)
(471.578 15.4507 -1.20984e-10)
(471.488 13.954 -1.71642e-10)
(471.363 16.7101 1.49379e-10)
(471.132 15.3487 2.95952e-10)
(471.271 0.45104 -6.83867e-09)
(471.261 1.22712 2.10462e-09)
(471.255 1.78137 -6.21934e-10)
(471.227 2.70433 2.79939e-11)
(471.214 3.23694 -1.86136e-10)
(471.177 4.1636 -6.60758e-10)
(471.148 4.72192 -4.03937e-10)
(471.109 5.58499 3.44647e-10)
(471.057 6.23412 7.80222e-10)
(471.024 6.95632 7.36299e-10)
(470.944 7.77575 4.62596e-10)
(470.917 8.26805 3.81872e-10)
(470.809 9.34728 1.42523e-10)
(470.788 9.51522 -2.52261e-10)
(470.652 10.9441 -3.92488e-10)
(470.637 10.7005 -2.81255e-10)
(470.472 12.5523 -2.66327e-10)
(470.459 11.8382 -1.86739e-11)
(470.276 14.1438 3.35615e-10)
(470.248 12.9597 1.87729e-10)
(470.068 15.6668 -1.00891e-10)
(469.992 14.1345 -1.60468e-10)
(469.867 16.9816 9.55092e-11)
(469.659 15.5237 2.4915e-10)
(469.616 0.455954 -6.92604e-09)
(469.606 1.2397 2.03858e-09)
(469.6 1.7997 -7.09463e-10)
(469.574 2.73299 -2.11354e-11)
(469.563 3.26976 -1.8691e-10)
(469.528 4.20884 -6.84202e-10)
(469.502 4.76961 -4.5141e-10)
(469.466 5.6473 2.78477e-10)
(469.418 6.29728 6.96052e-10)
(469.389 7.0361 6.91734e-10)
(469.314 7.85524 4.63881e-10)
(469.292 8.36549 3.63083e-10)
(469.189 9.44422 9.46318e-11)
(469.174 9.63003 -3.18517e-10)
(469.044 11.06 -4.84008e-10)
(469.037 10.8319 -3.19936e-10)
(468.878 12.6895 -2.60019e-10)
(468.874 11.985 -3.69153e-11)
(468.697 14.3057 2.95312e-10)
(468.68 13.1197 1.33359e-10)
(468.506 15.8602 -1.92593e-10)
(468.445 14.2977 -1.97216e-10)
(468.32 17.2289 1.03186e-10)
(468.135 15.6773 2.38098e-10)
(467.909 0.460171 -6.88908e-09)
(467.899 1.2506 2.08617e-09)
(467.894 1.81536 -6.9961e-10)
(467.869 2.75787 4.34175e-11)
(467.859 3.29778 -1.4751e-10)
(467.827 4.2482 -6.65795e-10)
(467.804 4.81035 -3.84796e-10)
(467.771 5.70161 3.29183e-10)
(467.727 6.35133 7.26458e-10)
(467.702 7.10584 7.69296e-10)
(467.631 7.92352 5.20493e-10)
(467.614 8.45097 3.90909e-10)
(467.517 9.52793 1.71026e-10)
(467.508 9.73112 -2.67638e-10)
(467.384 11.1607 -4.50696e-10)
(467.384 10.9479 -3.07709e-10)
(467.232 12.8094 -2.67778e-10)
(467.237 12.1143 1.22506e-12)
(467.066 14.448 3.18586e-10)
(467.061 13.2601 1.33791e-10)
(466.892 16.0307 -1.43539e-10)
(466.846 14.4424 -1.73289e-10)
(466.722 17.4509 1.03952e-10)
(466.56 15.8094 2.82322e-10)
(466.149 0.463703 -6.91112e-09)
(466.14 1.25984 2.10322e-09)
(466.136 1.8284 -6.96292e-10)
(466.112 2.77903 5.09989e-11)
(466.104 3.32107 -1.41438e-10)
(466.074 4.28175 -6.61497e-10)
(466.054 4.8442 -3.78738e-10)
(466.024 5.748 3.38538e-10)
(465.983 6.39631 7.36413e-10)
(465.962 7.16557 7.09974e-10)
(465.896 7.98055 4.59291e-10)
(465.885 8.52443 4.05608e-10)
(465.793 9.59828 1.1492e-10)
(465.79 9.81834 -3.22381e-10)
(465.672 11.2461 -4.38438e-10)
(465.68 11.0483 -2.95431e-10)
(465.533 12.912 -2.54502e-10)
(465.548 12.2264 1.4521e-11)
(465.383 14.5708 3.35085e-10)
(465.388 13.3813 1.4675e-10)
(465.225 16.1788 -1.3015e-10)
(465.193 14.5672 -1.61703e-10)
(465.072 17.646 1.25867e-10)
(464.933 15.9199 3.02325e-10)
(464.338 0.46656 -6.95929e-09)
(464.329 1.26746 2.15939e-09)
(464.326 1.83887 -6.72186e-10)
(464.303 2.79653 -7.56629e-12)
(464.297 3.33971 -1.42387e-10)
(464.268 4.30956 -6.06437e-10)
(464.251 4.87127 -4.07114e-10)
(464.224 5.78657 2.91189e-10)
(464.188 6.43231 7.4659e-10)
(464.171 7.21535 7.75596e-10)
(464.109 8.02635 5.10081e-10)
(464.102 8.58586 3.72394e-10)
(464.016 9.65519 1.36213e-10)
(464.02 9.89155 -2.49889e-10)
(463.907 11.3159 -4.54334e-10)
(463.923 11.133 -3.22577e-10)
(463.783 12.9972 -2.26401e-10)
(463.806 12.3212 2.80166e-11)
(463.647 14.6744 3.37302e-10)
(463.664 13.4836 1.34505e-10)
(463.507 16.3051 -1.60326e-10)
(463.489 14.6714 -1.43415e-10)
(463.371 17.8126 1.3404e-10)
(463.254 16.0087 2.34544e-10)
(462.474 0.468747 -7.0168e-09)
(462.465 1.27346 2.09836e-09)
(462.463 1.84679 -7.08945e-10)
(462.442 2.8104 -2.25424e-11)
(462.437 3.35375 -2.0523e-10)
(462.411 4.33172 -7.18231e-10)
(462.396 4.89163 -4.1514e-10)
(462.372 5.8174 3.86661e-10)
(462.339 6.45944 7.99302e-10)
(462.326 7.25529 7.85615e-10)
(462.269 8.06103 5.40154e-10)
(462.267 8.6353 4.22071e-10)
(462.186 9.69866 1.43514e-10)
(462.197 9.95071 -2.85348e-10)
(462.09 11.3701 -4.6328e-10)
(462.113 11.2016 -3.10006e-10)
(461.979 13.0646 -2.56358e-10)
(462.012 12.3984 -3.70382e-11)
(461.86 14.7584 2.87662e-10)
(461.888 13.567 1.15541e-10)
(461.736 16.4099 -1.54229e-10)
(461.731 14.7556 -1.11931e-10)
(461.617 17.9509 1.94144e-10)
(461.523 16.0752 3.11674e-10)
(460.558 0.470266 -7.07509e-09)
(460.549 1.27786 2.11581e-09)
(460.548 1.85217 -6.77926e-10)
(460.528 2.82067 -2.99045e-11)
(460.525 3.3632 -1.8568e-10)
(460.5 4.34824 -6.6935e-10)
(460.488 4.90533 -4.09188e-10)
(460.468 5.84057 3.53127e-10)
(460.438 6.47776 7.17725e-10)
(460.429 7.28549 7.3152e-10)
(460.376 8.08468 5.20395e-10)
(460.38 8.67289 3.60288e-10)
(460.304 9.72876 1.07264e-10)
(460.32 9.99587 -2.93772e-10)
(460.22 11.4085 -4.43295e-10)
(460.251 11.2542 -2.63566e-10)
(460.123 13.114 -2.49625e-10)
(460.166 12.4577 -3.68161e-12)
(460.02 14.8224 3.56361e-10)
(460.059 13.6312 1.28688e-10)
(459.912 16.493 -1.85521e-10)
(459.922 14.8201 -1.70017e-10)
(459.811 18.0616 1.57647e-10)
(459.738 16.1198 2.99968e-10)
(458.589 0.471116 -7.03577e-09)
(458.581 1.28064 2.14944e-09)
(458.58 1.855 -7.01808e-10)
(458.561 2.82731 -1.48862e-11)
(458.56 3.36808 -2.00603e-10)
(458.537 4.35914 -6.49779e-10)