/*--------------------------------*- C++ -*----------------------------------*\
  =========                 |
  \\      /  F ield         | OpenFOAM: The Open Source CFD Toolbox
   \\    /   O peration     | Website:  https://openfoam.org
    \\  /    A nd           | Version:  10
     \\/     M anipulation  |
\*---------------------------------------------------------------------------*/
FoamFile
{
    format      ascii;
    class       volScalarField;
    location    "0.1";
    object      Ma;
}
// * * * * * * * * * * * * * * * * * * * * * * * * * * * * * * * * * * * * * //

dimensions      [0 0 0 0 0 0 0];

internalField   nonuniform List<scalar> 
4176
(
1.83159
1.83151
1.83132
1.83109
1.83068
1.83031
1.82968
1.82919
1.82833
1.82772
1.82663
1.8259
1.82461
1.82373
1.82229
1.82119
1.81974
1.81824
1.81694
1.81487
1.81393
1.81104
1.81087
1.80712
1.83155
1.83147
1.83128
1.83104
1.83063
1.83024
1.82961
1.82909
1.82822
1.82758
1.82648
1.82572
1.8244
1.8235
1.82202
1.82089
1.81941
1.81787
1.81654
1.81442
1.81348
1.81047
1.81025
1.80613
1.83166
1.83159
1.8314
1.83116
1.83077
1.83038
1.82977
1.82925
1.82842
1.82778
1.82671
1.82597
1.82468
1.82379
1.82234
1.82125
1.81977
1.81828
1.81698
1.81491
1.81403
1.81107
1.81085
1.8066
1.83137
1.83129
1.8311
1.83086
1.83047
1.83009
1.82948
1.82896
1.82812
1.82749
1.82642
1.82568
1.82438
1.82351
1.82204
1.82096
1.81947
1.81795
1.81671
1.81458
1.81373
1.81082
1.81063
1.80655
1.83079
1.83072
1.83054
1.8303
1.82991
1.82953
1.82893
1.82842
1.82759
1.82697
1.8259
1.82518
1.82389
1.82303
1.82156
1.82051
1.81901
1.81751
1.8163
1.81415
1.81331
1.81044
1.81024
1.80632
1.82991
1.82984
1.82966
1.82942
1.82904
1.82866
1.82807
1.82755
1.82674
1.82612
1.82507
1.82434
1.82307
1.82222
1.82076
1.81973
1.8182
1.81678
1.81549
1.81341
1.81254
1.8097
1.80947
1.80552
1.8287
1.82862
1.82844
1.82821
1.82783
1.82745
1.82687
1.82637
1.82556
1.82494
1.82391
1.82319
1.82193
1.82109
1.81965
1.81863
1.8171
1.81574
1.8144
1.81239
1.8115
1.80869
1.80844
1.80453
1.8272
1.82713
1.82695
1.82672
1.82635
1.82597
1.8254
1.8249
1.82411
1.82349
1.82248
1.82176
1.82052
1.81969
1.81826
1.81727
1.81573
1.81442
1.81305
1.81112
1.8102
1.80744
1.80716
1.80329
1.82537
1.82529
1.82512
1.82489
1.82452
1.82415
1.82359
1.82309
1.82231
1.82171
1.82071
1.82
1.81878
1.81795
1.81654
1.81557
1.81404
1.81278
1.81139
1.80952
1.80857
1.80587
1.80557
1.80178
1.82326
1.82319
1.82302
1.82279
1.82243
1.82206
1.82151
1.82102
1.82025
1.81965
1.81867
1.81797
1.81677
1.81596
1.81457
1.81361
1.8121
1.81088
1.80947
1.80767
1.80671
1.80406
1.80375
1.8
1.82082
1.82074
1.82057
1.82035
1.81999
1.81963
1.81909
1.8186
1.81785
1.81726
1.81629
1.81561
1.81442
1.81363
1.81225
1.81132
1.80983
1.80864
1.80723
1.8055
1.80451
1.80193
1.80161
1.79795
1.8181
1.81803
1.81786
1.81764
1.81729
1.81694
1.8164
1.81593
1.81518
1.81461
1.81365
1.81298
1.81182
1.81105
1.80969
1.80878
1.8073
1.80616
1.80475
1.80308
1.80207
1.79957
1.79923
1.79563
1.81505
1.81498
1.81481
1.8146
1.81426
1.81391
1.81338
1.81291
1.81219
1.81162
1.81068
1.81003
1.80888
1.80813
1.80679
1.80591
1.80445
1.80335
1.80193
1.80033
1.79931
1.79689
1.79654
1.79303
1.81173
1.81166
1.8115
1.81128
1.81095
1.81061
1.81009
1.80964
1.80892
1.80837
1.80745
1.80681
1.80569
1.80496
1.80365
1.80279
1.80135
1.80028
1.79888
1.79734
1.79632
1.79397
1.79362
1.79016
1.80808
1.80801
1.80785
1.80764
1.80732
1.80698
1.80648
1.80603
1.80533
1.8048
1.8039
1.80327
1.80217
1.80146
1.80017
1.79934
1.79793
1.7969
1.7955
1.79402
1.793
1.79072
1.79038
1.78702
1.80416
1.80409
1.80394
1.80373
1.80341
1.80309
1.80259
1.80216
1.80148
1.80096
1.80008
1.79947
1.7984
1.79771
1.79645
1.79565
1.79426
1.79327
1.79189
1.79047
1.78945
1.78725
1.78691
1.78361
1.79992
1.79985
1.7997
1.7995
1.79919
1.79887
1.79839
1.79797
1.79731
1.7968
1.79594
1.79535
1.7943
1.79363
1.7924
1.79163
1.79027
1.78932
1.78796
1.78661
1.78558
1.78346
1.78311
1.77993
1.7954
1.79533
1.79519
1.79499
1.79469
1.79439
1.79392
1.79351
1.79287
1.79238
1.79154
1.79098
1.78995
1.78931
1.78811
1.78736
1.78604
1.78512
1.78379
1.7825
1.78148
1.77944
1.77909
1.77597
1.79057
1.7905
1.79036
1.79017
1.78988
1.78959
1.78913
1.78874
1.78811
1.78764
1.78683
1.78628
1.78529
1.78467
1.7835
1.78279
1.78149
1.78061
1.77931
1.77808
1.77706
1.77511
1.77476
1.77176
1.78547
1.7854
1.78527
1.78509
1.7848
1.78452
1.78408
1.7837
1.78309
1.78264
1.78185
1.78134
1.78037
1.77978
1.77864
1.77796
1.7767
1.77587
1.77459
1.77342
1.77242
1.77055
1.77019
1.76726
1.78006
1.77999
1.77986
1.77969
1.77941
1.77914
1.77871
1.77835
1.77776
1.77733
1.77657
1.77607
1.77514
1.77458
1.77348
1.77283
1.7716
1.77081
1.76956
1.76846
1.76746
1.76568
1.76532
1.76252
1.77438
1.77431
1.77419
1.77402
1.77376
1.77349
1.77308
1.77274
1.77217
1.77177
1.77103
1.77056
1.76966
1.76913
1.76806
1.76745
1.76627
1.76551
1.7643
1.76326
1.76228
1.76058
1.76023
1.75749
1.76839
1.76833
1.76821
1.76805
1.76779
1.76754
1.76715
1.76683
1.76628
1.76589
1.76518
1.76474
1.76387
1.76337
1.76234
1.76177
1.76062
1.75991
1.75874
1.75775
1.75679
1.75518
1.75483
1.75222
1.76214
1.76208
1.76196
1.76181
1.76157
1.76133
1.76096
1.76065
1.76013
1.75977
1.75908
1.75867
1.75783
1.75737
1.75638
1.75584
1.75474
1.75407
1.75294
1.75201
1.75108
1.74955
1.74921
1.74668
1.75559
1.75553
1.75542
1.75527
1.75505
1.75482
1.75446
1.75418
1.75368
1.75334
1.75269
1.7523
1.75149
1.75106
1.75011
1.74961
1.74855
1.74793
1.74684
1.74597
1.74506
1.74362
1.74329
1.74089
1.74878
1.74872
1.74862
1.74848
1.74826
1.74805
1.74772
1.74745
1.74697
1.74666
1.74604
1.74568
1.74491
1.74451
1.7436
1.74314
1.74212
1.74155
1.74051
1.7397
1.73882
1.73746
1.73715
1.73482
1.74168
1.74162
1.74153
1.7414
1.74119
1.741
1.74067
1.74043
1.73998
1.73969
1.73909
1.73877
1.73803
1.73767
1.7368
1.73638
1.7354
1.73488
1.73388
1.73313
1.73228
1.73101
1.73072
1.72852
1.73433
1.73427
1.73418
1.73406
1.73386
1.73369
1.73338
1.73316
1.73273
1.73247
1.73191
1.73161
1.73091
1.73059
1.72976
1.72938
1.72845
1.72797
1.72702
1.72633
1.72551
1.72434
1.72405
1.72193
1.72669
1.72664
1.72655
1.72644
1.72626
1.72609
1.72581
1.7256
1.7252
1.72496
1.72443
1.72417
1.7235
1.72322
1.72242
1.72209
1.7212
1.72078
1.71987
1.71923
1.71846
1.71737
1.7171
1.71512
1.71881
1.71876
1.71868
1.71857
1.7184
1.71825
1.71798
1.7178
1.71742
1.71721
1.71671
1.71648
1.71586
1.71561
1.71486
1.71457
1.71373
1.71335
1.71249
1.71191
1.71118
1.71018
1.70993
1.70802
1.71066
1.71061
1.71053
1.71043
1.71028
1.71014
1.70989
1.70972
1.70937
1.70919
1.70871
1.70852
1.70793
1.70772
1.70701
1.70676
1.70597
1.70564
1.70482
1.7043
1.70362
1.70269
1.70246
1.7007
1.70226
1.70221
1.70214
1.70205
1.70191
1.70178
1.70155
1.70141
1.70108
1.70092
1.70048
1.70032
1.69976
1.69959
1.69892
1.69873
1.69797
1.6977
1.69693
1.69647
1.69583
1.69499
1.69478
1.6931
1.6936
1.69355
1.69349
1.69341
1.69328
1.69317
1.69295
1.69283
1.69252
1.69239
1.69198
1.69185
1.69132
1.69119
1.69056
1.69041
1.6897
1.68948
1.68876
1.68836
1.68776
1.687
1.68681
1.68527
1.6847
1.68466
1.6846
1.68453
1.68441
1.68431
1.68412
1.68401
1.68373
1.68363
1.68324
1.68314
1.68266
1.68256
1.68197
1.68186
1.6812
1.68103
1.68036
1.68002
1.67948
1.67879
1.67862
1.67717
1.67556
1.67552
1.67546
1.6754
1.67529
1.67521
1.67503
1.67494
1.67468
1.6746
1.67425
1.67418
1.67373
1.67367
1.67312
1.67305
1.67243
1.67231
1.67169
1.67141
1.67091
1.6703
1.67015
1.66884
1.66618
1.66614
1.66609
1.66603
1.66594
1.66587
1.66571
1.66564
1.66541
1.66535
1.66503
1.66499
1.66457
1.66455
1.66404
1.66402
1.66344
1.66337
1.66279
1.66257
1.66212
1.66159
1.66148
1.66025
1.65656
1.65653
1.65648
1.65643
1.65634
1.65629
1.65615
1.6561
1.65588
1.65585
1.65556
1.65555
1.65516
1.65518
1.6547
1.65472
1.65418
1.65416
1.65363
1.65347
1.65306
1.6526
1.65252
1.65144
1.64673
1.64669
1.64665
1.6466
1.64653
1.64648
1.64636
1.64633
1.64614
1.64613
1.64586
1.64588
1.64553
1.64558
1.64515
1.64521
1.64471
1.64475
1.64425
1.64415
1.64379
1.6434
1.64336
1.64236
1.63665
1.63661
1.63658
1.63654
1.63648
1.63645
1.63634
1.63632
1.63615
1.63617
1.63592
1.63597
1.63565
1.63574
1.63534
1.63545
1.63499
1.63507
1.63462
1.63458
1.63425
1.63393
1.63393
1.63306
1.62636
1.62633
1.6263
1.62627
1.62621
1.62619
1.6261
1.6261
1.62595
1.62599
1.62577
1.62585
1.62556
1.62569
1.62532
1.62547
1.62505
1.62519
1.62478
1.6248
1.62451
1.62426
1.62429
1.6235
1.61585
1.61581
1.61579
1.61576
1.61572
1.61571
1.61563
1.61565
1.61552
1.61558
1.61539
1.61549
1.61523
1.61539
1.61506
1.61525
1.61487
1.61505
1.61468
1.61476
1.61452
1.61434
1.6144
1.61373
1.60512
1.60509
1.60507
1.60505
1.60501
1.60502
1.60495
1.60499
1.60488
1.60496
1.60479
1.60493
1.6047
1.60489
1.60459
1.60482
1.60448
1.60472
1.60438
1.60453
1.60432
1.60422
1.60432
1.6037
1.59418
1.59415
1.59413
1.59412
1.59409
1.59411
1.59406
1.59411
1.59402
1.59412
1.59398
1.59414
1.59393
1.59416
1.59389
1.59416
1.59385
1.59414
1.59384
1.59404
1.59387
1.59384
1.59397
1.59349
1.58303
1.583
1.58299
1.58298
1.58297
1.58299
1.58296
1.58302
1.58295
1.58308
1.58296
1.58315
1.58297
1.58323
1.58299
1.58331
1.58303
1.58336
1.5831
1.58337
1.58322
1.58328
1.58343
1.58302
1.57168
1.57165
1.57164
1.57164
1.57163
1.57167
1.57165
1.57173
1.57168
1.57182
1.57173
1.57194
1.57179
1.57208
1.57187
1.57222
1.57198
1.57236
1.57212
1.57245
1.57234
1.57246
1.57264
1.57235
1.56012
1.56009
1.56009
1.56009
1.5601
1.56014
1.56014
1.56023
1.5602
1.56037
1.5603
1.56054
1.56041
1.56074
1.56056
1.56095
1.56074
1.56117
1.56096
1.56136
1.56126
1.56147
1.56166
1.56145
1.54837
1.54834
1.54834
1.54835
1.54836
1.54842
1.54843
1.54854
1.54853
1.54871
1.54866
1.54892
1.54883
1.54918
1.54904
1.54947
1.54928
1.54976
1.54958
1.55003
1.54996
1.55025
1.55044
1.55036
1.53642
1.53639
1.5364
1.53642
1.53644
1.5365
1.53653
1.53665
1.53666
1.53686
1.53684
1.53713
1.53706
1.53744
1.53732
1.5378
1.53764
1.53817
1.53801
1.53853
1.53847
1.53885
1.53904
1.53904
1.52429
1.52426
1.52427
1.5243
1.52433
1.5244
1.52444
1.52458
1.5246
1.52482
1.52482
1.52513
1.52509
1.5255
1.52541
1.52592
1.52579
1.52637
1.52623
1.52682
1.52677
1.52723
1.52742
1.52755
1.51198
1.51195
1.51197
1.51199
1.51203
1.51212
1.51217
1.51232
1.51237
1.5126
1.51262
1.51296
1.51294
1.51339
1.51332
1.51387
1.51376
1.51439
1.51428
1.51493
1.51489
1.51545
1.51562
1.51583
1.49949
1.49946
1.49948
1.49952
1.49956
1.49966
1.49972
1.49989
1.49995
1.5002
1.50024
1.5006
1.50061
1.50108
1.50104
1.50163
1.50154
1.50222
1.50212
1.50284
1.50279
1.50345
1.50362
1.50395
1.48683
1.48681
1.48683
1.48687
1.48692
1.48702
1.4871
1.48728
1.48736
1.48763
1.48769
1.48808
1.4881
1.48861
1.48858
1.48922
1.48914
1.48989
1.48979
1.49059
1.49053
1.49128
1.49145
1.49185
1.47401
1.47399
1.47401
1.47406
1.47412
1.47423
1.47432
1.47451
1.4746
1.47489
1.47497
1.47538
1.47542
1.47596
1.47595
1.47662
1.47656
1.47736
1.47726
1.47814
1.47808
1.4789
1.47909
1.47958
1.46103
1.46101
1.46104
1.46109
1.46116
1.46128
1.46138
1.46158
1.46169
1.462
1.46209
1.46252
1.46258
1.46315
1.46315
1.46388
1.46381
1.46468
1.46457
1.46553
1.46548
1.46636
1.46656
1.46712
1.44791
1.44789
1.44792
1.44797
1.44805
1.44817
1.44828
1.4485
1.44862
1.44894
1.44905
1.44951
1.44957
1.45018
1.45018
1.45096
1.45089
1.45183
1.45171
1.45273
1.45269
1.45363
1.45384
1.45449
1.43464
1.43462
1.43466
1.43471
1.4348
1.43493
1.43505
1.43527
1.4354
1.43575
1.43586
1.43635
1.43641
1.43707
1.43706
1.4379
1.43782
1.43881
1.43871
1.43977
1.43975
1.44074
1.44096
1.44168
1.42125
1.42123
1.42126
1.42132
1.42141
1.42154
1.42167
1.42191
1.42205
1.42241
1.42252
1.42305
1.4231
1.42381
1.42379
1.42467
1.4246
1.42562
1.42555
1.42664
1.42664
1.42768
1.42791
1.42871
1.40772
1.4077
1.40774
1.4078
1.4079
1.40803
1.40817
1.40842
1.40855
1.40895
1.40905
1.40961
1.40966
1.4104
1.41039
1.4113
1.41125
1.41229
1.41224
1.41336
1.41339
1.41447
1.41471
1.41557
1.39408
1.39406
1.3941
1.39415
1.39427
1.3944
1.39455
1.3948
1.39494
1.39535
1.39546
1.39603
1.3961
1.39684
1.39686
1.39778
1.39775
1.39881
1.39878
1.39993
1.39997
1.4011
1.40135
1.40227
1.38032
1.3803
1.38035
1.3804
1.38052
1.38065
1.38081
1.38106
1.38122
1.38163
1.38175
1.38233
1.38241
1.38317
1.3832
1.38413
1.38413
1.38521
1.3852
1.38637
1.38643
1.38759
1.38785
1.38883
1.36646
1.36644
1.36649
1.36654
1.36666
1.36679
1.36697
1.3672
1.36738
1.36778
1.36792
1.36851
1.3686
1.36936
1.36942
1.37035
1.37037
1.37146
1.37147
1.37266
1.37274
1.37394
1.3742
1.37523
1.3525
1.35247
1.35252
1.35258
1.3527
1.35283
1.35301
1.35324
1.35345
1.35383
1.354
1.35457
1.35468
1.35545
1.35552
1.35646
1.35649
1.3576
1.35762
1.35884
1.35892
1.36015
1.36042
1.36151
1.33844
1.33841
1.33846
1.33852
1.33864
1.33877
1.33895
1.33919
1.3394
1.33977
1.33996
1.34052
1.34066
1.34142
1.3415
1.34245
1.3425
1.34361
1.34365
1.34488
1.34498
1.34624
1.34652
1.34764
1.32428
1.32426
1.3243
1.32436
1.32448
1.32462
1.3248
1.32503
1.32526
1.32562
1.32583
1.32638
1.32654
1.32729
1.32739
1.32834
1.3284
1.32952
1.32958
1.33082
1.33093
1.33222
1.33249
1.33366
1.31003
1.31001
1.31005
1.31011
1.31023
1.31037
1.31055
1.31078
1.31102
1.31137
1.3116
1.31213
1.31231
1.31306
1.31317
1.31413
1.3142
1.31533
1.31539
1.31665
1.31677
1.31808
1.31836
1.31957
1.29569
1.29567
1.29571
1.29577
1.29589
1.29603
1.29622
1.29645
1.29669
1.29703
1.29728
1.2978
1.298
1.29874
1.29887
1.29983
1.29991
1.30105
1.30112
1.30239
1.30252
1.30385
1.30413
1.30537
1.28126
1.28123
1.28128
1.28134
1.28146
1.2816
1.28179
1.28202
1.28226
1.28261
1.28287
1.28338
1.2836
1.28434
1.28448
1.28544
1.28553
1.28668
1.28676
1.28804
1.28818
1.28952
1.2898
1.29107
1.26673
1.26671
1.26676
1.26681
1.26694
1.26708
1.26727
1.2675
1.26776
1.2681
1.26838
1.26889
1.26912
1.26985
1.27001
1.27097
1.27108
1.27223
1.27232
1.27361
1.27375
1.27511
1.27539
1.27669
1.25212
1.25209
1.25214
1.2522
1.25233
1.25247
1.25267
1.25291
1.25317
1.25351
1.25381
1.25431
1.25456
1.2553
1.25547
1.25644
1.25654
1.2577
1.25781
1.2591
1.25925
1.26062
1.2609
1.26222
1.23742
1.23739
1.23745
1.23751
1.23764
1.23779
1.238
1.23824
1.23851
1.23886
1.23917
1.23967
1.23995
1.24067
1.24086
1.24183
1.24195
1.24311
1.24322
1.24453
1.24468
1.24605
1.24634
1.24768
1.22266
1.22263
1.22268
1.22275
1.22289
1.22304
1.22326
1.22351
1.22379
1.22414
1.22447
1.22496
1.22527
1.22597
1.2262
1.22715
1.22729
1.22846
1.22858
1.22988
1.23004
1.23142
1.23171
1.23305
1.20783
1.20781
1.20786
1.20793
1.20808
1.20824
1.20846
1.20872
1.20901
1.20937
1.20971
1.2102
1.21053
1.21122
1.21148
1.21242
1.21258
1.21374
1.21387
1.21517
1.21534
1.21672
1.217
1.21836
1.19299
1.19296
1.19302
1.19309
1.19324
1.1934
1.19363
1.19389
1.19419
1.19455
1.1949
1.19539
1.19575
1.19642
1.19671
1.19762
1.19781
1.19896
1.19909
1.20039
1.20057
1.20195
1.20223
1.20359
1.17815
1.17813
1.17818
1.17825
1.1784
1.17856
1.17878
1.17904
1.17934
1.1797
1.18006
1.18054
1.18091
1.18156
1.18188
1.18276
1.18299
1.1841
1.18426
1.18555
1.18572
1.1871
1.18737
1.18874
1.16336
1.16333
1.16338
1.16345
1.16358
1.16374
1.16396
1.16421
1.16449
1.16484
1.16519
1.16566
1.16603
1.16666
1.167
1.16784
1.1681
1.16918
1.16935
1.17063
1.1708
1.17217
1.17243
1.17379
1.14863
1.1486
1.14864
1.1487
1.14882
1.14896
1.14915
1.14938
1.14965
1.14998
1.15031
1.15075
1.15111
1.15171
1.15205
1.15285
1.15313
1.15417
1.15436
1.15562
1.15579
1.15715
1.1574
1.15876
1.13396
1.13392
1.13396
1.134
1.1341
1.13422
1.13439
1.1346
1.13483
1.13513
1.13543
1.13583
1.13617
1.13672
1.13705
1.13781
1.13809
1.13908
1.13928
1.1405
1.14067
1.14203
1.14227
1.14363
1.11931
1.11927
1.11929
1.11932
1.11941
1.1195
1.11965
1.11982
1.12002
1.12028
1.12054
1.1209
1.1212
1.12171
1.122
1.12271
1.12296
1.1239
1.1241
1.12529
1.12544
1.1268
1.12703
1.1284
1.10463
1.10458
1.1046
1.10461
1.10468
1.10475
1.10488
1.10501
1.10519
1.1054
1.10563
1.10594
1.10621
1.10666
1.10691
1.10757
1.10778
1.10868
1.10882
1.10998
1.11009
1.11144
1.11165
1.11303
1.08979
1.08974
1.08976
1.08975
1.08982
1.08987
1.08999
1.0901
1.09027
1.09044
1.09066
1.09093
1.09116
1.09158
1.09177
1.09243
1.09252
1.09344
1.09347
1.09463
1.09465
1.09598
1.09614
1.0975
1.07467
1.07461
1.07463
1.07463
1.0747
1.07475
1.07488
1.07498
1.07515
1.07532
1.07553
1.07579
1.07601
1.0764
1.07657
1.07722
1.07723
1.07818
1.0781
1.07927
1.0792
1.08049
1.08058
1.08184
1.05911
1.05906
1.05908
1.0591
1.05917
1.05925
1.05938
1.05952
1.0597
1.05991
1.06013
1.06042
1.06067
1.06105
1.06126
1.06187
1.06192
1.06283
1.06274
1.06389
1.06377
1.06505
1.06507
1.06626
1.04301
1.04296
1.04299
1.04302
1.04312
1.04323
1.0434
1.04359
1.04381
1.04407
1.04435
1.04468
1.04499
1.04541
1.04571
1.0463
1.04646
1.04734
1.0473
1.04847
1.04832
1.04965
1.04961
1.05082
1.02625
1.02621
1.02625
1.02631
1.02644
1.02659
1.02681
1.02705
1.02734
1.02767
1.02803
1.02844
1.02884
1.02935
1.02975
1.03041
1.03069
1.03162
1.03167
1.03293
1.03278
1.03422
1.03413
1.03544
1.00882
1.00877
1.00884
1.00891
1.00908
1.00926
1.00954
1.00983
1.01021
1.01059
1.01106
1.01155
1.01208
1.01269
1.01324
1.01401
1.01443
1.01551
1.01567
1.01709
1.01701
1.01861
1.01853
1.02001
0.990726
0.990675
0.990755
0.990844
0.991041
0.99126
0.991579
0.99192
0.992362
0.99282
0.993377
0.993958
0.994605
0.995328
0.996021
0.99692
0.997537
0.99877
0.999114
1.00074
1.00081
1.00266
1.00264
1.0044
0.97203
0.971986
0.972063
0.972175
0.97238
0.972633
0.972972
0.973363
0.973835
0.974367
0.974966
0.975642
0.97636
0.977189
0.978005
0.979005
0.979853
0.981141
0.981821
0.983546
0.983921
0.986058
0.986205
0.988399
0.952844
0.952803
0.952878
0.952999
0.953212
0.953479
0.953833
0.954246
0.954742
0.955305
0.95594
0.95666
0.95743
0.958317
0.959214
0.960287
0.961282
0.962601
0.963598
0.965305
0.966102
0.968387
0.968838
0.971595
0.933278
0.933238
0.933311
0.933433
0.933646
0.933914
0.934271
0.934687
0.935189
0.935757
0.936405
0.937134
0.937924
0.938827
0.939756
0.940853
0.941903
0.943246
0.944372
0.946052
0.947152
0.949394
0.950173
0.953377
0.913477
0.913435
0.913504
0.91362
0.913827
0.914087
0.914438
0.914843
0.915338
0.915892
0.916532
0.917243
0.918027
0.918908
0.919832
0.920904
0.921954
0.923268
0.924394
0.926044
0.927156
0.92935
0.930177
0.933377
0.893542
0.893496
0.893559
0.893666
0.893864
0.894109
0.894446
0.89483
0.895308
0.895835
0.896454
0.897131
0.89789
0.898729
0.899624
0.900644
0.901661
0.902911
0.903983
0.905577
0.906576
0.908725
0.909422
0.91236
0.873602
0.87355
0.873607
0.873702
0.873888
0.874114
0.874434
0.874791
0.875245
0.875736
0.876327
0.876958
0.877683
0.878465
0.879318
0.880269
0.881238
0.882402
0.883416
0.884909
0.88583
0.887853
0.888492
0.891211
0.85372
0.853662
0.853715
0.853795
0.853969
0.854172
0.854474
0.854798
0.855229
0.855677
0.856238
0.856815
0.857504
0.858221
0.85903
0.859905
0.86082
0.86189
0.862846
0.86423
0.865081
0.866955
0.867554
0.870066
0.834001
0.833935
0.833987
0.834046
0.834214
0.834387
0.834674
0.834959
0.83537
0.835765
0.836302
0.836812
0.837473
0.838109
0.838882
0.839667
0.840533
0.841501
0.842398
0.843672
0.844459
0.846176
0.846742
0.849046
0.814475
0.814404
0.814455
0.814492
0.814655
0.814794
0.815073
0.81531
0.81571
0.816041
0.816568
0.816995
0.817645
0.818182
0.818939
0.819614
0.820447
0.82131
0.822146
0.823308
0.824044
0.8256
0.826137
0.828234
0.795222
0.795147
0.795191
0.795217
0.795363
0.795483
0.795735
0.795945
0.796312
0.796603
0.797093
0.797464
0.798077
0.798536
0.79926
0.799835
0.800633
0.801384
0.802176
0.803215
0.803905
0.805297
0.80581
0.807701
0.776255
0.776178
0.77621
0.776233
0.776352
0.776467
0.77668
0.776879
0.777195
0.77747
0.777898
0.778245
0.778788
0.77921
0.779863
0.78038
0.781113
0.78177
0.782526
0.783426
0.78408
0.785314
0.785805
0.787495
0.757628
0.757551
0.757572
0.757589
0.757688
0.75779
0.757972
0.758152
0.758427
0.758678
0.759051
0.75937
0.759847
0.760233
0.760813
0.761277
0.761944
0.762514
0.763229
0.763982
0.764616
0.765695
0.766166
0.767658
0.739349
0.739271
0.739284
0.739293
0.739375
0.739461
0.73962
0.739776
0.740017
0.740239
0.740568
0.740851
0.741274
0.741616
0.742134
0.742541
0.743145
0.743637
0.744301
0.744926
0.745546
0.746465
0.746917
0.748217
0.72145
0.721372
0.721377
0.721379
0.721446
0.721516
0.721651
0.721784
0.721994
0.722185
0.722474
0.722718
0.723094
0.723388
0.723851
0.724198
0.724746
0.725158
0.725769
0.726284
0.726888
0.727644
0.728082
0.729195
0.703941
0.703863
0.703861
0.703855
0.703908
0.703963
0.704078
0.704187
0.704369
0.704528
0.704783
0.704988
0.705319
0.705566
0.705979
0.706268
0.70676
0.7071
0.707657
0.708073
0.708649
0.709253
0.70968
0.710611
0.686835
0.686757
0.68675
0.686736
0.686776
0.686816
0.686911
0.686998
0.687153
0.687282
0.687502
0.68767
0.68796
0.688162
0.688527
0.68876
0.689201
0.68947
0.689976
0.690302
0.69084
0.691302
0.691722
0.692481
0.670144
0.670066
0.670054
0.670033
0.670061
0.670086
0.670163
0.670229
0.670359
0.67046
0.670648
0.67078
0.671032
0.671188
0.671509
0.671688
0.67208
0.672283
0.672739
0.672981
0.673476
0.673809
0.67422
0.674819
0.653868
0.65379
0.653773
0.653746
0.653763
0.653775
0.653835
0.65388
0.653986
0.65406
0.654218
0.654316
0.654531
0.654646
0.654925
0.655052
0.655398
0.655538
0.655946
0.65611
0.65656
0.656784
0.657184
0.657628
0.63802
0.637943
0.637921
0.637887
0.637895
0.637894
0.637938
0.637963
0.638048
0.638096
0.638225
0.63829
0.638471
0.638545
0.638785
0.638863
0.639165
0.639244
0.639608
0.639695
0.640102
0.640228
0.640617
0.64091
0.622592
0.622516
0.622491
0.622452
0.62245
0.622437
0.622466
0.622473
0.622537
0.622561
0.622664
0.622698
0.622847
0.622884
0.623086
0.623118
0.62338
0.623403
0.623723
0.623742
0.624108
0.624146
0.624513
0.624668
0.607594
0.607519
0.60749
0.607446
0.607435
0.607411
0.607426
0.607417
0.60746
0.607461
0.607539
0.607544
0.607663
0.607663
0.60783
0.607818
0.608041
0.60801
0.608292
0.608244
0.608574
0.608529
0.60887
0.608897
0.593019
0.592945
0.592914
0.592865
0.592846
0.592812
0.592814
0.592789
0.592814
0.592794
0.592849
0.592826
0.592916
0.592883
0.593018
0.592965
0.593151
0.593071
0.593314
0.593205
0.593497
0.593374
0.593687
0.593599
0.578867
0.578795
0.57876
0.578708
0.578682
0.578638
0.578627
0.578587
0.578596
0.578555
0.578588
0.578539
0.578603
0.578538
0.578642
0.57855
0.578702
0.578574
0.578781
0.578613
0.578872
0.578673
0.578958
0.578769
0.565137
0.565067
0.56503
0.564973
0.564941
0.564888
0.564866
0.564813
0.564806
0.564746
0.564759
0.564686
0.564726
0.564631
0.564706
0.564578
0.564698
0.564526
0.564699
0.564476
0.564703
0.564434
0.564694
0.564408
0.55182
0.551751
0.551713
0.551653
0.551614
0.551554
0.551521
0.551455
0.551434
0.551357
0.551351
0.551256
0.551272
0.55115
0.551198
0.551037
0.551127
0.550915
0.551057
0.550783
0.550981
0.550646
0.550887
0.55051
0.538916
0.53885
0.538809
0.538746
0.538702
0.538634
0.538593
0.538515
0.53848
0.538387
0.538364
0.538248
0.538243
0.538096
0.538119
0.537928
0.537991
0.53774
0.537855
0.537533
0.537706
0.537309
0.537533
0.537072
0.526415
0.526351
0.526309
0.526243
0.526195
0.52612
0.52607
0.525982
0.525935
0.525827
0.525787
0.525653
0.525629
0.525458
0.525459
0.525239
0.525277
0.524992
0.525081
0.524716
0.524866
0.524413
0.524622
0.524085
0.514313
0.514251
0.514207
0.51414
0.514087
0.514006
0.513949
0.513851
0.513792
0.513671
0.513617
0.513465
0.513423
0.513231
0.513211
0.512965
0.512981
0.512663
0.51273
0.512325
0.512454
0.51195
0.512145
0.511539
0.502602
0.502542
0.502498
0.502429
0.502372
0.502286
0.502221
0.502114
0.502045
0.501912
0.501844
0.501677
0.501619
0.501407
0.501368
0.501098
0.501093
0.500746
0.500792
0.50035
0.500461
0.499909
0.500092
0.499423
0.491274
0.491216
0.491171
0.4911
0.491039
0.490949
0.490878
0.490763
0.490685
0.49054
0.49046
0.490279
0.490205
0.489976
0.489919
0.489627
0.489603
0.48923
0.489256
0.488781
0.488875
0.48828
0.488453
0.487726
0.480322
0.480266
0.480221
0.480149
0.480085
0.47999
0.479913
0.479791
0.479704
0.479549
0.479458
0.479263
0.479176
0.47893
0.478858
0.478546
0.478504
0.478107
0.478115
0.47761
0.477687
0.477053
0.477215
0.476437
0.469736
0.469683
0.469637
0.469564
0.469497
0.469399
0.469316
0.469187
0.469093
0.468929
0.468828
0.468621
0.468521
0.46826
0.468172
0.467843
0.467784
0.467365
0.467356
0.466824
0.466886
0.466217
0.466369
0.465543
0.45951
0.459459
0.459413
0.459339
0.45927
0.459168
0.459081
0.458946
0.458844
0.458672
0.458561
0.458343
0.458231
0.457957
0.457856
0.45751
0.457436
0.456997
0.456972
0.456415
0.456463
0.455762
0.455904
0.455035
0.449634
0.449584
0.449538
0.449464
0.449393
0.449288
0.449196
0.449056
0.448948
0.448768
0.448648
0.44842
0.448298
0.448011
0.447898
0.447537
0.447448
0.446992
0.446951
0.446373
0.446406
0.445676
0.445808
0.444901
0.4401
0.440053
0.440006
0.439932
0.439859
0.439751
0.439655
0.43951
0.439397
0.439209
0.439082
0.438845
0.438713
0.438415
0.43829
0.437915
0.437814
0.437341
0.437286
0.436688
0.436707
0.435952
0.436074
0.435131
0.430898
0.430853
0.430807
0.430732
0.430657
0.430547
0.430448
0.430299
0.43018
0.429986
0.429852
0.429607
0.429466
0.429158
0.429022
0.428635
0.428521
0.428035
0.427965
0.42735
0.427356
0.426577
0.42669
0.425714
0.422022
0.421979
0.421933
0.421858
0.421782
0.421669
0.421568
0.421414
0.421291
0.421092
0.420951
0.420699
0.42055
0.420233
0.420087
0.419689
0.419564
0.419065
0.418983
0.418353
0.418345
0.417547
0.417649
0.416643
0.413461
0.41342
0.413374
0.413298
0.413221
0.413107
0.413003
0.412846
0.412718
0.412514
0.412368
0.412109
0.411953
0.411628
0.411474
0.411066
0.410932
0.41042
0.410329
0.409684
0.409665
0.408851
0.408942
0.407912
0.405208
0.405169
0.405123
0.405047
0.404969
0.404854
0.404747
0.404587
0.404456
0.404248
0.404097
0.403832
0.40367
0.403337
0.403177
0.402759
0.402618
0.402095
0.401996
0.401338
0.401312
0.400482
0.400565
0.399517
0.397252
0.397215
0.397169
0.397094
0.397015
0.396898
0.39679
0.396627
0.396493
0.39628
0.396126
0.395855
0.395689
0.395349
0.395183
0.394757
0.394611
0.394076
0.393973
0.393301
0.393271
0.392426
0.392506
0.391444
0.389588
0.389553
0.389507
0.389432
0.389353
0.389235
0.389125
0.38896
0.388823
0.388607
0.388449
0.388173
0.388003
0.387656
0.387486
0.387052
0.386901
0.386357
0.38625
0.385566
0.385533
0.384675
0.384752
0.383679
0.382204
0.382171
0.382126
0.382051
0.381971
0.381852
0.381741
0.381574
0.381435
0.381215
0.381054
0.380775
0.3806
0.380249
0.380074
0.379634
0.379478
0.378927
0.378814
0.378123
0.378084
0.377217
0.377289
0.376207
0.375096
0.375063
0.375019
0.374944
0.374864
0.374744
0.374632
0.374463
0.374322
0.3741
0.373937
0.373653
0.373476
0.37312
0.372941
0.372496
0.372335
0.371778
0.37166
0.370962
0.370918
0.370044
0.37011
0.36902
0.368251
0.36822
0.368176
0.368101
0.368021
0.367901
0.367787
0.367617
0.367475
0.36725
0.367084
0.366798
0.366617
0.366258
0.366075
0.365626
0.36546
0.364899
0.364775
0.364073
0.364023
0.363143
0.363203
0.362106
0.361665
0.361636
0.361592
0.361518
0.361438
0.361316
0.361202
0.361031
0.360887
0.360661
0.360493
0.360204
0.36002
0.359658
0.359471
0.359019
0.358848
0.358284
0.358155
0.357448
0.357392
0.356508
0.356563
0.35546
0.355328
0.3553
0.355257
0.355183
0.355102
0.35498
0.354866
0.354693
0.354549
0.35432
0.354151
0.35386
0.353674
0.353309
0.353119
0.352664
0.352489
0.351922
0.351787
0.351078
0.351016
0.350128
0.350178
0.34907
0.349235
0.349207
0.349165
0.349091
0.349011
0.348889
0.348774
0.3486
0.348455
0.348225
0.348054
0.347761
0.347573
0.347205
0.347013
0.346556
0.346378
0.345808
0.345669
0.344957
0.34489
0.343999
0.344044
0.342932
0.343375
0.343349
0.343307
0.343233
0.343153
0.343031
0.342916
0.342741
0.342596
0.342364
0.342193
0.341897
0.341708
0.341338
0.341145
0.340684
0.340504
0.339932
0.339789
0.339075
0.339004
0.33811
0.338151
0.337037
0.337745
0.33772
0.337678
0.337605
0.337525
0.337402
0.337288
0.337112
0.336966
0.336733
0.336562
0.336263
0.336075
0.335702
0.335508
0.335045
0.334863
0.334289
0.334144
0.333428
0.333354
0.332458
0.332495
0.33138
0.332335
0.33231
0.332269
0.332196
0.332117
0.331993
0.33188
0.331702
0.331558
0.331322
0.331152
0.330851
0.330663
0.330287
0.330094
0.329627
0.329447
0.328868
0.328724
0.328005
0.32793
0.327032
0.327066
0.325952
0.32714
0.327117
0.327076
0.327003
0.326925
0.326801
0.326688
0.326509
0.326365
0.326128
0.325959
0.325655
0.32547
0.325089
0.324899
0.324428
0.32425
0.323667
0.323525
0.322802
0.322729
0.321827
0.321861
0.320748
0.322153
0.32213
0.32209
0.322017
0.321939
0.321814
0.321703
0.321523
0.321381
0.32114
0.320974
0.320667
0.320485
0.3201
0.319914
0.319436
0.319264
0.318674
0.318538
0.317808
0.317741
0.316834
0.316869
0.315758
0.317369
0.317347
0.317307
0.317234
0.317157
0.317032
0.316921
0.31674
0.3166
0.316357
0.316194
0.315882
0.315704
0.315314
0.315134
0.31465
0.314484
0.313887
0.313759
0.31302
0.312961
0.312051
0.312086
0.31098
0.312779
0.312757
0.312719
0.312645
0.31257
0.312443
0.312335
0.312151
0.312014
0.311768
0.311608
0.311293
0.31112
0.310724
0.31055
0.310059
0.309901
0.309296
0.309176
0.30843
0.308378
0.307466
0.307501
0.306401
0.308381
0.30836
0.308322
0.308248
0.308174
0.308046
0.30794
0.307754
0.307619
0.307371
0.307215
0.306896
0.306727
0.306327
0.306159
0.305662
0.305511
0.304898
0.304787
0.304035
0.303988
0.303075
0.30311
0.302016
0.304166
0.304145
0.304108
0.304034
0.303961
0.303832
0.303727
0.303541
0.303408
0.303158
0.303005
0.302683
0.302518
0.302114
0.301951
0.301449
0.301304
0.300686
0.300583
0.299825
0.299782
0.298869
0.298903
0.297813
0.300132
0.300111
0.300074
0.3
0.299928
0.299799
0.299696
0.299507
0.299378
0.299125
0.298976
0.29865
0.298491
0.298082
0.297925
0.297418
0.297281
0.296656
0.29656
0.295798
0.295759
0.294846
0.294879
0.293793
0.29627
0.29625
0.296213
0.296139
0.296069
0.295938
0.295838
0.295646
0.295521
0.295264
0.295121
0.294789
0.294638
0.294221
0.294075
0.293557
0.293433
0.292798
0.292712
0.291945
0.291909
0.290998
0.29103
0.28995
0.292579
0.292558
0.292523
0.292448
0.29238
0.292247
0.29215
0.291955
0.291836
0.291572
0.291438
0.291097
0.290958
0.290529
0.290397
0.289867
0.289757
0.289112
0.289034
0.288264
0.288231
0.287322
0.287353
0.286281
0.289051
0.28903
0.288996
0.28892
0.288854
0.288718
0.288627
0.288426
0.288315
0.288043
0.287919
0.287568
0.287442
0.287001
0.286883
0.286342
0.286242
0.285592
0.285519
0.284749
0.284718
0.283812
0.283841
0.282777
0.285683
0.285663
0.28563
0.285551
0.285489
0.28535
0.285264
0.285057
0.284954
0.284674
0.284562
0.2842
0.284086
0.283636
0.283527
0.28298
0.282886
0.282234
0.282164
0.281396
0.281365
0.280464
0.28049
0.279433
0.282471
0.28245
0.282419