/*--------------------------------*- C++ -*----------------------------------*\
  =========                 |
  \\      /  F ield         | OpenFOAM: The Open Source CFD Toolbox
   \\    /   O peration     | Website:  https://openfoam.org
    \\  /    A nd           | Version:  10
     \\/     M anipulation  |
\*---------------------------------------------------------------------------*/
FoamFile
{
    format      ascii;
    class       volScalarField;
    location    "0.1";
    object      p;
}
// * * * * * * * * * * * * * * * * * * * * * * * * * * * * * * * * * * * * * //

dimensions      [1 -1 -2 0 0 0 0];

internalField   nonuniform List<scalar> 
4176
(
1618.39
1618.59
1619.09
1619.72
1620.78
1621.79
1623.42
1624.81
1626.99
1628.77
1631.45
1633.67
1636.77
1639.53
1642.88
1646.37
1649.64
1654.26
1657.2
1663.16
1665.5
1673.08
1674.26
1682.94
1617.53
1617.71
1618.18
1618.78
1619.74
1620.74
1622.2
1623.57
1625.54
1627.27
1629.74
1631.86
1634.75
1637.34
1640.53
1643.76
1646.89
1651.15
1653.96
1659.51
1661.6
1669.03
1670.26
1680
1618.68
1618.87
1619.34
1619.96
1620.93
1621.95
1623.44
1624.83
1626.85
1628.6
1631.13
1633.28
1636.25
1638.86
1642.15
1645.41
1648.65
1653.01
1655.81
1661.5
1663.57
1670.89
1672.02
1681.45
1619.91
1620.1
1620.56
1621.17
1622.13
1623.12
1624.59
1625.94
1627.93
1629.63
1632.14
1634.21
1637.18
1639.69
1642.98
1646.14
1649.38
1653.77
1656.28
1662.14
1664.07
1671.29
1672.34
1681.17
1622.23
1622.42
1622.88
1623.49
1624.44
1625.43
1626.89
1628.25
1630.22
1631.93
1634.41
1636.5
1639.44
1641.96
1645.25
1648.35
1651.71
1655.93
1658.6
1664.37
1666.38
1673.54
1674.68
1683.49
1625.19
1625.37
1625.82
1626.43
1627.36
1628.35
1629.78
1631.14
1633.07
1634.78
1637.22
1639.3
1642.19
1644.69
1647.95
1651
1654.4
1658.41
1661.31
1666.84
1668.91
1676
1677.21
1686.11
1628.98
1629.16
1629.61
1630.21
1631.13
1632.12
1633.53
1634.88
1636.79
1638.49
1640.9
1642.96
1645.84
1648.31
1651.56
1654.55
1657.97
1661.85
1664.85
1670.22
1672.38
1679.36
1680.61
1689.4
1633.51
1633.7
1634.14
1634.73
1635.65
1636.62
1638.02
1639.35
1641.24
1642.93
1645.31
1647.35
1650.19
1652.62
1655.85
1658.79
1662.21
1665.96
1669.05
1674.24
1676.48
1683.36
1684.64
1693.34
1638.83
1639.02
1639.46
1640.05
1640.95
1641.92
1643.3
1644.62
1646.49
1648.15
1650.5
1652.52
1655.33
1657.73
1660.94
1663.81
1667.24
1670.87
1674.02
1679.05
1681.36
1688.1
1689.43
1698
1644.93
1645.12
1645.55
1646.13
1647.03
1647.98
1649.34
1650.65
1652.49
1654.14
1656.46
1658.45
1661.23
1663.59
1666.77
1669.59
1673.01
1676.53
1679.73
1684.59
1686.98
1693.54
1694.92
1703.36
1651.82
1652
1652.43
1653.01
1653.89
1654.83
1656.18
1657.47
1659.29
1660.91
1663.2
1665.16
1667.91
1670.22
1673.37
1676.13
1679.53
1682.95
1686.19
1690.88
1693.33
1699.74
1701.14
1709.45
1659.49
1659.68
1660.1
1660.67
1661.54
1662.47
1663.79
1665.06
1666.86
1668.46
1670.72
1672.64
1675.36
1677.63
1680.75
1683.44
1686.82
1690.14
1693.41
1697.93
1700.44
1706.66
1708.1
1716.26
1667.97
1668.15
1668.56
1669.13
1669.98
1670.9
1672.21
1673.46
1675.23
1676.8
1679.03
1680.91
1683.6
1685.82
1688.9
1691.53
1694.88
1698.1
1701.39
1705.75
1708.3
1714.35
1715.8
1723.8
1677.25
1677.43
1677.83
1678.39
1679.23
1680.13
1681.42
1682.65
1684.39
1685.93
1688.13
1689.98
1692.62
1694.79
1697.83
1700.39
1703.71
1706.84
1710.14
1714.33
1716.92
1722.79
1724.25
1732.09
1687.34
1687.52
1687.92
1688.47
1689.29
1690.18
1691.44
1692.65
1694.36
1695.87
1698.03
1699.84
1702.44
1704.56
1707.56
1710.05
1713.33
1716.35
1719.65
1723.69
1726.31
1732
1733.46
1741.12
1698.26
1698.44
1698.83
1699.37
1700.18
1701.05
1702.28
1703.46
1705.14
1706.62
1708.74
1710.5
1713.06
1715.13
1718.08
1720.5
1723.74
1726.66
1729.95
1733.82
1736.47
1741.97
1743.45
1750.92
1710.02
1710.19
1710.58
1711.1
1711.9
1712.74
1713.96
1715.11
1716.75
1718.19
1720.27
1721.99
1724.5
1726.5
1729.41
1731.75
1734.95
1737.77
1741.04
1744.74
1747.42
1752.71
1754.22
1761.49
1722.62
1722.79
1723.17
1723.68
1724.46
1725.29
1726.47
1727.59
1729.2
1730.59
1732.63
1734.3
1736.76
1738.7
1741.55
1743.82
1746.97
1749.69
1752.92
1756.46
1759.16
1764.24
1765.78
1772.84
1736.08
1736.25
1736.62
1737.12
1737.88
1738.68
1739.84
1740.93
1742.49
1743.85
1745.84
1747.45
1749.85
1751.73
1754.52
1756.71
1759.8
1762.42
1765.61
1768.99
1771.7
1776.58
1778.14
1784.98
1750.41
1750.58
1750.94
1751.43
1752.16
1752.94
1754.07
1755.12
1756.65
1757.96
1759.89
1761.45
1763.79
1765.6
1768.33
1770.43
1773.46
1775.97
1779.12
1782.33
1785.05
1789.72
1791.3
1797.93
1765.63
1765.79
1766.14
1766.62
1767.33
1768.09
1769.18
1770.19
1771.68
1772.94
1774.82
1776.31
1778.6
1780.33
1782.99
1785
1787.96
1790.36
1793.46
1796.51
1799.23
1803.68
1805.28
1811.68
1781.75
1781.91
1782.25
1782.7
1783.39
1784.12
1785.18
1786.15
1787.59
1788.8
1790.62
1792.05
1794.27
1795.93
1798.51
1800.43
1803.32
1805.6
1808.64
1811.53
1814.25
1818.47
1820.09
1826.25
1798.78
1798.94
1799.26
1799.7
1800.37
1801.06
1802.08
1803.02
1804.4
1805.56
1807.32
1808.69
1810.84
1812.41
1814.92
1816.74
1819.56
1821.71
1824.68
1827.42
1830.11
1834.11
1835.74
1841.65
1816.73
1816.89
1817.2
1817.62
1818.26
1818.93
1819.9
1820.79
1822.13
1823.23
1824.93
1826.22
1828.3
1829.79
1832.22
1833.94
1836.67
1838.71
1841.6
1844.18
1846.85
1850.61
1852.24
1857.9
1835.63
1835.78
1836.08
1836.48
1837.09
1837.73
1838.66
1839.51
1840.78
1841.82
1843.46
1844.68
1846.68
1848.08
1850.43
1852.05
1854.7
1856.6
1859.42
1861.83
1864.46
1867.99
1869.61
1875
1855.47
1855.62
1855.91
1856.3
1856.88
1857.48
1858.37
1859.16
1860.38
1861.36
1862.93
1864.07
1865.99
1867.3
1869.57
1871.07
1873.63
1875.41
1878.14
1880.39
1882.98
1886.27
1887.87
1893
1876.29
1876.43
1876.7
1877.07
1877.62
1878.19
1879.04
1879.78
1880.95
1881.85
1883.35
1884.41
1886.25
1887.47
1889.65
1891.04
1893.51
1895.15
1897.79
1899.87
1902.4
1905.45
1907.04
1911.91
1898.08
1898.22
1898.48
1898.83
1899.35
1899.88
1900.69
1901.38
1902.48
1903.32
1904.75
1905.72
1907.48
1908.59
1910.68
1911.95
1914.33
1915.84
1918.39
1920.3
1922.76
1925.56
1927.15
1931.73
1920.87
1921.01
1921.25
1921.58
1922.08
1922.57
1923.33
1923.97
1925.01
1925.78
1927.13
1928.02
1929.69
1930.7
1932.69
1933.85
1936.12
1937.49
1939.94
1941.68
1944.06
1946.61
1948.19
1952.47
1944.67
1944.81
1945.04
1945.35
1945.81
1946.27
1946.98
1947.57
1948.55
1949.25
1950.52
1951.32
1952.91
1953.81
1955.7
1956.73
1958.9
1960.12
1962.47
1964.04
1966.34
1968.64
1970.2
1974.18
1969.51
1969.64
1969.85
1970.14
1970.57
1970.99
1971.65
1972.19
1973.11
1973.74
1974.93
1975.65
1977.14
1977.93
1979.73
1980.62
1982.69
1983.76
1986
1987.39
1989.61
1991.66
1993.19
1996.86
1995.38
1995.51
1995.71
1995.97
1996.37
1996.75
1997.37
1997.85
1998.7
1999.26
2000.38
2001.01
2002.41
2003.1
2004.79
2005.55
2007.51
2008.42
2010.55
2011.76
2013.88
2015.69
2017.2
2020.54
2022.32
2022.44
2022.63
2022.87
2023.24
2023.58
2024.14
2024.57
2025.36
2025.85
2026.89
2027.42
2028.74
2029.31
2030.9
2031.53
2033.38
2034.13
2036.15
2037.17
2039.18
2040.76
2042.24
2045.25
2050.33
2050.45
2050.62
2050.84
2051.18
2051.48
2052
2052.37
2053.09
2053.5
2054.47
2054.91
2056.13
2056.59
2058.09
2058.59
2060.32
2060.92
2062.82
2063.64
2065.54
2066.88
2068.33
2071
2079.44
2079.56
2079.71
2079.91
2080.21
2080.48
2080.95
2081.26
2081.92
2082.26
2083.14
2083.49
2084.62
2084.97
2086.36
2086.72
2088.35
2088.79
2090.57
2091.21
2092.99
2094.09
2095.49
2097.8
2109.66
2109.77
2109.91
2110.1
2110.36
2110.59
2111.01
2111.27
2111.86
2112.12
2112.93
2113.18
2114.22
2114.45
2115.74
2115.97
2117.49
2117.76
2119.44
2119.88
2121.55
2122.4
2123.73
2125.7
2141.01
2141.12
2141.25
2141.41
2141.65
2141.84
2142.21
2142.41
2142.94
2143.13
2143.85
2144.01
2144.95
2145.07
2146.25
2146.34
2147.75
2147.86
2149.42
2149.67
2151.23
2151.85
2153.08
2154.69
2173.51
2173.62
2173.73
2173.88
2174.08
2174.23
2174.56
2174.7
2175.17
2175.28
2175.93
2175.99
2176.84
2176.84
2177.92
2177.86
2179.16
2179.09
2180.55
2180.6
2182.05
2182.44
2183.58
2184.83
2207.19
2207.3
2207.39
2207.51
2207.69
2207.81
2208.08
2208.17
2208.57
2208.61
2209.18
2209.15
2209.9
2209.78
2210.76
2210.55
2211.74
2211.5
2212.84
2212.68
2214.03
2214.18
2215.24
2216.13
2242.06
2242.17
2242.25
2242.35
2242.49
2242.57
2242.79
2242.83
2243.17
2243.14
2243.62
2243.5
2244.16
2243.92
2244.79
2244.44
2245.51
2245.09
2246.32
2245.95
2247.18
2247.09
2248.06
2248.63
2278.15
2278.25
2278.32
2278.4
2278.51
2278.55
2278.73
2278.71
2278.98
2278.88
2279.28
2279.06
2279.63
2279.27
2280.04
2279.54
2280.5
2279.9
2281.01
2280.42
2281.55
2281.19
2282.06
2282.34
2315.48
2315.58
2315.63
2315.69
2315.77
2315.77
2315.9
2315.83
2316.03
2315.85
2316.18
2315.86
2316.34
2315.86
2316.52
2315.88
2316.73
2315.94
2316.95
2316.13
2317.15
2316.51
2317.29
2317.24
2354.08
2354.17
2354.21
2354.25
2354.29
2354.26
2354.33
2354.2
2354.34
2354.09
2354.33
2353.91
2354.3
2353.7
2354.26
2353.46
2354.22
2353.24
2354.15
2353.09
2354.02
2353.09
2353.79
2353.37
2393.96
2394.05
2394.07
2394.09
2394.1
2394.03
2394.05
2393.86
2393.93
2393.6
2393.76
2393.25
2393.54
2392.81
2393.27
2392.32
2392.97
2391.8
2392.62
2391.32
2392.17
2390.95
2391.58
2390.79
2435.14
2435.23
2435.24
2435.24
2435.21
2435.1
2435.07
2434.83
2434.83
2434.42
2434.49
2433.88
2434.07
2433.22
2433.58
2432.47
2433.02
2431.66
2432.37
2430.84
2431.61
2430.09
2430.67
2429.52
2477.66
2477.75
2477.74
2477.72
2477.66
2477.51
2477.42
2477.12
2477.05
2476.56
2476.55
2475.83
2475.93
2474.95
2475.2
2473.94
2474.38
2472.82
2473.44
2471.66
2472.37
2470.53
2471.08
2469.53
2521.53
2521.62
2521.59
2521.55
2521.45
2521.26
2521.12
2520.76
2520.62
2520.04
2519.95
2519.13
2519.12
2518.02
2518.16
2516.74
2517.07
2515.31
2515.84
2513.8
2514.45
2512.28
2512.84
2510.86
2566.77
2566.85
2566.81
2566.74
2566.61
2566.38
2566.18
2565.76
2565.55
2564.89
2564.71
2563.78
2563.68
2562.45
2562.48
2560.89
2561.13
2559.15
2559.6
2557.28
2557.88
2555.36
2555.96
2553.54
2613.39
2613.47
2613.41
2613.32
2613.15
2612.88
2612.63
2612.14
2611.86
2611.12
2610.85
2609.82
2609.62
2608.25
2608.18
2606.42
2606.56
2604.37
2604.74
2602.14
2602.7
2599.8
2600.43
2597.59
2661.4
2661.48
2661.41
2661.29
2661.09
2660.78
2660.47
2659.92
2659.57
2658.75
2658.39
2657.25
2656.95
2655.44
2655.28
2653.34
2653.39
2650.97
2651.28
2648.37
2648.94
2645.63
2646.28
2643.03
2710.83
2710.9
2710.82
2710.68
2710.44
2710.09
2709.73
2709.12
2708.69
2707.78
2707.34
2706.09
2705.7
2704.05
2703.79
2701.66
2701.64
2698.97
2699.24
2695.99
2696.63
2692.87
2693.53
2689.88
2761.68
2761.74
2761.64
2761.49
2761.21
2760.82
2760.4
2759.73
2759.23
2758.24
2757.72
2756.35
2755.88
2754.07
2753.74
2751.41
2751.33
2748.39
2748.65
2745.04
2745.69
2741.58
2742.2
2738.16
2813.95
2814.01
2813.9
2813.72
2813.4
2812.97
2812.5
2811.78
2811.21
2810.13
2809.53
2808.05
2807.5
2805.53
2805.14
2802.58
2802.48
2799.23
2799.54
2795.54
2796.18
2791.75
2792.32
2787.91
2867.65
2867.71
2867.58
2867.38
2867.03
2866.57
2866.04
2865.26
2864.62
2863.46
2862.79
2861.18
2860.57
2858.42
2858
2855.19
2855.1
2851.52
2851.86
2847.55
2848.12
2843.39
2843.91
2839.12
2922.78
2922.84
2922.7
2922.48
2922.09
2921.59
2921.02
2920.17
2919.48
2918.23
2917.51
2915.75
2915.12
2912.75
2912.36
2909.25
2909.21
2905.31
2905.61
2901.05
2901.54
2896.52
2896.98
2891.83
2979.34
2979.4
2979.24
2979.01
2978.59
2978.06
2977.43
2976.53
2975.79
2974.43
2973.69
2971.76
2971.16
2968.52
2968.19
2964.79
2964.74
2960.63
2960.83
2956.06
2956.45
2951.15
2951.55
2946.04
3037.32
3037.39
3037.21
3036.97
3036.52
3035.96
3035.29
3034.33
3033.56
3032.07
3031.36
3029.21
3028.65
3025.8
3025.43
3021.88
3021.72
3017.45
3017.54
3012.56
3012.86
3007.3
3007.64
3001.78
3096.73
3096.81
3096.6
3096.37
3095.87
3095.31
3094.58
3093.55
3092.79
3091.16
3090.45
3088.17
3087.55
3084.6
3084.13
3080.45
3080.19
3075.77
3075.75
3070.58
3070.78
3064.97
3065.25
3059.05
3157.56
3157.65
3157.41
3157.2
3156.63
3156.08
3155.29
3154.24
3153.42
3151.73
3150.96
3148.61
3147.91
3144.87
3144.31
3140.52
3140.15
3135.59
3135.47
3130.11
3130.22
3124.17
3124.38
3117.86
3219.81
3219.9
3219.66
3219.42
3218.85
3218.27
3217.42
3216.4
3215.48
3213.76
3212.92
3210.5
3209.73
3206.61
3205.96
3202.07
3201.61
3196.91
3196.69
3191.16
3191.18
3184.9
3185.05
3178.22
3283.47
3283.56
3283.33
3283.07
3282.49
3281.89
3280.99
3279.99
3278.93
3277.28
3276.31
3273.86
3273.02
3269.82
3269.08
3265.11
3264.55
3259.73
3259.42
3253.73
3253.66
3247.16
3247.26
3240.12
3348.55
3348.64
3348.41
3348.14
3347.55
3346.93
3346.01
3344.99
3343.84
3342.24
3341.11
3338.71
3337.76
3334.5
3333.68
3329.62
3328.98
3324.04
3323.64
3317.8
3317.65
3310.94
3310.98
3303.56
3415.05
3415.14
3414.91
3414.63
3414.03
3413.4
3412.45
3411.43
3410.2
3408.63
3407.38
3405.01
3403.92
3400.64
3399.75
3395.61
3394.89
3389.84
3389.36
3383.36
3383.14
3376.24
3376.22
3368.53
3482.97
3483.07
3482.83
3482.55
3481.94
3481.3
3480.32
3479.29
3478.01
3476.45
3475.1
3472.75
3471.54
3468.26
3467.27
3463.06
3462.25
3457.1
3456.54
3450.41
3450.12
3443.03
3442.96
3435.01
3552.33
3552.43
3552.19
3551.91
3551.29
3550.64
3549.63
3548.59
3547.26
3545.7
3544.27
3541.93
3540.61
3537.32
3536.23
3531.95
3531.07
3525.82
3525.18
3518.93
3518.56
3511.3
3511.18
3502.99
3623.14
3623.25
3623
3622.73
3622.08
3621.42
3620.39
3619.33
3617.96
3616.4
3614.87
3612.53
3611.12
3607.8
3606.62
3602.27
3601.33
3595.97
3595.26
3588.88
3588.44
3581.03
3580.85
3572.45
3695.42
3695.54
3695.28
3695
3694.34
3693.67
3692.6
3691.52
3690.1
3688.53
3686.91
3684.56
3683.05
3679.69
3678.43
3674.01
3672.99
3667.53
3666.76
3660.26
3659.75
3652.19
3651.96
3643.35
3769.18
3769.31
3769.03
3768.75
3768.06
3767.37
3766.26
3765.15
3763.67
3762.08
3760.35
3758
3756.38
3752.98
3751.64
3747.13
3746.06
3740.49
3739.64
3733.04
3732.45
3724.75
3724.48
3715.69
3844.41
3844.54
3844.25
3843.96
3843.23
3842.51
3841.36
3840.21
3838.66
3837.03
3835.19
3832.84
3831.07
3827.66
3826.21
3821.62
3820.5
3814.82
3813.9
3807.19
3806.53
3798.72
3798.39
3789.43
3921.08
3921.22
3920.91
3920.59
3919.83
3919.07
3917.86
3916.66
3915.03
3913.35
3911.4
3909.05
3907.11
3903.72
3902.12
3897.48
3896.28
3890.5
3889.51
3882.71
3881.98
3874.06
3873.68
3864.58
3999.12
3999.26
3998.94
3998.58
3997.79
3996.98
3995.72
3994.45
3992.75
3991.01
3988.95
3986.59
3984.47
3981.12
3979.32
3974.71
3973.37
3967.53
3966.48
3959.59
3958.79
3950.79
3950.35
3941.13
4078.39
4078.53
4078.2
4077.82
4077.01
4076.14
4074.84
4073.51
4071.75
4069.95
4067.8
4065.42
4063.14
4059.84
4057.82
4053.28
4051.74
4045.91
4044.8
4037.84
4036.98
4028.9
4028.42
4019.1
4158.73
4158.87
4158.54
4158.14
4157.32
4156.43
4155.11
4153.75
4151.95
4150.1
4147.89
4145.5
4143.09
4139.84
4137.61
4133.19
4131.45
4125.68
4124.45
4117.46
4116.54
4108.42
4107.91
4098.51
4239.92
4240.07
4239.76
4239.37
4238.56
4237.68
4236.38
4235.02
4233.23
4231.39
4229.16
4226.78
4224.3
4221.12
4218.73
4214.44
4212.48
4206.84
4205.45
4198.51
4197.53
4189.37
4188.86
4179.39
4321.79
4321.95
4321.68
4321.32
4320.57
4319.74
4318.5
4317.21
4315.48
4313.71
4311.53
4309.22
4306.74
4303.66
4301.19
4297.04
4294.92
4289.42
4287.88
4280.99
4279.99
4271.8
4271.3
4261.79
4404.23
4404.41
4404.19
4403.9
4403.23
4402.5
4401.37
4400.2
4398.6
4396.96
4394.91
4392.74
4390.35
4387.42
4384.97
4381
4378.79
4373.48
4371.82
4364.97
4363.98
4355.75
4355.26
4345.72
4487.3
4487.51
4487.34
4487.13
4486.57
4485.97
4484.99
4483.98
4482.56
4481.12
4479.25
4477.29
4475.07
4472.36
4470.03
4466.29
4464.1
4459.03
4457.31
4450.6
4449.57
4441.29
4440.83
4431.21
4571.26
4571.5
4571.39
4571.27
4570.81
4570.35
4569.51
4568.69
4567.45
4566.22
4564.57
4562.86
4560.86
4558.4
4556.3
4552.81
4550.79
4545.98
4544.37
4537.81
4536.87
4528.53
4528.1
4518.33
4656.63
4656.91
4656.81
4656.79
4656.37
4656.05
4655.29
4654.64
4653.53
4652.51
4651.02
4649.56
4647.75
4645.55
4643.74
4640.43
4638.81
4634.08
4632.9
4626.4
4625.82
4617.5
4617.19
4607.28
4744.13
4744.48
4744.32
4744.42
4743.91
4743.75
4742.88
4742.45
4741.23
4740.44
4738.94
4737.67
4735.97
4733.92
4732.49
4728.98
4728.2
4723.01
4722.77
4716.04
4716.1
4707.93
4707.94
4698.41
4834.67
4835
4834.89
4834.85
4834.42
4834.06
4833.27
4832.6
4831.47
4830.49
4829.02
4827.68
4825.92
4824.05
4822.45
4819.13
4818.46
4813.34
4813.37
4806.74
4807.2
4799.15
4799.62
4790.73
4929.14
4929.44
4929.29
4929.15
4928.6
4928.06
4927.11
4926.21
4924.87
4923.62
4921.92
4920.34
4918.34
4916.33
4914.3
4911.28
4909.99
4905.17
4905.07
4898.38
4899.08
4890.87
4891.71
4882.89
5028.26
5028.54
5028.31
5028.03
5027.3
5026.53
5025.29
5024.06
5022.35
5020.7
5018.57
5016.53
5014.05
5011.62
5009.01
5005.76
5003.78
4998.96
4998.32
4991.34
4992.11
4983.41
4984.52
4975.32
5132.5
5132.79
5132.43
5132.04
5131.06
5130.05
5128.45
5126.87
5124.67
5122.56
5119.81
5117.21
5114.03
5110.94
5107.53
5103.64
5100.85
5095.37
5094.12
5086.33
5086.9
5077.34
5078.57
5068.55
5242
5242.33
5241.8
5241.36
5240.11
5238.92
5236.91
5235.06
5232.26
5229.84
5226.26
5223.24
5219.08
5215.32
5210.96
5206.12
5202.47
5195.59
5193.65
5184.51
5184.44
5173.56
5174.62
5163.24
5356.57
5356.86
5356.35
5355.69
5354.4
5352.89
5350.75
5348.44
5345.44
5342.35
5338.51
5334.65
5330.02
5325.38
5320.1
5314.57
5309.26
5301.71
5298.15
5287.66
5286.25
5273.51
5273.87
5260.33
5475.67
5475.94
5475.43
5474.68
5473.31
5471.65
5469.36
5466.82
5463.6
5460.18
5456.02
5451.71
5446.62
5441.39
5435.43
5429.19
5422.6
5414.86
5408.65
5398.05
5394.17
5379.56
5378.41
5361.59
5598.58
5598.83
5598.33
5597.55
5596.15
5594.43
5592.07
5589.43
5586.1
5582.53
5578.2
5573.68
5568.35
5562.82
5556.49
5549.84
5542.65
5534.5
5526.9
5516.41
5509.56
5494.8
5491.11
5470.41
5724.46
5724.71
5724.24
5723.47
5722.07
5720.37
5718.01
5715.38
5712.04
5708.47
5704.13
5699.59
5694.22
5688.66
5682.26
5675.55
5668.22
5659.99
5652.07
5641.66
5633.78
5619.6
5613.99
5591.47
5852.43
5852.72
5852.27
5851.54
5850.19
5848.55
5846.26
5843.71
5840.45
5836.99
5832.74
5828.33
5823.07
5817.66
5811.4
5804.88
5797.7
5789.69
5782.08
5771.75
5764.68
5750.37
5745.86
5725.22
5981.67
5981.99
5981.58
5980.92
5979.64
5978.1
5975.9
5973.5
5970.37
5967.09
5963
5958.82
5953.76
5948.63
5942.61
5936.42
5929.54
5921.95
5914.73
5904.87
5898.38
5884.64
5880.56
5861.35
6111.41
6111.76
6111.39
6110.81
6109.61
6108.2
6106.13
6103.9
6100.93
6097.88
6093.99
6090.1
6085.29
6080.5
6074.8
6069.01
6062.5
6055.43
6048.6
6039.38
6033.33
6020.47
6016.65
5998.75
6240.97
6241.38
6241.03
6240.55
6239.43
6238.17
6236.22
6234.2
6231.39
6228.62
6224.94
6221.4
6216.83
6212.46
6207.06
6201.74
6195.62
6189.11
6182.7
6174.11
6168.57
6156.62
6153.02
6136.45
6369.78
6370.24
6369.87
6369.56
6368.45
6367.42
6365.53
6363.81
6361.09
6358.71
6355.13
6352.07
6347.64
6343.84
6338.64
6333.91
6328.12
6322.22
6316.25
6308.33
6303.18
6292.22
6288.84
6273.6
6497.33
6497.82
6497.47
6497.29
6496.22
6495.41
6493.57
6492.17
6489.51
6487.56
6484.04
6481.54
6477.17
6474.04
6468.91
6464.97
6459.33
6454.11
6448.6
6441.34
6436.57
6426.62
6423.44
6409.54
6623.17
6623.67
6623.41
6623.24
6622.37
6621.57
6620.03
6618.66
6616.39
6614.51
6611.44
6609.09
6605.18
6602.33
6597.65
6594.13
6588.91
6584.35
6579.1
6572.64
6568.22
6559.29
6556.31
6543.72
6746.95
6747.45
6747.27
6747.13
6746.41
6745.68
6744.37
6743.1
6741.15
6739.39
6736.73
6734.51
6731.12
6728.44
6724.33
6721.09
6716.39
6712.35
6707.42
6701.89
6697.73
6689.77
6686.97
6675.68
6868.33
6868.85
6868.73
6868.63
6868.04
6867.4
6866.28
6865.15
6863.45
6861.87
6859.55
6857.54
6854.56
6852.14
6848.5
6845.6
6841.38
6837.84
6833.28
6828.65
6824.64
6817.67
6815.06
6805.04
6987.08
6987.59
6987.53
6987.48
6986.99
6986.47
6985.5
6984.53
6983.05
6981.67
6979.64
6977.88
6975.25
6973.13
6969.9
6967.38
6963.6
6960.55
6956.41
6952.49
6948.65
6942.73
6940.3
6931.51
7102.95
7103.46
7103.44
7103.45
7103.06
7102.64
7101.82
7101.01
7099.73
7098.56
7096.79
7095.28
7092.98
7091.15
7088.31
7086.15
7082.8
7080.21
7076.5
7073.23
7069.59
7064.66
7062.41
7054.81
7215.77
7216.28
7216.3
7216.36
7216.06
7215.73
7215.06
7214.39
7213.31
7212.33
7210.81
7209.54
7207.55
7206.02
7203.53
7201.73
7198.78
7196.63
7193.33
7190.64
7187.3
7183.32
7181.16
7174.72
7325.38
7325.89
7325.95
7326.06
7325.84
7325.61
7325.06
7324.54
7323.64
7322.85
7321.56
7320.53
7318.82
7317.57
7315.42
7313.96
7311.39
7309.65
7306.75
7304.57
7301.6
7298.46
7296.43
7291.05
7431.69
7432.19
7432.28
7432.43
7432.28
7432.15
7431.72
7431.33
7430.6
7429.99
7428.91
7428.11
7426.66
7425.69
7423.86
7422.72
7420.5
7419.16
7416.64
7414.95
7412.34
7409.94
7408.06
7403.65
7534.59
7535.08
7535.2
7535.39
7535.32
7535.26
7534.95
7534.69
7534.11
7533.67
7532.79
7532.2
7531.01
7530.29
7528.75
7527.92
7526.04
7525.07
7522.91
7521.68
7519.43
7517.64
7515.9
7512.46
7634.03
7634.51
7634.66
7634.88
7634.87
7634.9
7634.68
7634.54
7634.11
7633.83
7633.14
7632.75
7631.78
7631.31
7630.04
7629.5
7627.92
7627.31
7625.48
7624.68
7622.77
7621.55
7619.96
7617.42
7729.98
7730.45
7730.62
7730.87
7730.92
7731.01
7730.9
7730.87
7730.56
7730.43
7729.92
7729.71
7728.96
7728.71
7727.69
7727.43
7726.14
7725.84
7724.32
7723.92
7722.31
7721.58
7720.23
7718.51
7822.41
7822.87
7823.06
7823.34
7823.44
7823.6
7823.57
7823.64
7823.46
7823.47
7823.11
7823.08
7822.52
7822.49
7821.7
7821.69
7820.66
7820.68
7819.43
7819.41
7818.07
7817.81
7816.69
7815.71
7911.34
7911.79
7911.99
7912.3
7912.44
7912.66
7912.71
7912.87
7912.81
7912.94
7912.73
7912.86
7912.49
7912.64
7912.08
7912.29
7911.52
7911.81
7910.84
7911.15
7910.09
7910.27
7909.38
7909.02
7996.79
7997.22
7997.44
7997.76
7997.95
7998.22
7998.34
7998.59
7998.62
7998.87
7998.8
7999.07
7998.87
7999.2
7998.83
7999.26
7998.72
7999.26
7998.54
7999.17
7998.36
7998.95
7998.27
7998.48
8078.79
8079.2
8079.43
8079.77
8080
8080.32
8080.5
8080.82
8080.95
8081.3
8081.35
8081.75
8081.7
8082.2
8082.01
8082.63
8082.29
8083.07
8082.57
8083.5
8082.9
8083.87
8083.36
8084.11
8157.39
8157.79
8158.03
8158.38
8158.64
8159
8159.24
8159.63
8159.84
8160.28
8160.44
8160.97
8161.05
8161.69
8161.67
8162.47
8162.31
8163.3
8162.99
8164.19
8163.77
8165.1
8164.73
8165.96
8232.66
8233.04
8233.28
8233.65
8233.93
8234.33
8234.62
8235.07
8235.36
8235.88
8236.14
8236.77
8236.98
8237.75
8237.87
8238.83
8238.83
8240.02
8239.88
8241.32
8241.06
8242.7
8242.44
8244.12
8304.66
8305.03
8305.28
8305.65
8305.96
8306.39
8306.72
8307.23
8307.57
8308.17
8308.52
8309.24
8309.56
8310.45
8310.7
8311.79
8311.94
8313.3
8313.31
8314.96
8314.85
8316.76
8316.61
8318.67
8373.49
8373.83
8374.08
8374.47
8374.79
8375.25
8375.62
8376.17
8376.58
8377.24
8377.66
8378.47
8378.88
8379.87
8380.24
8381.46
8381.74
8383.25
8383.39
8385.23
8385.24
8387.4
8387.33
8389.73
8439.22
8439.54
8439.8
8440.18
8440.53
8441
8441.41
8442
8442.46
8443.18
8443.67
8444.55
8445.05
8446.13
8446.59
8447.92
8448.31
8449.95
8450.22
8452.22
8452.34
8454.72
8454.72
8457.42
8501.94
8502.25
8502.51
8502.9
8503.25
8503.75
8504.19
8504.81
8505.31
8506.08
8506.63
8507.58
8508.14
8509.31
8509.86
8511.29
8511.77
8513.53
8513.9
8516.05
8516.26
8518.83
8518.91
8521.85
8561.76
8562.06
8562.31
8562.7
8563.07
8563.58
8564.04
8564.7
8565.23
8566.05
8566.65
8567.65
8568.28
8569.51
8570.14
8571.66
8572.23
8574.09
8574.55
8576.82
8577.12
8579.86
8579.96
8583.19
8618.78
8619.06
8619.31
8619.7
8620.07
8620.6
8621.08
8621.76
8622.33
8623.18
8623.82
8624.88
8625.56
8626.86
8627.55
8629.14
8629.79
8631.73
8632.27
8634.66
8635.03
8637.91
8638.07
8641.49
8673.08
8673.35
8673.59
8673.98
8674.36
8674.9
8675.4
8676.1
8676.69
8677.58
8678.26
8679.36
8680.09
8681.44
8682.19
8683.84
8684.56
8686.58
8687.19
8689.67
8690.1
8693.11
8693.31
8696.9
8724.78
8725.03
8725.28
8725.66
8726.05
8726.59
8727.1
8727.82
8728.44
8729.35
8730.06
8731.2
8731.97
8733.36
8734.17
8735.87
8736.65
8738.73
8739.41
8741.96
8742.46
8745.57
8745.82
8749.55
8773.98
8774.21
8774.45
8774.83
8775.22
8775.78
8776.29
8777.03
8777.67
8778.6
8779.34
8780.5
8781.31
8782.74
8783.59
8785.33
8786.16
8788.3
8789.03
8791.65
8792.2
8795.41
8795.69
8799.55
8820.77
8820.99
8821.22
8821.6
8821.99
8822.55
8823.08
8823.82
8824.47
8825.43
8826.18
8827.37
8828.21
8829.67
8830.55
8832.34
8833.21
8835.39
8836.17
8838.84
8839.45
8842.72
8843.04
8847.02
8865.25
8865.46
8865.69
8866.06
8866.46
8867.01
8867.55
8868.3
8868.96
8869.93
8870.7
8871.91
8872.77
8874.26
8875.17
8876.98
8877.89
8880.1
8880.92
8883.64
8884.28
8887.61
8887.97
8892.04
8907.53
8907.72
8907.95
8908.32
8908.71
8909.27
8909.8
8910.56
8911.23
8912.21
8913
8914.22
8915.1
8916.61
8917.53
8919.38
8920.3
8922.55
8923.39
8926.14
8926.81
8930.19
8930.56
8934.7
8947.69
8947.87
8948.1
8948.46
8948.85
8949.41
8949.94
8950.71
8951.38
8952.37
8953.16
8954.4
8955.29
8956.81
8957.75
8959.62
8960.54
8962.83
8963.67
8966.47
8967.13
8970.55
8970.93
8975.1
8985.84
8986.01
8986.23
8986.59
8986.97
8987.53
8988.06
8988.83
8989.51
8990.5
8991.3
8992.55
8993.43
8994.97
8995.91
8997.8
8998.73
9001.04
9001.88
9004.71
9005.36
9008.81
9009.18
9013.36
9022.06
9022.22
9022.44
9022.79
9023.17
9023.72
9024.26
9025.03
9025.7
9026.7
9027.49
9028.75
9029.64
9031.19
9032.13
9034.03
9034.96
9037.28
9038.12
9040.96
9041.61
9045.08
9045.44
9049.63
9056.45
9056.6
9056.81
9057.15
9057.53
9058.08
9058.61
9059.38
9060.05
9061.05
9061.84
9063.1
9063.99
9065.55
9066.49
9068.39
9069.32
9071.65
9072.49
9075.34
9075.99
9079.46
9079.82
9084.01
9089.08
9089.22
9089.43
9089.77
9090.14
9090.69
9091.21
9091.98
9092.64
9093.65
9094.44
9095.7
9096.58
9098.14
9099.08
9100.98
9101.91
9104.24
9105.08
9107.92
9108.58
9112.04
9112.4
9116.59
9120.05
9120.18
9120.38
9120.71
9121.08
9121.62
9122.14
9122.91
9123.57
9124.57
9125.35
9126.61
9127.49
9129.05
9129.98
9131.88
9132.82
9135.13
9135.98
9138.81
9139.47
9142.92
9143.29
9147.46
9149.42
9149.55
9149.74
9150.07
9150.43
9150.97
9151.49
9152.25
9152.9
9153.9
9154.68
9155.93
9156.81
9158.36
9159.29
9161.18
9162.11
9164.42
9165.27
9168.09
9168.74
9172.19
9172.54
9176.71
9177.29
9177.41
9177.59
9177.92
9178.27
9178.81
9179.31
9180.07
9180.72
9181.71
9182.48
9183.73
9184.6
9186.14
9187.07
9188.96
9189.88
9192.18
9193.02
9195.83
9196.48
9199.91
9200.26
9204.41
9203.71
9203.82
9204
9204.33
9204.67
9205.2
9205.7
9206.46
9207.09
9208.08
9208.84
9210.09
9210.95
9212.49
9213.4
9215.28
9216.19
9218.48
9219.31
9222.11
9222.76
9226.16
9226.51
9230.64
9228.76
9228.87
9229.05
9229.36
9229.7
9230.23
9230.72
9231.47
9232.1
9233.08
9233.83
9235.08
9235.92
9237.45
9238.35
9240.22
9241.12
9243.4
9244.22
9247
9247.62
9251.04
9251.37
9255.46
9252.51
9252.61
9252.79
9253.1
9253.43
9253.95
9254.43
9255.18
9255.79
9256.78
9257.51
9258.75
9259.57
9261.11
9261.99
9263.86
9264.73
9267.01
9267.81
9270.57
9271.19
9274.57
9274.9
9278.96
9275.02
9275.12
9275.28
9275.59
9275.92
9276.44
9276.91
9277.65
9278.25
9279.23
9279.95
9281.19
9281.99
9283.52
9284.37
9286.24
9287.09
9289.36
9290.14
9292.89
9293.48
9296.85
9297.16
9301.18
9296.34
9296.44
9296.6
9296.91
9297.22
9297.74
9298.2
9298.94
9299.52
9300.51
9301.2
9302.44
9303.22
9304.75
9305.57
9307.45
9308.26
9310.53
9311.27
9314.02
9314.58
9317.93
9318.22
9322.2
9316.55
9316.64
9316.8
9317.1
9317.41
9317.92
9318.37
9319.11
9319.68
9320.66
9321.33
9322.57
9323.32
9324.86
9325.65
9327.53
9328.3
9330.58
9331.27
9334.03
9334.54
9337.87
9338.14
9342.08
9335.69
9335.77
9335.93
9336.23
9336.53
9337.04
9337.47
9338.21
9338.76
9339.74
9340.39
9341.64
9342.35
9343.9
9344.65
9346.54
9347.26
9349.56
9350.2
9352.96
9353.42
9356.74
9356.98
9360.87
9353.81
9353.89
9354.04
9354.34
9354.63
9355.14
9355.56
9356.3
9356.83
9357.81
9358.43
9359.69
9360.37
9361.93
9362.63
9364.54
9365.21
9367.52
9368.09
9370.88
9371.29
9374.58
9374.81
9378.64
9370.96
9371.05
9371.19
9371.48
9371.77
9372.27
9372.68
9373.42
9373.93
9374.91
9375.51
9376.77
9377.42
9378.98
9379.65
9381.56
9382.19
9384.5
9385.03
9387.82
9388.19
9391.47
9391.67
9395.46
9387.2
9387.28
9387.42
9387.71
9387.99
9388.49
9388.89
9389.62
9390.12
9391.1
9391.68
9392.93
9393.56
9395.11
9395.75
9397.66
9398.26
9400.57
9401.06
9403.83
9404.18
9407.43
9407.63
9411.37
9402.56
9402.63
9402.77
9403.06
9403.33
9403.83
9404.21
9404.95
9405.42
9406.41
9406.96
9408.22
9408.81
9410.38
9410.98
9412.9
9413.44
9415.77
9416.21
9418.98
9419.3
9422.52
9422.7
9426.4
9417.08
9417.16
9417.29
9417.58
9417.83
9418.34
9418.7
9419.44
9419.9
9420.89
9421.41
9422.68
9423.23
9424.82
9425.35
9427.31
9427.78
9430.13
9430.53
9433.29
9433.59
9436.78
9436.94
9440.59
9430.81
9430.88
9431.01
9431.3
9431.54
9432.05
9432.4
9433.15
9433.57
9434.58
9435.05
9436.35
9436.85
9438.46
9438.94
9440.92
9441.34
9443.7
9444.06
9446.8
9447.08
9450.24
9450.4
9454
9443.78
9443.85
9443.97
9444.26
9444.5
9445.01
9445.33
9446.09
9446.48
9447.51
9447.95
9449.27
9449.7
9451.36
9451.78
9453.77
9454.16
9456.5
9456.84
9459.56
9459.82
9462.94
9463.09
9466.65
9456.02
9456.1
9456.21
9456.51
9456.72
9457.25
9457.55
9458.32
9458.67
9459.73
9460.11
9461.46
9461.85
9463.51
9463.9
9465.89
9466.25
9468.59
9468.9
9471.6
9471.85
9474.93
9475.08
9478.58
9467.57
9467.65
9467.76
9468.06
9468.26
9468.79
9469.07
9469.86
9470.18
9471.24
9471.6
9472.95
9473.32
9474.98
9475.34
9477.32
9477.67
9479.98
9480.28
9482.95
9483.19
9486.24
9486.37
9489.83
9478.47
9478.54
9478.65
9478.95
9479.14
9479.68
9479.93
9480.73
9481.03
9482.09
9482.43
9483.78
9484.13
9485.78
9486.13
9488.09
9488.42
9490.72
9491.01
9493.65
9493.87
9496.89
9497.02
9500.43
9488.73
9488.81
9488.91
9489.21
9489.39
9489.93
9490.18
9490.96
9491.26
9492.31
9492.64
9493.98
9494.32
9495.95
9496.29
9498.23
9498.55
9500.82
9501.1
9503.72
9503.94
9506.91
9507.04
9510.41
9498.39
9498.46
9498.56
9498.86
9499.04
9499.57
9499.81
9500.59
9500.88
9501.93
9502.25
9503.57
9503.9
9505.52
9505.85
9507.78
9508.08
9510.33
9510.6
9513.19
9513.4
9516.34
9516.47
9519.8
9507.47
9507.54
9507.64
9507.94
9508.11
9508.64
9508.88
9509.65
9509.93
9510.97
9511.28
9512.59
9512.91
9514.52
9514.83
9516.74
9517.04
9519.27
9519.53
9522.09
9522.29
9525.2
9525.32
9528.61
9516
9516.07
9516.18
9516.45
9516.64
9517.14
9517.39
9518.15
9518.43
9519.45
9519.75
9521.06
9521.37
9522.96
9523.26
9525.16
9525.44
9527.65
9527.9
9530.43
9530.63
9533.51
9533.62
9536.87
9524
9524.06
9524.18
9524.43
9524.65
9525.11
9525.39
9526.1
9526.41
9527.4
9527.71
9528.99
9529.29
9530.87
9531.16
9533.04
9533.32
9535.5
9535.74
9538.25
9538.44
9541.29
9541.4
9544.61
9531.49
9531.55
9531.68
9531.91
9532.15
9532.57
9532.88
9533.54
9533.89
9534.83
9535.16
9536.4
9536.72
9538.27
9538.55
9540.42
9540.68
9542.85
9543.08
9545.56
9545.74
9548.56