/*--------------------------------*- C++ -*----------------------------------*\
  =========                 |
  \\      /  F ield         | OpenFOAM: The Open Source CFD Toolbox
   \\    /   O peration     | Website:  https://openfoam.org
    \\  /    A nd           | Version:  10
     \\/     M anipulation  |
\*---------------------------------------------------------------------------*/
FoamFile
{
    format      ascii;
    class       surfaceScalarField;
    location    "0.1";
    object      phi;
}
// * * * * * * * * * * * * * * * * * * * * * * * * * * * * * * * * * * * * * //

dimensions      [1 0 -1 0 0 0 0];

internalField   nonuniform List<scalar> 
8154
(
-6.76424e-09
-2.47047e-08
-6.136e-08
-1.00333e-07
-1.82306e-07
-2.43418e-07
-3.89147e-07
-4.83244e-07
-7.0431e-07
-8.56553e-07
-1.14694e-06
-1.39256e-06
-1.72331e-06
-2.09097e-06
-2.42972e-06
-2.93881e-06
-3.34947e-06
-4.06542e-06
-4.67702e-06
-5.56611e-06
-6.90129e-06
-7.29728e-06
-6.84533e-06
-0.000277292
-0.000831925
2.32104e-08
-0.00138674
9.38015e-08
-0.00194182
2.08606e-07
-0.00249737
3.70059e-07
-0.00305333
5.65776e-07
-0.00361009
8.07011e-07
-0.0041674
1.06755e-06
-0.00472581
1.36976e-06
-0.00528493
1.67761e-06
-0.00584535
2.01339e-06
-0.00640685
2.3538e-06
-0.0069695
2.68897e-06
-0.00753409
3.05577e-06
-0.00809893
3.36336e-06
-0.00866755
3.77272e-06
-0.00923395
4.0429e-06
-0.00980813
4.47743e-06
-0.0103758
4.82319e-06
-0.0109564
5.04126e-06
-0.011525
5.17604e-06
-0.0121138
5.00953e-06
-0.0126845
3.94957e-06
-0.0132814
2.39485e-06
-0.000277308
-0.000831971
2.54313e-08
-0.00138682
1.02526e-07
-0.00194192
2.30532e-07
-0.00249749
4.03536e-07
-0.00305348
6.25405e-07
-0.00361025
8.76169e-07
-0.00416758
1.17687e-06
-0.00472598
1.47813e-06
-0.00528512
1.83812e-06
-0.00584553
2.15461e-06
-0.00640701
2.55036e-06
-0.00696969
2.8409e-06
-0.00753419
3.24106e-06
-0.00809913
3.47256e-06
-0.0086676
3.83365e-06
-0.00923416
4.03195e-06
-0.00980824
4.30466e-06
-0.0103758
4.91604e-06
-0.0109563
4.60136e-06
-0.0115246
5.1396e-06
-0.0121124
5.25003e-06
-0.0126826
4.97658e-06
-0.0132787
4.18216e-06
-0.000277325
-0.000832022
2.03769e-08
-0.0013869
8.2736e-08
-0.00194204
1.84093e-07
-0.00249764
3.24219e-07
-0.00305364
4.92568e-07
-0.00361044
6.94489e-07
-0.00416775
9.05492e-07
-0.0047262
1.14409e-06
-0.00528528
1.36557e-06
-0.00584576
1.60636e-06
-0.00640712
1.80293e-06
-0.0069699
1.99814e-06
-0.00753422
2.13751e-06
-0.00809928
2.2153e-06
-0.00866757
2.27824e-06
-0.0092342
2.12277e-06
-0.0098086
2.26091e-06
-0.0103752
1.83346e-06
-0.0109566
1.69946e-06
-0.0115244
1.31362e-06
-0.0121119
1.08607e-06
-0.0126815
6.66088e-07
-0.0132742
4.61727e-07
-0.000277339
-0.000832062
2.46558e-08
-0.00138696
9.98273e-08
-0.00194212
2.22318e-07
-0.00249774
3.91946e-07
-0.00305376
5.96925e-07
-0.00361055
8.43672e-07
-0.00416788
1.10334e-06
-0.0047263
1.3995e-06
-0.00528538
1.67534e-06
-0.00584581
1.983e-06
-0.00640716
2.23048e-06
-0.00696987
2.49866e-06
-0.00753411
2.6759e-06
-0.00809915
2.82891e-06
-0.00866721
2.91165e-06
-0.00923413
2.81358e-06
-0.00980795
2.88963e-06
-0.0103748
2.19298e-06
-0.010956
2.41648e-06
-0.0115239
1.65045e-06
-0.0121112
1.14342e-06
-0.0126811
3.35717e-07
-0.0132735
-2.02737e-07
-0.000277356
-0.000832115
3.27797e-08
-0.00138705
1.32185e-07
-0.00194224
2.95452e-07
-0.00249787
5.20512e-07
-0.00305393
7.99181e-07
-0.00361072
1.12945e-06
-0.00416807
1.4956e-06
-0.00472646
1.89747e-06
-0.00528555
2.31136e-06
-0.00584591
2.73828e-06
-0.00640727
3.15156e-06
-0.00696988
3.54441e-06
-0.00753409
3.90484e-06
-0.00809905
4.19033e-06
-0.00866692
4.44608e-06
-0.009234
4.53028e-06
-0.00980704
4.64076e-06
-0.0103748
4.30864e-06
-0.010955
4.27321e-06
-0.0115232
3.6054e-06
-0.0121101
3.14185e-06
-0.0126803
2.21146e-06
-0.0132734
1.3027e-06
-0.000277383
-0.000832194
3.67112e-08
-0.00138718
1.47844e-07
-0.00194242
3.30613e-07
-0.00249809
5.82474e-07
-0.00305418
8.95518e-07
-0.003611
1.26605e-06
-0.00416837
1.67968e-06
-0.00472676
2.13212e-06
-0.00528586
2.60304e-06
-0.0058462
3.08568e-06
-0.00640752
3.55938e-06
-0.00697009
4.00618e-06
-0.00753421
4.42168e-06
-0.00809914
4.7525e-06
-0.00866682
5.0474e-06
-0.00923393
5.16547e-06
-0.00980651
5.27761e-06
-0.0103746
4.98683e-06
-0.0109541
4.86801e-06
-0.0115225
4.12598e-06
-0.012109
3.59335e-06
-0.0126792
2.57305e-06
-0.0132719
1.56392e-06
-0.000277414
-0.000832286
4.05353e-08
-0.00138733
1.63085e-07
-0.00194262
3.64711e-07
-0.00249835
6.42641e-07
-0.00305448
9.88535e-07
-0.00361133
1.39833e-06
-0.00416873
1.85678e-06
-0.00472712
2.3592e-06
-0.00528622
2.88341e-06
-0.00584654
3.42258e-06
-0.00640782
3.95207e-06
-0.00697036
4.45544e-06
-0.00753438
4.92052e-06
-0.00809927
5.29963e-06
-0.00866676
5.62814e-06
-0.00923387
5.77558e-06
-0.00980603
5.90353e-06
-0.0103743
5.62067e-06
-0.0109531
5.49515e-06
-0.0115218
4.71338e-06
-0.0121078
4.09972e-06
-0.0126779
2.92053e-06
-0.01327
1.74689e-06
-0.000277449
-0.00083239
4.4214e-08
-0.0013875
1.77722e-07
-0.00194286
3.97417e-07
-0.00249864
7.00148e-07
-0.00305482
1.07729e-06
-0.00361171
1.52397e-06
-0.00416914
2.0248e-06
-0.00472755
2.57363e-06
-0.00528665
3.14841e-06
-0.00584696
3.73976e-06
-0.0064082
4.32312e-06
-0.00697069
4.87851e-06
-0.00753462
5.3925e-06
-0.00809945
5.81523e-06
-0.00866675
6.17645e-06
-0.00923383
6.35178e-06
-0.00980558
6.48555e-06
-0.010374
6.22889e-06
-0.0109522
6.07268e-06
-0.011521
5.2776e-06
-0.0121064
4.70731e-06
-0.0126766
3.29298e-06
-0.0132681
1.96811e-06
-0.000277488
-0.000832507
4.78369e-08
-0.00138769
1.92128e-07
-0.00194312
4.29549e-07
-0.00249896
7.56536e-07
-0.00305521
1.16402e-06
-0.00361214
1.6464e-06
-0.0041696
2.18783e-06
-0.00472803
2.78108e-06
-0.00528714
3.40373e-06
-0.00584743
4.04487e-06
-0.00640863
4.67916e-06
-0.00697108
5.28473e-06
-0.0075349
5.84556e-06
-0.00809968
6.31086e-06
-0.00866677
6.70353e-06
-0.00923382
6.90448e-06
-0.00980516
7.03911e-06
-0.0103737
6.80144e-06
-0.0109512
6.6211e-06
-0.0115202
5.791e-06
-0.0121048
4.82928e-06
-0.012675
3.61871e-06
-0.0132659
2.15956e-06
-0.000277531
-0.000832635
5.14071e-08
-0.0013879
2.06316e-07
-0.00194341
4.61168e-07
-0.00249932
8.11957e-07
-0.00305563
1.2491e-06
-0.00361262
1.76619e-06
-0.00417012
2.34678e-06
-0.00472857
2.98259e-06
-0.00528768
3.65061e-06
-0.00584796
4.33872e-06
-0.00640912
5.02074e-06
-0.00697153
5.67353e-06
-0.00753524
6.27872e-06
-0.00809994
6.78489e-06
-0.00866683
7.20839e-06
-0.00923381
7.43292e-06
-0.00980477
7.56688e-06
-0.0103734
7.34541e-06
-0.0109502
7.14214e-06
-0.0115194
6.29638e-06
-0.0121032
5.47449e-06
-0.0126734
3.96005e-06
-0.0132636
2.35095e-06
-0.000277578
-0.000832775
5.49425e-08
-0.00138813
2.20373e-07
-0.00194373
4.925e-07
-0.00249972
8.66887e-07
-0.00305609
1.33339e-06
-0.00361313
1.88477e-06
-0.00417068
2.5038e-06
-0.00472916
3.18111e-06
-0.00528828
3.89282e-06
-0.00584855
4.62575e-06
-0.00640967
5.35261e-06
-0.00697202
6.04962e-06
-0.00753562
6.69609e-06
-0.00810024
7.24091e-06
-0.00866693
7.69449e-06
-0.00923381
7.94368e-06
-0.00980441
8.08354e-06
-0.010373
7.8648e-06
-0.0109492
7.63509e-06
-0.0115184
6.75955e-06
-0.0121015
5.91165e-06
-0.0126716
4.27879e-06
-0.013261
2.53461e-06
-0.000277629
-0.000832927
5.84355e-08
-0.00138838
2.34265e-07
-0.00194407
5.23491e-07
-0.00250014
9.21279e-07
-0.0030566
1.41692e-06
-0.00361369
2.00236e-06
-0.00417129
2.65949e-06
-0.0047298
3.37773e-06
-0.00528893
4.1321e-06
-0.00584919
4.90824e-06
-0.00641027
5.67755e-06
-0.00697257
6.41574e-06
-0.00753606
7.0999e-06
-0.00810059
7.67985e-06
-0.00866705
8.16071e-06
-0.00923384
8.43309e-06
-0.00980406
8.58e-06
-0.0103726
8.35937e-06
-0.0109482
8.09659e-06
-0.0115174
7.18498e-06
-0.0120997
6.27846e-06
-0.0126697
4.57456e-06
-0.0132583
2.70614e-06
-0.000277684
-0.00083309
6.18866e-08
-0.00138865
2.48001e-07
-0.00194443
5.54163e-07
-0.0025006
9.75187e-07
-0.00305713
1.49983e-06
-0.0036143
2.11926e-06
-0.00417195
2.81442e-06
-0.00473048
3.57351e-06
-0.00528963
4.37021e-06
-0.00584988
5.18886e-06
-0.00641092
5.99916e-06
-0.00697316
6.77629e-06
-0.00753654
7.49497e-06
-0.00810096
8.10636e-06
-0.00866721
8.61087e-06
-0.00923387
8.90331e-06
-0.00980372
9.05462e-06
-0.0103723
8.83437e-06
-0.0109472
8.53279e-06
-0.0115164
7.57748e-06
-0.0120979
6.61126e-06
-0.0126677
4.82354e-06
-0.0132555
2.85514e-06
-0.000277742
-0.000833264
6.52953e-08
-0.00138894
2.61565e-07
-0.00194483
5.84461e-07
-0.00250109
1.02848e-06
-0.00305771
1.58187e-06
-0.00361494
2.23507e-06
-0.00417265
2.96811e-06
-0.00473122
3.76799e-06
-0.00529038
4.60695e-06
-0.00585061
5.4679e-06
-0.00641161
6.31859e-06
-0.00697379
7.13334e-06
-0.00753705
7.88421e-06
-0.00810138
8.52365e-06
-0.0086674
9.04773e-06
-0.00923392
9.35628e-06
-0.00980339
9.5103e-06
-0.0103719
9.29244e-06
-0.0109461
8.94919e-06
-0.0115153
7.94907e-06
-0.012096
6.91564e-06
-0.0126656
4.99394e-06
-0.0132525
2.9832e-06
-0.000277804
-0.000833449
6.86699e-08
-0.00138924
2.74991e-07
-0.00194525
6.14435e-07
-0.00250161
1.08117e-06
-0.00305832
1.66296e-06
-0.00361563
2.34957e-06
-0.00417339
3.12014e-06
-0.004732
3.96059e-06
-0.00529117
4.84175e-06
-0.0058514
5.74508e-06
-0.00641235
6.63625e-06
-0.00697447
7.4884e-06
-0.0075376
8.27063e-06
-0.00810181
8.93605e-06
-0.00866761
9.47623e-06
-0.00923398
9.79608e-06
-0.00980307
9.94917e-06
-0.0103714
9.73182e-06
-0.010945
9.34744e-06
-0.0115142
8.30787e-06
-0.0120939
7.21108e-06
-0.0126635
5.20091e-06
-0.0132493
3.11209e-06
-0.00027787
-0.000833646
7.2013e-08
-0.00138956
2.88277e-07
-0.00194569
6.44053e-07
-0.00250216
1.13315e-06
-0.00305897
1.74281e-06
-0.00361636
2.46215e-06
-0.00417418
3.26949e-06
-0.00473283
4.14977e-06
-0.00529201
5.07257e-06
-0.00585222
6.018e-06
-0.00641313
6.94973e-06
-0.00697518
7.83957e-06
-0.00753819
8.65347e-06
-0.00810228
9.34459e-06
-0.00866785
9.89948e-06
-0.00923405
1.02271e-05
-0.00980276
1.03727e-05
-0.0103709
1.01435e-05
-0.0109439
9.72527e-06
-0.011513
8.64861e-06
-0.0120918
7.49132e-06
-0.0126613
5.41746e-06
-0.0132461
3.23569e-06
-0.000277939
-0.000833853
7.53176e-08
-0.0013899
3.01405e-07
-0.00194616
6.73264e-07
-0.00250274
1.18428e-06
-0.00305965
1.82115e-06
-0.00361712
2.57232e-06
-0.00417502
3.41531e-06
-0.0047337
4.33422e-06
-0.0052929
5.2975e-06
-0.0058531
6.28417e-06
-0.00641395
7.2561e-06
-0.00697593
8.18385e-06
-0.00753881
9.03032e-06
-0.00810276
9.7482e-06
-0.00866809
1.03189e-05
-0.00923412
1.06544e-05
-0.00980245
1.07909e-05
-0.0103704
1.05454e-05
-0.0109427
1.00929e-05
-0.0115117
8.97986e-06
-0.0120897
7.76106e-06
-0.012659
5.6182e-06
-0.0132428
3.3503e-06
-0.000278012
-0.000834071
7.85605e-08
-0.00139026
3.14267e-07
-0.00194665
7.01833e-07
-0.00250335
1.23419e-06
-0.00306038
1.89739e-06
-0.00361793
2.67921e-06
-0.0041759
3.55636e-06
-0.00473462
4.51215e-06
-0.00529384
5.51407e-06
-0.00585402
6.54026e-06
-0.00641482
7.5511e-06
-0.00697671
8.51613e-06
-0.00753946
9.39556e-06
-0.00810327
1.01414e-05
-0.00866836
1.07301e-05
-0.00923419
1.10753e-05
-0.00980213
1.12047e-05
-0.0103699
1.0945e-05
-0.0109415
1.04541e-05
-0.0115104
9.30744e-06
-0.0120874
8.02688e-06
-0.0126567
5.81208e-06
-0.0132393
3.46105e-06
-0.000278088
-0.000834298
8.16876e-08
-0.00139064
3.26669e-07
-0.00194716
7.29364e-07
-0.00250399
1.28222e-06
-0.00306113
1.97067e-06
-0.00361878
2.78173e-06
-0.00417681
3.69131e-06
-0.00473558
4.68195e-06
-0.00529481
5.72021e-06
-0.00585498
6.78352e-06
-0.00641573
7.83108e-06
-0.00697754
8.83173e-06
-0.00754014
9.74348e-06
-0.00810379
1.05178e-05
-0.00866864
1.11266e-05
-0.00923425
1.14847e-05
-0.0098018
1.16106e-05
-0.0103694
1.13392e-05
-0.0109403
1.08092e-05
-0.0115091
9.63547e-06
-0.0120851
8.2954e-06
-0.0126543
6.00554e-06
-0.0132358
3.56906e-06
-0.000278168
-0.000834537
8.46238e-08
-0.00139103
3.3831e-07
-0.0019477
7.55215e-07
-0.00250466
1.32735e-06
-0.00306191
2.03953e-06
-0.00361966
2.87807e-06
-0.00417777
3.81802e-06
-0.00473658
4.84112e-06
-0.00529584
5.91301e-06
-0.00585599
7.01048e-06
-0.00641668
8.09166e-06
-0.00697841
9.12504e-06
-0.00754086
1.00669e-05
-0.00810435
1.08687e-05
-0.00866894
1.14984e-05
-0.00923433
1.18719e-05
-0.00980147
1.19995e-05
-0.0103688
1.17207e-05
-0.0109391
1.11553e-05
-0.0115077
9.96261e-06
-0.0120828
8.56809e-06
-0.0126518
6.20559e-06
-0.0132321
3.68139e-06
-0.000278251
-0.000834784
8.7281e-08
-0.00139143
3.4886e-07
-0.00194825
7.78695e-07
-0.00250536
1.36844e-06
-0.00306273
2.10241e-06
-0.00362057
2.96624e-06
-0.00417876
3.9342e-06
-0.00473762
4.98718e-06
-0.0052969
6.08985e-06
-0.00585703
7.2183e-06
-0.00641767
8.32967e-06
-0.0069793
9.39215e-06
-0.00754162
1.03607e-05
-0.00810494
1.11872e-05
-0.00866926
1.18365e-05
-0.00923441
1.22262e-05
-0.00980114
1.23596e-05
-0.0103682
1.20805e-05
-0.0109378
1.1493e-05
-0.0115063
1.0282e-05
-0.0120804
8.83828e-06
-0.0126492
6.41268e-06
-0.0132284
3.79783e-06
-0.000278337
-0.000835041
8.95725e-08
-0.00139185
3.57964e-07
-0.00194883
7.99012e-07
-0.00250607
1.40415e-06
-0.00306357
2.1573e-06
-0.00362152
3.0436e-06
-0.00417979
4.03659e-06
-0.0047387
5.11636e-06
-0.00529799
6.24661e-06
-0.00585811
7.40259e-06
-0.0064187
8.54039e-06
-0.00698024
9.62791e-06
-0.0075424
1.06188e-05
-0.00810555
1.14657e-05
-0.00866961
1.21312e-05
-0.0092345
1.25348e-05
-0.00980082
1.26744e-05
-0.0103675
1.23992e-05
-0.0109366
1.18014e-05
-0.0115048
1.05723e-05
-0.0120779
9.08677e-06
-0.0126465
6.6175e-06
-0.0132245
3.9173e-06
-0.000278425
-0.000835304
9.14252e-08
-0.00139229
3.65342e-07
-0.00194942
8.15541e-07
-0.00250681
1.43334e-06
-0.00306444
2.20247e-06
-0.00362249
3.1077e-06
-0.00418084
4.12206e-06
-0.0047398
5.22493e-06
-0.00529912
6.3791e-06
-0.00585922
7.55893e-06
-0.00641975
8.7194e-06
-0.0069812
9.82787e-06
-0.00754321
1.08367e-05
-0.00810618
1.16992e-05
-0.00866997
1.23762e-05
-0.00923461
1.27896e-05
-0.0098005
1.29324e-05
-0.0103669
1.26594e-05
-0.0109353
1.20509e-05
-0.0115032
1.08108e-05
-0.0120754
9.28924e-06
-0.0126438
6.79266e-06
-0.0132206
4.01792e-06
-0.000278516
-0.000835574
9.27898e-08
-0.00139273
3.70772e-07
-0.00195003
8.27742e-07
-0.00250757
1.455e-06
-0.00306533
2.2362e-06
-0.00362349
3.15596e-06
-0.00418193
4.187e-06
-0.00474094
5.30823e-06
-0.00530027
6.48172e-06
-0.00586035
7.681e-06
-0.00642083
8.85987e-06
-0.00698218
9.98503e-06
-0.00754404
1.10074e-05
-0.00810683
1.18806e-05
-0.00867035
1.2564e-05
-0.00923472
1.29817e-05
-0.0098002
1.31235e-05
-0.0103663
1.28494e-05
-0.010934
1.22288e-05
-0.0115017
1.09819e-05
-0.0120729
9.42009e-06
-0.012641
6.8948e-06
-0.0132165
4.06734e-06
-0.000278608
-0.000835848
9.3651e-08
-0.00139318
3.74202e-07
-0.00195065
8.35466e-07
-0.00250834
1.46877e-06
-0.00306624
2.25779e-06
-0.0036245
3.18715e-06
-0.00418303
4.22945e-06
-0.00474209
5.3635e-06
-0.00530145
6.55078e-06
-0.00586151
7.76454e-06
-0.00642193
8.95709e-06
-0.00698318
1.0095e-05
-0.00754489
1.11268e-05
-0.00810749
1.20072e-05
-0.00867074
1.26921e-05
-0.00923484
1.31098e-05
-0.0097999
1.32447e-05
-0.0103656
1.2966e-05
-0.0109328
1.2332e-05
-0.0115001
1.10819e-05
-0.0120703
9.47008e-06
-0.0126381
6.88771e-06
-0.0132124
4.03347e-06
-0.000278701
-0.000836126
9.43899e-08
-0.00139364
3.77124e-07
-0.00195128
8.42031e-07
-0.00250912
1.48047e-06
-0.00306716
2.27614e-06
-0.00362554
3.2138e-06
-0.00418415
4.2661e-06
-0.00474326
5.41197e-06
-0.00530265
6.61276e-06
-0.00586269
7.84165e-06
-0.00642305
9.05014e-06
-0.0069842
1.02044e-05
-0.00754575
1.12512e-05
-0.00810816
1.21451e-05
-0.00867114
1.28394e-05
-0.00923496
1.32643e-05
-0.0097996
1.34005e-05
-0.010365
1.31238e-05
-0.0109315
1.2485e-05
-0.0114985
1.1238e-05
-0.0120677
9.59902e-06
-0.0126353
6.98604e-06
-0.0132084
4.12864e-06
-0.000278795
-0.000836407
9.47361e-08
-0.0013941
3.78482e-07
-0.00195191
8.45062e-07
-0.00250991
1.48584e-06
-0.00306809
2.28458e-06
-0.00362658
3.22615e-06
-0.00418528
4.28341e-06
-0.00474445
5.43553e-06
-0.00530386
6.64417e-06
-0.00586389
7.88268e-06
-0.00642419
9.10254e-06
-0.00698523
1.02695e-05
-0.00754663
1.13298e-05
-0.00810884
1.22365e-05
-0.00867155
1.29417e-05
-0.00923509
1.33746e-05
-0.00979932
1.35142e-05
-0.0103643
1.32393e-05
-0.0109303
1.25952e-05
-0.0114968
1.1346e-05
-0.0120651
9.69928e-06
-0.0126324
7.07774e-06
-0.0132042
4.31289e-06
-0.000278889
-0.000836689
9.45829e-08
-0.00139456
3.77828e-07
-0.00195255
8.43558e-07
-0.0025107
1.48314e-06
-0.00306902
2.28039e-06
-0.00362763
3.2203e-06
-0.00418643
4.27594e-06
-0.00474566
5.42685e-06
-0.00530509
6.63512e-06
-0.0058651
7.8747e-06
-0.00642535
9.09748e-06
-0.00698628
1.02696e-05
-0.00754753
1.1337e-05
-0.00810954
1.22523e-05
-0.00867198
1.29659e-05
-0.00923522
1.3406e-05
-0.00979904
1.35485e-05
-0.0103637
1.32747e-05
-0.010929
1.26244e-05
-0.0114952
1.13757e-05
-0.0120625
9.72236e-06
-0.0126295
7.102e-06
-0.0132
3.97364e-06
-0.000278984
-0.000836971
9.39628e-08
-0.00139503
3.75326e-07
-0.00195318
8.37934e-07
-0.0025115
1.47319e-06
-0.00306996
2.26498e-06
-0.00362868
3.19843e-06
-0.00418757
4.24684e-06
-0.00474686
5.39013e-06
-0.00530632
6.59081e-06
-0.00586632
7.82363e-06
-0.00642651
9.04119e-06
-0.00698735
1.02106e-05
-0.00754843
1.12783e-05
-0.00811025
1.21972e-05
-0.00867241
1.29169e-05
-0.00923537
1.33647e-05
-0.00979876
1.35131e-05
-0.010363
1.32435e-05
-0.0109278
1.25891e-05
-0.0114936
1.13401e-05
-0.0120599
9.67226e-06
-0.0126266
7.08682e-06
-0.0131958
4.06997e-06
-0.000279078
-0.000837252
9.29056e-08
-0.00139549
3.71078e-07
-0.00195382
8.28439e-07
-0.00251229
1.4565e-06
-0.00307089
2.2393e-06
-0.00362973
3.16217e-06
-0.00418871
4.19862e-06
-0.00474806
5.32895e-06
-0.00530756
6.51603e-06
-0.00586753
7.73543e-06
-0.00642768
8.94041e-06
-0.00698842
1.00995e-05
-0.00754935
1.11599e-05
-0.00811098
1.20762e-05
-0.00867286
1.27981e-05
-0.00923552
1.32531e-05
-0.0097985
1.34114e-05
-0.0103624
1.31531e-05
-0.0109265
1.2504e-05
-0.0114919
1.12584e-05
-0.0120573
9.5711e-06
-0.0126237
7.03131e-06
-0.0131916
4.15705e-06
-0.000279171
-0.00083753
9.14307e-08
-0.00139595
3.65193e-07
-0.00195445
8.15351e-07
-0.00251307
1.43361e-06
-0.00307181
2.20432e-06
-0.00363076
3.11307e-06
-0.00418984
4.13372e-06
-0.00474924
5.24694e-06
-0.00530877
6.41594e-06
-0.00586874
7.61692e-06
-0.00642884
8.8037e-06
-0.00698948
9.94609e-06
-0.00755027
1.09924e-05
-0.00811171
1.18991e-05
-0.00867332
1.26173e-05
-0.00923569
1.30761e-05
-0.00979825
1.32456e-05
-0.0103618
1.30054e-05
-0.0109253
1.23756e-05
-0.0114902
1.11509e-05
-0.0120548
9.46926e-06
-0.0126209
6.95952e-06
-0.0131875
4.12807e-06
-0.000279263
-0.000837805
8.95812e-08
-0.0013964
3.57812e-07
-0.00195507
7.9896e-07
-0.00251384
1.40504e-06
-0.00307272
2.1608e-06
-0.00363179
3.0523e-06
-0.00419096
4.05384e-06
-0.00475042
5.1466e-06
-0.00530998
6.29414e-06
-0.00586993
7.47324e-06
-0.00642999
8.638e-06
-0.00699054
9.75935e-06
-0.00755119
1.07861e-05
-0.00811244
1.16771e-05
-0.00867379
1.23847e-05
-0.00923588
1.28412e-05
-0.00979803
1.30181e-05
-0.0103612
1.27971e-05
-0.0109241
1.21957e-05
-0.0114886
1.10094e-05
-0.0120523
9.36373e-06
-0.0126181
6.88304e-06
-0.0131834
4.08356e-06
-0.000279353
-0.000838074
8.74062e-08
-0.00139684
3.49157e-07
-0.00195567
7.79753e-07
-0.0025146
1.37158e-06
-0.00307361
2.1099e-06
-0.00363279
2.98138e-06
-0.00419205
3.96096e-06
-0.00475157
5.03046e-06
-0.00531116
6.154e-06
-0.00587111
7.30894e-06
-0.00643111
8.44965e-06
-0.00699157
9.54781e-06
-0.00755209
1.05524e-05
-0.00811316
1.14239e-05
-0.00867427
1.21155e-05
-0.00923608
1.25633e-05
-0.00979783
1.27406e-05
-0.0103606
1.25335e-05
-0.0109229
1.19611e-05
-0.011487
1.08207e-05
-0.0120499
9.22443e-06
-0.0126153
6.80467e-06
-0.0131794
4.02963e-06
-0.000279441
-0.000838337
8.49858e-08
-0.00139727
3.39505e-07
-0.00195627
7.58306e-07
-0.00251534
1.33418e-06
-0.00307449
2.05294e-06
-0.00363378
2.90196e-06
-0.00419313
3.85692e-06
-0.0047527
4.90056e-06
-0.00531233
5.9977e-06
-0.00587226
7.12658e-06
-0.00643222
8.24192e-06
-0.0069926
9.31618e-06
-0.00755298
1.02981e-05
-0.00811387
1.11495e-05
-0.00867474
1.1823e-05
-0.00923628
1.22578e-05
-0.00979765
1.24285e-05
-0.01036
1.22271e-05
-0.0109218
1.16762e-05
-0.0114854
1.058e-05
-0.0120475
9.04663e-06
-0.0126126
6.72556e-06
-0.0131754
3.97314e-06
-0.000279527
-0.000838593
8.23935e-08
-0.00139769
3.29177e-07
-0.00195685
7.35331e-07
-0.00251607
1.29402e-06
-0.00307535
1.99162e-06
-0.00363474
2.8162e-06
-0.00419418
3.74432e-06
-0.00475381
4.75967e-06
-0.00531347
5.82811e-06
-0.00587339
6.92892e-06
-0.00643331
8.01764e-06
-0.0069936
9.06761e-06
-0.00755385
1.00277e-05
-0.00811457
1.08603e-05
-0.00867519
1.15175e-05
-0.00923648
1.19399e-05
-0.00979748
1.21014e-05
-0.0103595
1.1899e-05
-0.0109208
1.13579e-05
-0.0114839
1.02917e-05
-0.0120452
8.81715e-06
-0.0126099
6.60319e-06
-0.0131714
3.89708e-06
-0.00027961
-0.000838843
7.97146e-08
-0.0013981
3.18475e-07
-0.00195741
7.11467e-07
-0.00251677
1.25219e-06
-0.00307618
1.92753e-06
-0.00363568
2.72623e-06
-0.00419521
3.62565e-06
-0.0047549
4.61055e-06
-0.00531458
5.64782e-06
-0.0058745
6.71818e-06
-0.00643438
7.77817e-06
-0.00699458
8.80266e-06
-0.0075547
9.74093e-06
-0.00811526
1.05566e-05
-0.00867565
1.12009e-05
-0.00923668
1.1615e-05
-0.00979732
1.17712e-05
-0.010359
1.15686e-05
-0.0109198
1.10314e-05
-0.0114825
9.98112e-06
-0.012043
8.5382e-06
-0.0126072
6.37921e-06
-0.0131676
3.7906e-06
-0.000279691
-0.000839084
7.69981e-08
-0.0013985
3.07632e-07
-0.00195796
6.87261e-07
-0.00251746
1.20966e-06
-0.00307699
1.86217e-06
-0.00363659
2.6341e-06
-0.00419621
3.50358e-06
-0.00475595
4.45631e-06
-0.00531567
5.46031e-06
-0.00587558
6.49765e-06
-0.00643543
7.52629e-06
-0.00699554
8.52279e-06
-0.00755554
9.43779e-06
-0.00811594
1.02362e-05
-0.00867609
1.08701e-05
-0.00923688
1.12806e-05
-0.00979715
1.14394e-05
-0.0103585
1.12441e-05
-0.0109188
1.07174e-05
-0.0114811
9.6833e-06
-0.0120409
8.26256e-06
-0.0126047
6.14911e-06
-0.0131639
3.64831e-06
-0.000279769
-0.000839318
7.42866e-08
-0.00139889
2.9678e-07
-0.00195849
6.62997e-07
-0.00251812
1.16695e-06
-0.00307777
1.79636e-06
-0.00363748
2.54106e-06
-0.00419718
3.37979e-06
-0.00475697
4.29915e-06
-0.00531673
5.26805e-06
-0.00587663
6.27002e-06
-0.00643645
7.26422e-06
-0.00699649
8.22932e-06
-0.00755637
9.1174e-06
-0.00811661
9.89586e-06
-0.00867654
1.05182e-05
-0.00923708
1.09266e-05
-0.00979701
1.10939e-05
-0.0103581
1.0915e-05
-0.0109178
1.04126e-05
-0.0114798
9.4049e-06
-0.0120389
8.01068e-06
-0.0126023
5.93468e-06
-0.0131603
3.46698e-06
-0.000279845
-0.000839544
7.15692e-08
-0.00139926
2.85922e-07
-0.001959
6.38714e-07
-0.00251876
1.12416e-06
-0.00307853
1.73035e-06
-0.00363833
2.44754e-06
-0.00419811
3.25505e-06
-0.00475796
4.14019e-06
-0.00531775
5.07276e-06
-0.00587765
6.03736e-06
-0.00643744
6.99447e-06
-0.00699741
7.92443e-06
-0.00755719
8.78122e-06
-0.00811727
9.53448e-06
-0.00867699
1.01406e-05
-0.0092373
1.0543e-05
-0.00979688
1.07195e-05
-0.0103576
1.0561e-05
-0.0109168
1.00971e-05
-0.0114784
9.13251e-06
-0.0120369
7.7909e-06
-0.0125999
5.75536e-06
-0.0131569
3.29126e-06
-0.000279918
-0.000839762
6.88355e-08
-0.00139962
2.74975e-07
-0.0019595
6.14213e-07
-0.00251938
1.08097e-06
-0.00307926
1.66364e-06
-0.00363915
2.35294e-06
-0.00419902
3.12866e-06
-0.00475892
3.9788e-06
-0.00531874
4.87388e-06
-0.00587864
5.79951e-06
-0.0064384
6.71715e-06
-0.00699831
7.60869e-06
-0.00755798
8.42962e-06
-0.00811792
9.15178e-06
-0.00867744
9.73444e-06
-0.00923753
1.01231e-05
-0.00979677
1.03016e-05
-0.0103572
1.01582e-05
-0.0109159
9.73596e-06
-0.0114772
8.82346e-06
-0.0120349
7.5668e-06
-0.0125975
5.61208e-06
-0.0131537
3.27028e-06
-0.000279988
-0.000839973
6.60234e-08
-0.00139996
2.63742e-07
-0.00195997
5.89083e-07
-0.00251997
1.03664e-06
-0.00307996
1.59517e-06
-0.00363995
2.25575e-06
-0.00419989
2.99877e-06
-0.00475984
3.81273e-06
-0.00531969
4.66904e-06
-0.00587959
5.55391e-06
-0.00643933
6.4301e-06
-0.00699916
7.2802e-06
-0.00755874
8.06166e-06
-0.00811855
8.74719e-06
-0.00867788
9.29954e-06
-0.00923776
9.6647e-06
-0.00979669
9.83433e-06
-0.0103569
9.69324e-06
-0.0109151
9.30255e-06
-0.011476
8.43249e-06
-0.0120331
7.26557e-06
-0.0125953
5.40227e-06
-0.0131505
3.20393e-06
-0.000280056
-0.000840175
6.30779e-08
-0.0014003
2.51946e-07
-0.00196043
5.62673e-07
-0.00252054
9.90044e-07
-0.00308064
1.52314e-06
-0.00364071
2.1535e-06
-0.00420073
2.86197e-06
-0.00476072
3.6378e-06
-0.00532061
4.45292e-06
-0.0058805
5.29477e-06
-0.00644022
6.1264e-06
-0.00699999
6.93247e-06
-0.00755947
7.67002e-06
-0.00811916
8.31541e-06
-0.0086783
8.82965e-06
-0.009238
9.16535e-06
-0.00979661
9.31128e-06
-0.0103566
9.1625e-06
-0.0109143
8.77976e-06
-0.0114749
7.94048e-06
-0.0120313
6.84081e-06
-0.0125931
5.07168e-06
-0.0131474
3.02451e-06
-0.000280121
-0.000840369
6.02402e-08
-0.00140062
2.40593e-07
-0.00196087
5.37276e-07
-0.00252109
9.45264e-07
-0.00308129
1.454e-06
-0.00364144
2.05545e-06
-0.00420153
2.73099e-06
-0.00476157
3.47063e-06
-0.00532148
4.24685e-06
-0.00588137
5.04844e-06
-0.00644106
5.83857e-06
-0.00700077
6.60455e-06
-0.00756017
7.30195e-06
-0.00811972
7.91251e-06
-0.00867869
8.39218e-06
-0.00923821
8.70413e-06
-0.00979653
8.82593e-06
-0.0103562
8.67269e-06
-0.0109135
8.28666e-06
-0.0114739
7.47622e-06
-0.0120296
6.41903e-06
-0.0125912
4.73314e-06
-0.0131445
2.79664e-06
-0.000280183
-0.000840555
5.77367e-08
-0.00140092
2.3056e-07
-0.00196129
5.14842e-07
-0.00252162
9.05774e-07
-0.00308191
1.39315e-06
-0.00364214
1.96942e-06
-0.00420229
2.61654e-06
-0.00476238
3.32518e-06
-0.00532232
4.06876e-06
-0.0058822
4.83683e-06
-0.00644187
5.59393e-06
-0.00700152
6.32808e-06
-0.00756083
6.9969e-06
-0.00812026
7.58232e-06
-0.00867907
8.04339e-06
-0.0092384
8.34199e-06
-0.00979645
8.46039e-06
-0.0103559
8.3098e-06
-0.0109128
7.94127e-06
-0.0114729
7.15663e-06
-0.012028
6.1607e-06
-0.0125894
4.53386e-06
-0.0131418
2.72255e-06
-0.000280243
-0.000840734
5.50236e-08
-0.00140122
2.19719e-07
-0.00196169
4.9062e-07
-0.00252212
8.63136e-07
-0.00308251
1.32747e-06
-0.00364282
1.87654e-06
-0.00420303
2.49302e-06
-0.00476315
3.16814e-06
-0.00532312
3.87654e-06
-0.005883
4.60821e-06
-0.00644265
5.32973e-06
-0.00700224
6.02905e-06
-0.00756147
6.6671e-06
-0.00812079
7.22473e-06
-0.00867943
7.66629e-06
-0.00923859
7.95034e-06
-0.00979638
8.06749e-06
-0.0103557
7.92001e-06
-0.0109121
7.57132e-06
-0.011472
6.80942e-06
-0.0120265
5.8615e-06
-0.0125877
4.28481e-06
-0.0131392
2.6397e-06
-0.0002803
-0.000840905
5.20918e-08
-0.0014015
2.07976e-07
-0.00196208
4.64377e-07
-0.00252261
8.16966e-07
-0.00308308
1.25635e-06
-0.00364346
1.77605e-06
-0.00420374
2.35936e-06
-0.0047639
2.99832e-06
-0.0053239
3.66863e-06
-0.00588377
4.36107e-06
-0.0064434
5.04397e-06
-0.00700293
5.70568e-06
-0.00756208
6.31006e-06
-0.0081213
6.83737e-06
-0.00867978
7.25703e-06
-0.00923878
7.5251e-06
-0.00979631
7.64136e-06
-0.0103554
7.49985e-06
-0.0109115
7.18021e-06
-0.0114712
6.44771e-06
-0.012025
5.54081e-06
-0.0125861
3.98162e-06
-0.0131367
2.44183e-06
-0.000280354
-0.000841067
4.89027e-08
-0.00140177
1.95242e-07
-0.00196245
4.35954e-07
-0.00252307
7.66992e-07
-0.00308362
1.17945e-06
-0.00364407
1.66744e-06
-0.00420441
2.21507e-06
-0.0047646
2.81504e-06
-0.00532463
3.44452e-06
-0.0058845
4.09465e-06
-0.00644411
4.73634e-06
-0.00700359
5.35738e-06
-0.00756267
5.92607e-06
-0.00812178
6.42014e-06
-0.00868012
6.81649e-06
-0.00923898
7.06537e-06
-0.00979625
7.17969e-06
-0.0103552
7.04237e-06
-0.0109108
6.76116e-06
-0.0114704
6.06539e-06
-0.0120236
5.24928e-06
-0.0125847
3.99521e-06
-0.0131343
2.29769e-06
-0.000280405
-0.00084122
4.54545e-08
-0.00140202
1.8145e-07
-0.0019628
4.05177e-07
-0.0025235
7.12924e-07
-0.00308414
1.09629e-06
-0.00364465
1.5501e-06
-0.00420504
2.05927e-06
-0.00476527
2.61737e-06
-0.00532532
3.20296e-06
-0.00588519
3.80774e-06
-0.00644479
4.40525e-06
-0.00700423
4.98271e-06
-0.00756323
5.51345e-06
-0.00812225
5.97188e-06
-0.00868045
6.34407e-06
-0.00923918
6.57153e-06
-0.00979621
6.68281e-06
-0.010355
6.54517e-06
-0.0109102
6.29551e-06
-0.0114696
5.63396e-06
-0.0120222
4.9423e-06
-0.0125834
3.61112e-06
-0.0131322
2.15081e-06
-0.000280453
-0.000841364
4.17191e-08
-0.00140225
1.66549e-07
-0.00196312
3.71955e-07
-0.0025239
6.54581e-07
-0.00308462
1.00662e-06
-0.00364519
1.42365e-06
-0.00420564
1.89151e-06
-0.0047659
2.40462e-06
-0.00532597
2.94338e-06
-0.00588584
3.49949e-06
-0.00644542
4.05017e-06
-0.00700482
4.58059e-06
-0.00756376
5.0716e-06
-0.0081227
5.49122e-06
-0.00868076
5.83973e-06
-0.00923938
6.04376e-06
-0.00979616
6.1573e-06
-0.0103548
6.01765e-06
-0.0109097
5.79402e-06
-0.0114691
5.12115e-06
-0.012021
4.57903e-06
-0.012582
3.31308e-06
-0.0131302
1.97234e-06
-0.000280498
-0.000841496
3.77243e-08
-0.00140247
1.50568e-07
-0.00196342
3.36281e-07
-0.00252428
5.91903e-07
-0.00308506
9.10262e-07
-0.00364569
1.28784e-06
-0.00420619
1.71135e-06
-0.00476648
2.17626e-06
-0.00532658
2.66491e-06
-0.00588644
3.16896e-06
-0.00644601
3.66991e-06
-0.00700538
4.14986e-06
-0.00756425
4.59915e-06
-0.00812313
4.97634e-06
-0.00868104
5.3009e-06
-0.00923958
5.47818e-06
-0.00979612
5.60087e-06
-0.0103547
5.45736e-06
-0.0109091
5.30896e-06
-0.0114687
4.97795e-06
-0.0120198
4.08068e-06
-0.0125808
3.00697e-06
-0.0131283
1.78465e-06
-0.000280538
-0.000841617
3.34736e-08
-0.00140267
1.33567e-07
-0.0019637
2.9828e-07
-0.00252462
5.2507e-07
-0.00308547
8.07418e-07
-0.00364615
1.14286e-06
-0.00420669
1.51908e-06
-0.00476702
1.93248e-06
-0.00532713
2.36782e-06
-0.005887
2.81597e-06
-0.00644655
3.26475e-06
-0.00700589
3.69034e-06
-0.0075647
4.09739e-06
-0.00812353
4.42731e-06
-0.00868131
4.73029e-06
-0.0092398
4.87385e-06
-0.00979607
5.01068e-06
-0.0103547
4.85507e-06
-0.0109086
4.80009e-06
-0.0114682
4.32683e-06
-0.0120189
3.65149e-06
-0.0125797
2.71256e-06
-0.0131267
1.60208e-06
-0.000280574
-0.000841725
2.9003e-08
-0.00140285
1.15626e-07
-0.00196394
2.58093e-07
-0.00252493
4.54321e-07
-0.00308584
6.98409e-07
-0.00364656
9.89224e-07
-0.00420715
1.31536e-06
-0.0047675
1.67404e-06
-0.00532764
2.05268e-06
-0.00588751
2.44081e-06
-0.00644704
2.83514e-06
-0.00700637
3.20187e-06
-0.00756511
3.56785e-06
-0.00812392
3.84383e-06
-0.00868154
4.13382e-06
-0.00924004
4.23594e-06
-0.00979602
4.40295e-06
-0.0103547
4.25641e-06
-0.0109082
4.1185e-06
-0.0114677
3.74008e-06
-0.0120181
3.19015e-06
-0.0125788
2.38313e-06
-0.0131252
1.40794e-06
-0.000280606
-0.000841821
2.42557e-08
-0.00140301
9.67373e-08
-0.00196416
2.15862e-07
-0.0025252
3.8007e-07
-0.00308616
5.84023e-07
-0.00364693
8.28045e-07
-0.00420755
1.10163e-06
-0.00476793