/*--------------------------------*- C++ -*----------------------------------*\
  =========                 |
  \\      /  F ield         | OpenFOAM: The Open Source CFD Toolbox
   \\    /   O peration     | Website:  https://openfoam.org
    \\  /    A nd           | Version:  10
     \\/     M anipulation  |
\*---------------------------------------------------------------------------*/
FoamFile
{
    format      ascii;
    class       volScalarField;
    location    "0.1";
    object      T;
}
// * * * * * * * * * * * * * * * * * * * * * * * * * * * * * * * * * * * * * //

dimensions      [0 0 0 1 0 0 0];

internalField   nonuniform List<scalar> 
4176
(
181.677
181.684
181.7
181.718
181.752
181.78
181.833
181.871
181.943
181.99
182.08
182.137
182.244
182.312
182.432
182.518
182.638
182.757
182.865
183.031
183.108
183.339
183.354
183.654
181.677
181.684
181.7
181.719
181.753
181.783
181.836
181.876
181.948
181.998
182.089
182.148
182.257
182.328
182.45
182.538
182.661
182.783
182.894
183.063
183.14
183.382
183.4
183.73
181.666
181.672
181.688
181.707
181.739
181.77
181.82
181.86
181.93
181.979
182.068
182.126
182.232
182.301
182.422
182.507
182.629
182.747
182.855
183.02
183.093
183.33
183.348
183.689
181.684
181.691
181.707
181.726
181.758
181.788
181.839
181.879
181.948
181.997
182.086
182.143
182.25
182.318
182.44
182.525
182.647
182.768
182.871
183.041
183.111
183.345
183.36
183.688
181.73
181.737
181.752
181.771
181.803
181.833
181.882
181.922
181.99
182.039
182.127
182.183
182.29
182.356
182.478
182.56
182.685
182.803
182.903
183.075
183.144
183.375
183.391
183.705
181.795
181.803
181.818
181.836
181.868
181.898
181.946
181.986
182.053
182.102
182.188
182.245
182.35
182.416
182.537
182.618
182.744
182.857
182.962
183.129
183.2
183.429
183.448
183.765
181.892
181.899
181.914
181.933
181.964
181.993
182.041
182.081
182.147
182.195
182.281
182.337
182.441
182.507
182.626
182.705
182.832
182.94
183.05
183.211
183.284
183.509
183.53
183.842
182.007
182.014
182.029
182.047
182.078
182.107
182.154
182.193
182.259
182.306
182.39
182.446
182.549
182.613
182.731
182.809
182.936
183.04
183.152
183.307
183.383
183.604
183.627
183.939
182.153
182.16
182.175
182.193
182.223
182.252
182.299
182.338
182.402
182.449
182.532
182.587
182.688
182.752
182.869
182.946
183.071
183.172
183.286
183.436
183.513
183.731
183.755
184.058
182.317
182.324
182.339
182.357
182.386
182.415
182.461
182.499
182.563
182.609
182.691
182.745
182.844
182.907
183.022
183.097
183.222
183.319
183.434
183.579
183.658
183.871
183.896
184.198
182.512
182.52
182.534
182.552
182.581
182.609
182.654
182.692
182.754
182.8
182.881
182.934
183.032
183.094
183.207
183.281
183.404
183.498
183.614
183.754
183.835
184.042
184.068
184.361
182.725
182.733
182.747
182.765
182.793
182.821
182.865
182.902
182.964
183.009
183.087
183.14
183.236
183.296
183.408
183.48
183.602
183.693
183.809
183.943
184.025
184.226
184.254
184.546
182.969
182.977
182.991
183.008
183.036
183.063
183.107
183.143
183.204
183.248
183.326
183.377
183.472
183.531
183.641
183.711
183.831
183.919
184.035
184.165
184.248
184.443
184.471
184.753
183.231
183.239
183.253
183.27
183.297
183.324
183.367
183.402
183.461
183.505
183.581
183.631
183.724
183.781
183.889
183.957
184.075
184.161
184.276
184.4
184.484
184.674
184.702
184.983
183.524
183.532
183.545
183.562
183.589
183.615
183.657
183.692
183.75
183.792
183.866
183.915
184.007
184.063
184.169
184.235
184.351
184.434
184.548
184.668
184.752
184.936
184.964
185.233
183.835
183.843
183.856
183.872
183.899
183.924
183.965
183.999
184.056
184.096
184.169
184.217
184.306
184.36
184.464
184.528
184.642
184.722
184.835
184.949
185.034
185.211
185.239
185.508
184.176
184.184
184.197
184.213
184.238
184.263
184.303
184.336
184.392
184.431
184.503
184.549
184.636
184.689
184.791
184.852
184.965
185.041
185.153
185.262
185.347
185.518
185.546
185.803
184.536
184.544
184.556
184.572
184.597
184.621
184.66
184.692
184.746
184.784
184.853
184.898
184.983
185.034
185.133
185.192
185.302
185.375
185.485
185.59
185.674
185.839
185.867
186.122
184.926
184.933
184.945
184.961
184.985
185.009
185.046
185.077
185.13
185.167
185.234
185.277
185.36
185.409
185.506
185.563
185.67
185.741
185.849
185.948
186.032
186.19
186.219
186.461
185.335
185.342
185.354
185.369
185.392
185.415
185.451
185.481
185.532
185.567
185.633
185.674
185.754
185.801
185.895
185.949
186.054
186.121
186.227
186.321
186.404
186.556
186.585
186.826
185.772
185.78
185.791
185.805
185.828
185.85
185.886
185.914
185.963
185.997
186.061
186.1
186.178
186.223
186.315
186.366
186.468
186.532
186.635
186.725
186.807
186.953
186.982
187.209
186.23
186.238
186.248
186.262
186.284
186.305
186.339
186.366
186.413
186.446
186.507
186.544
186.62
186.661
186.75
186.799
186.898
186.958
187.059
187.144
187.224
187.363
187.392
187.618
186.716
186.723
186.734
186.747
186.768
186.788
186.821
186.846
186.892
186.923
186.982
187.017
187.091
187.13
187.216
187.262
187.358
187.415
187.512
187.593
187.672
187.804
187.833
188.044
187.221
187.229
187.239
187.252
187.272
187.29
187.322
187.346
187.39
187.419
187.476
187.508
187.579
187.616
187.699
187.741
187.834
187.887
187.981
188.057
188.135
188.26
188.287
188.498
187.755
187.762
187.772
187.784
187.803
187.821
187.851
187.874
187.916
187.943
187.998
188.028
188.096
188.131
188.211
188.251
188.339
188.39
188.48
188.552
188.627
188.746
188.772
188.968
188.308
188.316
188.325
188.336
188.355
188.371
188.4
188.421
188.461
188.486
188.538
188.566
188.631
188.663
188.739
188.776
188.861
188.908
188.995
189.061
189.135
189.246
189.271
189.466
188.889
188.896
188.905
188.916
188.933
188.949
188.976
188.996
189.034
189.057
189.107
189.133
189.195
189.224
189.297
189.331
189.413
189.456
189.54
189.602
189.672
189.777
189.801
189.98
189.49
189.497
189.505
189.515
189.532
189.546
189.572
189.59
189.626
189.647
189.694
189.717
189.776
189.802
189.872
189.902
189.981
190.02
190.1
190.157
190.224
190.322
190.345
190.523
190.117
190.124
190.132
190.141
190.157
190.17
190.194
190.211
190.245
190.264
190.309
190.33
190.386
190.409
190.476
190.503
190.578
190.613
190.689
190.742
190.806
190.897
190.919
191.082
190.764
190.771
190.779
190.787
190.802
190.814
190.837
190.851
190.883
190.9
190.942
190.96
191.014
191.033
191.097
191.12
191.191
191.222
191.295
191.342
191.403
191.487
191.507
191.669
191.437
191.444
191.451
191.459
191.472
191.483
191.505
191.518
191.548
191.563
191.603
191.619
191.669
191.686
191.746
191.766
191.834
191.86
191.929
191.973
192.03
192.107
192.126
192.271
192.13
192.137
192.143
192.151
192.163
192.173
192.193
192.204
192.232
192.245
192.282
192.295
192.343
192.356
192.413
192.429
192.493
192.515
192.58
192.618
192.672
192.742
192.76
192.903
192.848
192.854
192.86
192.867
192.879
192.888
192.906
192.916
192.942
192.953
192.988
192.998
193.043
193.054
193.107
193.12
193.18
193.199
193.26
193.293
193.343
193.407
193.423
193.55
193.585
193.592
193.598
193.604
193.614
193.622
193.639
193.647
193.671
193.679
193.712
193.72
193.762
193.769
193.819
193.828
193.884
193.898
193.955
193.983
194.03
194.088
194.101
194.226
194.347
194.354
194.359
194.365
194.374
194.381
194.396
194.403
194.425
194.432
194.462
194.467
194.507
194.511
194.558
194.563
194.617
194.627
194.68
194.703
194.746
194.797
194.809
194.917
195.129
195.136
195.14
195.145
195.154
195.159
195.173
195.178
195.199
195.203
195.231
195.233
195.269
195.27
195.315
195.316
195.366
195.371
195.42
195.439
195.477
195.522
195.532
195.638
195.934
195.941
195.945
195.949
195.957
195.961
195.974
195.978
195.996
195.998
196.024
196.024
196.058
196.056
196.097
196.095
196.142
196.143
196.189
196.203
196.238
196.277
196.283
196.373
196.759
196.765
196.769
196.773
196.78
196.783
196.794
196.796
196.813
196.813
196.836
196.834
196.865
196.859
196.898
196.891
196.934
196.931
196.974
196.982
197.014
197.047
197.05
197.138
197.606
197.612
197.616
197.619
197.625
197.628
197.637
197.638
197.653
197.652
197.673
197.668
197.696
197.689
197.724
197.714
197.754
197.747
197.786
197.79
197.818
197.845
197.845
197.917
198.473
198.48
198.483
198.485
198.49
198.492
198.5
198.499
198.513
198.509
198.528
198.52
198.546
198.535
198.567
198.554
198.59
198.578
198.614
198.612
198.637
198.658
198.655
198.726
199.362
199.368
199.371
199.373
199.377
199.378
199.385
199.383
199.395
199.389
199.406
199.397
199.42
199.406
199.435
199.419
199.452
199.437
199.469
199.462
199.483
199.499
199.493
199.549
200.27
200.277
200.279
200.281
200.284
200.283
200.289
200.286
200.296
200.288
200.303
200.291
200.312
200.295
200.321
200.3
200.331
200.31
200.34
200.327
200.345
200.354
200.346
200.401
201.2
201.206
201.208
201.209
201.212
201.21
201.215
201.21
201.218
201.21
201.222
201.208
201.226
201.207
201.231
201.207
201.235
201.21
201.237
201.219
201.234
201.237
201.226
201.266
202.149
202.155
202.157
202.157
202.159
202.157
202.16
202.154
202.16
202.149
202.16
202.143
202.159
202.136
202.158
202.13
202.155
202.126
202.149
202.126
202.139
202.135
202.121
202.159
203.118
203.124
203.125
203.125
203.126
203.123
203.125
203.118
203.123
203.111
203.119
203.101
203.114
203.089
203.108
203.077
203.099
203.066
203.087
203.059
203.07
203.059
203.044
203.067
204.106
204.113
204.113
204.113
204.113
204.109
204.11
204.101
204.104
204.09
204.096
204.075
204.086
204.058
204.074
204.04
204.059
204.022
204.04
204.006
204.015
203.997
203.981
204.002
205.115
205.12
205.121
205.12
205.119
205.115
205.114
205.104
205.106
205.09
205.094
205.072
205.08
205.05
205.063
205.026
205.043
205.001
205.017
204.979
204.986
204.961
204.944
204.95
206.141
206.147
206.147
206.146
206.144
206.138
206.137
206.126
206.125
206.107
206.11
206.085
206.091
206.057
206.069
206.027
206.042
205.995
206.01
205.965
205.97
205.939
205.921
205.924
207.186
207.192
207.192
207.19
207.188
207.181
207.178
207.166
207.164
207.145
207.145
207.118
207.123
207.087
207.095
207.051
207.063
207.013
207.025
206.975
206.979
206.94
206.924
206.911
208.249
208.255
208.255
208.252
208.249
208.242
208.238
208.224
208.221
208.199
208.198
208.168
208.171
208.132
208.138
208.09
208.1
208.045
208.056
207.999
208.003
207.955
207.939
207.923
209.33
209.336
209.335
209.332
209.328
209.32
209.315
209.3
209.295
209.273
209.269
209.238
209.238
209.197
209.201
209.15
209.158
209.099
209.108
209.046
209.05
208.994
208.978
208.949
210.427
210.433
210.432
210.429
210.424
210.415
210.409
210.393
210.386
210.362
210.357
210.323
210.322
210.277
210.28
210.224
210.232
210.166
210.176
210.106
210.111
210.046
210.031
209.998
211.541
211.547
211.545
211.542
211.536
211.527
211.519
211.502
211.495
211.469
211.463
211.427
211.424
211.377
211.378
211.319
211.325
211.255
211.264
211.188
211.193
211.123
211.106
211.062
212.671
212.676
212.674
212.67
212.664
212.654
212.646
212.628
212.618
212.591
212.583
212.545
212.541
212.49
212.491
212.427
212.433
212.356
212.367
212.283
212.288
212.211
212.194
212.146
213.815
213.82
213.818
213.814
213.807
213.796
213.787
213.768
213.758
213.729
213.72
213.68
213.675
213.621
213.622
213.553
213.561
213.478
213.488
213.4
213.403
213.322
213.303
213.245
214.973
214.979
214.977
214.972
214.965
214.954
214.943
214.923
214.912
214.881
214.872
214.829
214.824
214.765
214.767
214.693
214.7
214.613
214.622
214.529
214.531
214.444
214.425
214.363
216.146
216.151
216.148
216.144
216.136
216.124
216.113
216.092
216.08
216.048
216.039
215.992
215.988
215.926
215.928
215.85
215.857
215.767
215.774
215.679
215.678
215.588
215.566
215.497
217.33
217.336
217.333
217.328
217.32
217.308
217.296
217.274
217.262
217.227
217.218
217.169
217.165
217.1
217.1
217.021
217.025
216.933
216.938
216.839
216.837
216.742
216.721
216.646
218.527
218.533
218.529
218.525
218.515
218.504
218.491
218.468
218.456
218.42
218.411
218.36
218.355
218.289
218.288
218.207
218.21
218.116
218.119
218.018
218.014
217.915
217.893
217.812
219.735
219.741
219.737
219.733
219.723
219.711
219.697
219.675
219.661
219.625
219.615
219.563
219.556
219.489
219.486
219.404
219.405
219.31
219.311
219.207
219.202
219.1
219.077
218.991
220.954
220.96
220.956
220.952
220.941
220.929
220.914
220.893
220.878
220.842
220.83
220.778
220.77
220.703
220.699
220.616
220.615
220.519
220.518
220.413
220.406
220.301
220.276
220.186
222.183
222.189
222.185
222.18
222.17
222.158
222.142
222.122
222.104
222.07
222.055
222.004
221.995
221.927
221.921
221.838
221.835
221.737
221.735
221.628
221.62
221.512
221.488
221.392
223.422
223.427
223.424
223.419
223.408
223.396
223.38
223.36
223.341
223.308
223.291
223.242
223.23
223.163
223.155
223.072
223.068
222.969
222.966
222.857
222.848
222.737
222.712
222.613
224.669
224.675
224.671
224.666
224.656
224.643
224.627
224.607
224.587
224.555
224.536
224.488
224.474
224.407
224.398
224.314
224.309
224.209
224.205
224.094
224.085
223.972
223.947
223.843
225.925
225.931
225.927
225.922
225.912
225.9
225.884
225.863
225.843
225.811
225.791
225.744
225.728
225.662
225.652
225.567
225.561
225.461
225.455
225.344
225.334
225.218
225.192
225.086
227.189
227.195
227.192
227.187
227.176
227.164
227.148
227.127
227.106
227.075
227.054
227.007
226.99
226.924
226.913
226.828
226.821
226.72
226.713
226.601
226.589
226.472
226.447
226.337
228.463
228.469
228.465
228.46
228.449
228.437
228.42
228.4
228.378
228.348
228.325
228.279
228.26
228.194
228.182
228.097
228.089
227.988
227.98
227.867
227.855
227.736
227.71
227.598
229.743
229.749
229.745
229.741
229.73
229.717
229.7
229.68
229.657
229.627
229.602
229.557
229.536
229.471
229.458
229.372
229.363
229.261
229.253
229.139
229.126
229.006
228.981
228.866
231.031
231.038
231.034
231.029
231.017
231.005
230.987
230.966
230.943
230.912
230.887
230.842
230.82
230.755
230.74
230.654
230.645
230.542
230.533
230.418
230.405
230.284
230.257
230.142
232.326
232.332
232.328
232.323
232.311
232.298
232.28
232.259
232.235
232.204
232.176
232.132
232.108
232.044
232.027
231.941
231.931
231.827
231.817
231.702
231.688
231.567
231.541
231.423
233.626
233.633
233.628
233.623
233.611
233.597
233.578
233.556
233.531
233.5
233.471
233.427
233.4
233.338
233.318
233.233
233.222
233.118
233.107
232.992
232.978
232.856
232.829
232.711
234.93
234.936
234.932
234.926
234.913
234.899
234.88
234.857
234.831
234.8
234.769
234.726
234.696
234.635
234.613
234.53
234.516
234.412
234.402
234.286
234.271
234.149
234.124
234.003
236.234
236.24
236.236
236.229
236.217
236.202
236.182
236.159
236.133
236.101
236.07
236.027
235.995
235.936
235.91
235.83
235.813
235.712
235.7
235.585
235.57
235.448
235.422
235.303
237.536
237.542
237.538
237.532
237.519
237.505
237.485
237.462
237.436
237.404
237.373
237.331
237.298
237.24
237.212
237.134
237.114
237.016
237.003
236.888
236.873
236.752
236.727
236.606
238.831
238.837
238.833
238.828
238.816
238.802
238.784
238.762
238.736
238.705
238.675
238.634
238.601
238.546
238.516
238.442
238.419
238.324
238.309
238.196
238.181
238.061
238.036
237.917
240.12
240.126
240.123
240.118
240.108
240.095
240.078
240.058
240.034
240.006
239.977
239.938
239.906
239.853
239.823
239.753
239.728
239.637
239.62
239.51
239.494
239.375
239.352
239.232
241.399
241.405
241.403
241.4
241.391
241.38
241.365
241.348
241.327
241.301
241.275
241.239
241.21
241.161
241.132
241.066
241.041
240.955
240.937
240.829
240.815
240.695
240.673
240.554
242.675
242.682
242.68
242.678
242.671
242.662
242.65
242.635
242.617
242.594
242.571
242.54
242.513
242.469
242.443
242.381
242.359
242.276
242.259
242.155
242.141
242.022
242.001
241.881
243.948
243.955
243.955
243.954
243.948
243.942
243.931
243.919
243.904
243.885
243.865
243.838
243.815
243.775
243.753
243.695
243.678
243.599
243.587
243.485
243.475
243.357
243.338
243.217
245.234
245.242
245.241
245.242
245.235
245.231
245.22
245.211
245.196
245.181
245.162
245.138
245.118
245.081
245.065
245.007
244.999
244.918
244.916
244.815
244.812
244.697
244.682
244.564
246.537
246.546
246.544
246.545
246.539
246.535
246.524
246.515
246.5
246.485
246.467
246.445
246.425
246.391
246.377
246.32
246.319
246.236
246.243
246.142
246.148
246.035
246.027
245.917
247.876
247.884
247.883
247.882
247.875
247.868
247.857
247.844
247.829
247.811
247.791
247.767
247.745
247.712
247.693
247.641
247.636
247.558
247.564
247.465
247.475
247.364
247.362
247.258
249.255
249.262
249.26
249.257
249.249
249.24
249.225
249.209
249.19
249.167
249.144
249.115
249.089
249.052
249.027
248.975
248.961
248.886
248.889
248.787
248.8
248.685
248.688
248.583
250.684
250.691
250.688
250.683
250.672
250.659
250.641
250.62
250.595
250.566
250.536
250.5
250.465
250.422
250.387
250.331
250.306
250.227
250.222
250.115
250.126
250.003
250.009
249.897
252.163
252.17
252.165
252.159
252.145
252.129
252.106
252.081
252.049
252.016
251.976
251.935
251.889
251.837
251.791
251.724
251.689
251.596
251.583
251.461
251.468
251.33
251.336
251.209
253.689
253.697
253.691
253.683
253.667
253.648
253.621
253.592
253.555
253.516
253.468
253.419
253.364
253.303
253.244
253.168
253.116
253.011
252.982
252.844
252.837
252.68
252.68
252.531
255.257
255.264
255.258
255.249
255.232
255.211
255.182
255.149
255.11
255.065
255.015
254.958
254.897
254.827
254.759
254.674
254.603
254.494
254.437
254.291
254.259
254.078
254.065
253.879
256.853
256.86
256.854
256.844
256.826
256.804
256.775
256.74
256.699
256.651
256.598
256.538
256.474
256.4
256.325
256.235
256.152
256.042
255.958
255.815
255.748
255.556
255.518
255.286
258.471
258.478
258.472
258.462
258.445
258.422
258.393
258.358
258.317
258.27
258.216
258.156
258.09
258.015
257.938
257.847
257.76
257.648
257.555
257.414
257.323
257.136
257.07
256.802
260.09
260.097
260.092
260.082
260.065
260.044
260.015
259.982
259.941
259.896
259.843
259.785
259.72
259.648
259.572
259.484
259.398
259.29
259.197
259.061
258.969
258.788
258.718
258.454
261.711
261.718
261.713
261.704
261.688
261.668
261.641
261.61
261.571
261.528
261.477
261.422
261.36
261.292
261.219
261.135
261.053
260.95
260.863
260.732
260.65
260.474
260.416
260.175
263.309
263.316
263.312
263.305
263.29
263.272
263.246
263.217
263.18
263.141
263.093
263.042
262.984
262.921
262.852
262.776
262.697
262.604
262.521
262.401
262.326
262.162
262.109
261.888
264.893
264.9
264.897
264.89
264.877
264.86
264.836
264.81
264.776
264.74
264.695
264.649
264.594
264.536
264.472
264.401
264.329
264.243
264.166
264.055
263.986
263.836
263.787
263.584
266.438
266.446
266.443
266.438
266.425
266.411
266.389
266.366
266.334
266.303
266.26
266.22
266.168
266.118
266.057
265.995
265.926
265.85
265.779
265.678
265.616
265.479
265.433
265.25
267.958
267.967
267.963
267.96
267.947
267.937
267.915
267.896
267.865
267.839
267.797
267.764
267.713
267.671
267.612
267.559
267.494
267.426
267.361
267.269
267.211
267.088
267.046
266.88
269.43
269.438
269.436
269.434
269.423
269.413
269.394
269.378
269.349
269.327
269.289
269.26
269.213
269.178
269.122
269.078
269.016
268.959
268.897
268.817
268.763
268.655
268.614
268.467
270.868
270.877
270.875
270.873
270.864
270.855
270.839
270.824
270.799
270.778
270.745
270.719
270.677
270.645
270.595
270.555
270.5
270.449
270.391
270.322
270.272
270.177
270.138
270.008
272.255
272.263
272.262
272.261
272.254
272.246
272.232
272.219
272.198
272.179
272.151
272.127
272.091
272.062
272.018
271.983
271.933
271.891
271.836
271.779
271.731
271.649
271.613
271.499
273.602
273.61
273.609
273.609
273.602
273.596
273.584
273.572
273.554
273.538
273.513
273.492
273.46
273.434
273.396
273.365
273.321
273.283
273.234
273.187
273.141
273.071
273.037
272.939
274.897
274.905
274.905
274.905
274.9
274.895
274.885
274.875
274.86
274.846
274.824
274.806
274.779
274.757
274.723
274.697
274.657
274.627
274.582
274.544
274.499
274.443
274.409
274.326
276.147
276.155
276.155
276.156
276.152
276.148
276.139
276.131
276.118
276.106
276.087
276.072
276.048
276.03
276
275.978
275.943
275.918
275.878
275.847
275.805
275.76
275.729
275.66
277.349
277.357
277.358
277.359
277.356
277.353
277.346
277.339
277.328
277.319
277.303
277.29
277.27
277.255
277.229
277.212
277.18
277.161
277.124
277.1
277.062
277.027
276.996
276.94
278.501
278.509
278.51
278.512
278.509
278.507
278.502
278.497
278.488
278.48
278.467
278.457
278.439
278.428
278.405
278.392
278.365
278.35
278.318
278.3
278.265
278.24
278.21
278.166
279.609
279.617
279.618
279.62
279.619
279.618
279.614
279.61
279.602
279.597
279.586
279.578
279.563
279.554
279.535
279.525
279.501
279.491
279.462
279.45
279.418
279.401
279.373
279.339
280.667
280.674
280.676
280.678
280.677
280.677
280.674
280.672
280.666
280.662
280.653
280.648
280.636
280.63
280.613
280.607
280.587
280.581
280.556
280.549
280.521
280.51
280.483
280.461
281.682
281.689
281.691
281.693
281.693
281.694
281.692
281.691
281.686
281.684
281.677
281.674
281.663
281.66
281.646
281.642
281.625
281.622
281.6
281.598
281.573
281.568
281.543
281.53
282.649
282.656
282.658
282.661
282.662
282.663
282.662
282.662
282.659
282.658
282.653
282.652
282.643
282.643
282.631
282.631
282.616
282.617
282.598
282.6
282.578
282.578
282.555
282.55
283.574
283.58
283.583
283.586
283.587
283.589
283.588
283.589
283.587
283.588
283.584
283.584
283.578
283.579
283.569
283.571
283.559
283.563
283.547
283.552
283.533
283.538
283.518
283.52
284.456
284.462
284.465
284.468
284.469
284.472
284.472
284.474
284.473
284.475
284.473
284.475
284.47
284.473
284.466
284.471
284.461
284.467
284.454
284.463
284.446
284.455
284.437
284.445
285.295
285.301
285.303
285.307
285.308
285.311
285.312
285.315
285.315
285.318
285.317
285.32
285.317
285.322
285.316
285.323
285.315
285.324
285.313
285.325
285.31
285.324
285.307
285.321
286.096
286.102
286.104
286.108
286.11
286.113
286.115
286.118
286.119
286.123
286.123
286.128
286.126
286.132
286.129
286.137
286.131
286.142
286.133
286.147
286.135
286.152
286.137
286.155
286.856
286.861
286.864
286.867
286.87
286.873
286.876
286.88
286.881
286.886
286.887
286.893
286.892
286.9
286.898
286.908
286.903
286.916
286.909
286.926
286.915
286.936
286.922
286.945
287.58
287.585
287.588
287.591
287.594
287.598
287.601
287.605
287.607
287.613
287.615
287.622
287.622
287.631
287.63
287.641
287.638
287.653
287.647
287.666
287.657
287.68
287.667
287.694
288.267
288.272
288.275
288.279
288.282
288.286
288.289
288.294
288.297
288.303
288.305
288.313
288.315
288.325
288.325
288.337
288.335
288.352
288.347
288.368
288.36
288.386
288.374
288.404
288.92
288.925
288.927
288.931
288.934
288.938
288.942
288.947
288.951
288.957
288.96
288.969
288.971
288.982
288.983
288.997
288.996
289.014
289.01
289.033
289.026
289.054
289.043
289.075
289.541
289.545
289.548
289.551
289.555
289.559
289.563
289.569
289.572
289.58
289.583
289.592
289.596
289.607
289.609
289.623
289.624
289.642
289.64
289.664
289.658
289.687
289.677
289.712
290.128
290.132
290.135
290.139
290.142
290.147
290.15
290.157
290.161
290.168
290.173
290.182
290.186
290.198
290.201
290.216
290.217
290.237
290.236
290.261
290.256
290.287
290.277
290.314
290.687
290.691
290.693
290.697
290.7
290.705
290.709
290.716
290.72
290.728
290.733
290.743
290.747
290.76
290.764
290.779
290.781
290.801
290.801
290.827
290.823
290.855
290.846
290.884
291.216
291.219
291.222
291.226
291.229
291.234
291.238
291.245
291.249
291.258
291.263
291.273
291.278
291.291
291.295
291.312
291.314
291.335
291.335
291.362
291.359
291.392
291.384
291.423
291.718
291.722
291.724
291.728
291.731
291.736
291.74
291.747
291.752
291.76
291.766
291.777
291.782
291.795
291.8
291.817
291.82
291.841
291.842
291.87
291.867
291.901
291.893
291.934
292.193
292.196
292.199
292.202
292.206
292.211
292.215
292.222
292.227
292.236
292.241
292.252
292.258
292.272
292.277
292.294
292.298
292.32
292.321
292.349
292.347
292.382
292.374
292.416
292.644
292.648
292.65
292.653
292.657
292.662
292.666
292.673
292.678
292.687
292.693
292.704
292.71
292.724
292.73
292.748
292.752
292.774
292.776
292.804
292.803
292.838
292.831
292.873
293.071
293.074
293.076
293.079
293.083
293.088
293.092
293.099
293.104
293.113
293.119
293.131
293.137
293.151
293.157
293.175
293.18
293.202
293.204
293.232
293.232
293.267
293.261
293.304
293.476
293.479
293.481
293.484
293.488
293.493
293.497
293.504
293.51
293.518
293.525
293.536
293.543
293.557
293.563
293.581
293.586
293.608
293.611
293.639
293.64
293.675
293.669
293.713
293.858
293.861
293.863
293.866
293.869
293.874
293.879
293.886
293.891
293.9
293.907
293.918
293.925
293.939
293.946
293.964
293.969
293.991
293.995
294.023
294.023
294.058
294.053
294.097
294.222
294.224
294.226
294.229
294.233
294.238
294.242
294.249
294.255
294.264
294.27
294.281
294.288
294.303
294.309
294.327
294.333
294.355
294.359
294.387
294.388
294.423
294.418
294.461
294.564
294.566
294.568
294.571
294.575
294.58
294.584
294.591
294.597
294.606
294.612
294.624
294.63
294.645
294.652
294.67
294.675
294.698
294.701
294.729
294.73
294.765
294.761
294.803
294.89
294.892
294.894
294.897
294.901
294.905
294.91
294.917
294.922
294.931
294.938
294.949
294.956
294.97
294.977
294.995
295.001
295.024
295.027
295.055
295.056
295.091
295.087
295.129
295.197
295.199
295.201
295.204
295.207
295.212
295.216
295.223
295.229
295.238
295.244
295.255
295.262
295.277
295.283
295.301
295.307
295.33
295.334
295.361
295.363
295.397
295.393
295.435
295.489
295.491
295.493
295.496
295.499
295.504
295.508
295.515
295.521
295.53
295.536
295.547
295.554
295.569
295.575
295.593
295.599
295.622
295.626
295.653
295.654
295.689
295.685
295.726
295.764
295.766
295.767
295.77
295.774
295.778
295.783
295.789
295.795
295.804
295.81
295.821
295.828
295.842
295.849
295.867
295.873
295.895
295.899
295.927
295.928
295.962
295.959
296
296.026
296.028
296.03
296.032
296.036
296.04
296.045
296.051
296.057
296.066
296.072
296.083
296.09
296.104
296.111
296.128
296.135
296.156
296.161
296.188
296.189
296.223
296.22
296.26
296.272
296.274
296.275
296.278
296.281
296.286
296.29
296.297
296.302
296.311
296.317
296.328
296.335
296.349
296.356
296.373
296.379
296.401
296.406
296.432
296.434
296.468
296.464
296.504
296.507
296.509
296.51
296.513
296.516
296.521
296.525
296.532
296.537
296.546
296.552
296.563
296.57
296.583
296.59
296.607
296.614
296.635
296.64
296.666
296.668
296.701
296.698
296.737
296.727
296.729
296.73
296.733
296.736
296.741
296.745
296.751
296.757
296.765
296.771
296.782
296.789
296.803
296.809
296.826
296.833
296.854
296.858
296.885
296.887
296.919
296.916
296.954
296.938
296.94
296.941
296.944
296.947
296.951
296.955
296.962
296.967
296.976
296.982
296.993
296.999
297.013
297.019
297.036
297.042
297.063
297.068
297.094
297.096
297.128
297.125
297.163
297.136
297.137
297.138
297.141
297.144
297.148
297.152
297.159
297.164
297.172
297.178
297.189
297.195
297.209
297.215
297.232
297.238
297.259
297.263
297.289
297.291
297.323
297.32
297.357
297.325
297.326
297.327
297.33
297.333
297.337
297.341
297.347
297.352
297.361
297.367
297.377
297.384
297.397
297.403
297.42
297.426
297.447
297.451
297.476
297.477
297.509
297.507
297.543
297.501
297.502
297.503
297.506
297.509
297.513
297.517
297.523
297.528
297.537
297.542
297.553
297.559
297.573
297.578
297.595
297.601
297.621
297.625
297.651
297.652
297.683
297.68
297.716
297.671
297.672
297.673
297.676
297.678
297.683
297.686
297.693
297.697
297.706
297.711
297.722
297.728
297.741
297.747
297.764
297.769
297.79
297.793
297.818
297.819
297.85
297.847
297.882
297.828
297.829
297.83
297.833
297.835
297.84
297.843
297.85
297.854
297.863
297.868
297.879
297.884
297.898
297.903
297.92
297.925
297.946
297.949
297.974
297.974
298.005
298.002
298.037
297.98
297.981
297.983
297.985
297.988
297.992
297.995
298.002
298.006
298.015
298.02
298.03
298.036
298.049
298.054
298.071
298.075
298.096
298.099
298.124
298.124
298.155
298.152
298.186
298.121
298.122
298.123
298.126
298.128
298.132
298.136
298.142
298.146
298.155
298.16
298.171
298.176
298.189
298.194
298.211
298.215
298.236
298.238
298.263
298.263
298.293
298.291
298.324
298.257
298.258
298.259
298.262
298.264
298.268
298.272
298.278
298.282
298.291
298.295
298.306
298.311
298.325
298.329
298.346
298.349
298.37
298.372
298.397
298.397
298.426
298.424
298.456
298.383
298.384
298.385
298.388
298.39
298.394
298.397
298.404
298.408
298.416
298.42
298.432
298.436
298.45
298.454
298.471
298.474
298.495
298.497
298.522
298.522
298.551
298.548
298.58
298.504
298.505
298.506
298.509
298.511
298.515
298.518
298.525
298.528
298.537
298.541
298.552
298.556
298.57
298.573
298.591
298.593
298.614
298.616
298.64
298.64
298.669
298.666
298.698
298.617
298.618
298.619
298.622
298.624
298.628
298.631
298.638
298.641
298.65
298.653
298.665
298.668
298.683
298.686
298.703
298.706
298.727
298.728
298.752
298.752
298.78
298.778
298.808
298.724
298.725
298.726
298.729
298.731
298.735
298.738
298.744
298.747
298.756
298.759
298.771
298.774
298.789
298.792
298.809
298.811
298.832
298.833
298.857
298.857
298.885
298.882
298.912
298.826
298.827
298.828
298.83
298.832
298.837
298.839
298.846
298.849
298.858
298.861
298.873
298.875
298.89
298.892
298.91
298.912
298.932
298.934
298.957
298.957
298.984
298.982
299.011
298.92
298.921
298.922
298.924
298.926
298.931
298.933
298.94
298.942
298.952
298.954
298.966
298.969
298.983
298.986
299.003
299.005
299.025
299.026
299.05
299.049
299.076
299.074
299.103
299.011
299.012
299.013
299.016
299.017
299.022
299.024
299.031
299.033
299.042
299.045
299.057
299.059
299.073
299.076
299.093
299.095
299.115
299.116
299.139
299.139
299.165
299.163
299.192
299.094
299.095
299.096
299.098
299.1
299.105
299.107
299.113
299.116
299.125
299.127
299.139
299.142
299.156
299.158
299.175
299.177
299.196
299.198
299.22
299.22
299.246
299.245
299.272
299.175
299.176
299.177
299.179
299.181
299.185
299.187
299.194
299.196
299.205
299.208
299.219
299.222
299.236
299.238
299.255
299.257
299.276
299.277
299.299
299.3
299.325
299.323
299.351
299.248
299.249
299.25
299.252
299.254
299.258
299.26
299.267
299.269
299.278
299.28
299.292
299.294
299.308
299.31
299.327
299.328
299.348
299.349
299.371
299.371
299.396
299.395
299.422
299.319
299.32
299.321
299.323
299.325
299.329
299.332
299.338
299.34
299.349
299.351
299.362
299.365
299.378
299.38
299.397
299.398
299.417
299.419
299.44
299.441
299.465
299.464