/*--------------------------------*- C++ -*----------------------------------*\
  =========                 |
  \\      /  F ield         | OpenFOAM: The Open Source CFD Toolbox
   \\    /   O peration     | Website:  https://openfoam.org
    \\  /    A nd           | Version:  10
     \\/     M anipulation  |
\*---------------------------------------------------------------------------*/
FoamFile
{
    format      ascii;
    class       volVectorField;
    location    "0.1";
    object      U;
}
// * * * * * * * * * * * * * * * * * * * * * * * * * * * * * * * * * * * * * //

dimensions      [0 1 -1 0 0 0 0];

internalField   nonuniform List<vector> 
4176
(
(495.653 -0.016357 -1.42276e-09)
(495.643 0.0660899 3.93004e-10)
(495.613 -0.00280953 -3.24877e-11)
(495.575 0.0932643 5.58596e-12)
(495.511 0.0456941 2.37127e-11)
(495.45 0.0925396 -1.45407e-11)
(495.35 0.119657 -6.70817e-11)
(495.269 0.0635659 -3.84013e-11)
(495.133 0.218147 3.71684e-12)
(495.032 0.0080916 1.72555e-11)
(494.86 0.336228 -1.74313e-11)
(494.739 -0.0652885 1.01798e-11)
(494.534 0.46041 5.15231e-11)
(494.389 -0.134664 1.36925e-11)
(494.16 0.556713 -1.97645e-11)
(493.979 -0.129196 -5.66642e-12)
(493.749 0.516117 -2.06017e-11)
(493.502 0.0298704 -2.96774e-11)
(493.293 0.323007 5.58338e-11)
(492.954 0.32819 7.1744e-11)
(492.804 -0.0261252 -1.06041e-11)
(492.33 0.775606 -3.79228e-11)
(492.303 -0.522121 4.9866e-12)
(491.684 1.44397 1.74111e-11)
(495.643 0.00274008 -1.42284e-09)
(495.632 0.116721 3.93479e-10)
(495.602 0.0720267 -3.29198e-11)
(495.562 0.205723 4.89103e-12)
(495.497 0.180513 2.41515e-11)
(495.434 0.266576 -1.43273e-11)
(495.334 0.314893 -6.83614e-11)
(495.248 0.297736 -3.87926e-11)
(495.111 0.474184 4.15766e-12)
(495.005 0.300043 1.75699e-11)
(494.831 0.653538 -1.78779e-11)
(494.705 0.281096 1.04811e-11)
(494.496 0.839467 5.04891e-11)
(494.346 0.261548 1.4043e-11)
(494.111 0.999692 -1.96303e-11)
(493.926 0.306951 -5.2879e-12)
(493.688 1.02757 -2.20283e-11)
(493.437 0.515175 -3.01454e-11)
(493.223 0.900265 5.49776e-11)
(492.876 0.858318 7.15713e-11)
(492.725 0.616669 -1.05507e-11)
(492.23 1.33187 -4.03372e-11)
(492.197 0.116212 5.74269e-12)
(491.515 1.99159 1.69435e-11)
(495.658 0.0209702 -1.42661e-09)
(495.647 0.163252 3.92505e-10)
(495.618 0.142987 -3.48388e-11)
(495.578 0.309868 5.91692e-12)
(495.516 0.307793 2.42927e-11)
(495.452 0.428451 -1.51182e-11)
(495.356 0.498568 -6.6433e-11)
(495.271 0.516503 -3.76474e-11)
(495.139 0.714331 5.75362e-12)
(495.034 0.57405 1.79238e-11)
(494.864 0.95062 -1.88179e-11)
(494.741 0.607606 1.00672e-11)
(494.536 1.19442 5.27954e-11)
(494.391 0.635954 1.45938e-11)
(494.158 1.41492 -1.98437e-11)
(493.98 0.717415 -4.17883e-12)
(493.743 1.5068 -2.50782e-11)
(493.499 0.969097 -3.23355e-11)
(493.289 1.44215 5.56716e-11)
(492.951 1.34583 7.15343e-11)
(492.809 1.23405 -1.13614e-11)
(492.322 1.88195 -3.78625e-11)
(492.29 0.827573 5.88603e-12)
(491.584 2.60595 1.77886e-11)
(495.603 0.0396332 -1.42562e-09)
(495.592 0.210648 3.96219e-10)
(495.563 0.215255 -3.57829e-11)
(495.523 0.415919 9.00438e-12)
(495.462 0.437363 2.40157e-11)
(495.398 0.593362 -1.94181e-11)
(495.302 0.685548 -6.70235e-11)
(495.217 0.739494 -4.08689e-11)
(495.084 0.958788 -1.33913e-12)
(494.98 0.853504 2.14332e-11)
(494.809 1.25303 -1.79287e-11)
(494.687 0.940862 8.68934e-12)
(494.479 1.55602 5.5018e-11)
(494.337 1.01876 1.35163e-11)
(494.1 1.83853 -2.68534e-11)
(493.924 1.13714 -5.49736e-12)
(493.684 1.99948 -2.30268e-11)
(493.436 1.42823 -3.32449e-11)
(493.236 1.99258 5.79511e-11)
(492.888 1.84082 7.12941e-11)
(492.75 1.84266 -1.40035e-11)
(492.271 2.41844 -3.88484e-11)
(492.243 1.51231 3.98054e-12)
(491.567 3.20096 8.18714e-12)
(495.51 0.0579092 -1.42694e-09)
(495.499 0.25709 4.0245e-10)
(495.471 0.285976 -3.20736e-11)
(495.431 0.519887 9.02765e-12)
(495.371 0.564152 2.7715e-11)
(495.307 0.755168 -1.38664e-11)
(495.212 0.868525 -6.95799e-11)
(495.128 0.958525 -3.93954e-11)
(494.997 1.19802 3.69633e-12)
(494.894 1.1283 1.93955e-11)
(494.724 1.54905 -1.78271e-11)
(494.604 1.26877 1.1905e-11)
(494.398 1.91043 5.22933e-11)
(494.258 1.39538 1.299e-11)
(494.021 2.25539 -2.48814e-11)
(493.85 1.55011 -8.10113e-12)
(493.605 2.49355 -2.4422e-11)
(493.363 1.87059 -3.29658e-11)
(493.166 2.53575 5.25872e-11)
(492.815 2.33722 7.73996e-11)
(492.68 2.43564 -6.24526e-12)
(492.205 2.94292 -3.60822e-11)
(492.177 2.15338 7.45375e-12)
(491.521 3.7577 1.8853e-11)
(495.361 0.076176 -1.43782e-09)
(495.35 0.303219 3.99572e-10)
(495.322 0.356533 -3.05559e-11)
(495.283 0.623235 4.35636e-12)
(495.223 0.690616 1.71503e-11)
(495.159 0.916071 -1.87773e-11)
(495.066 1.05104 -6.77819e-11)
(494.981 1.17645 -4.39922e-11)
(494.851 1.43664 3.84055e-12)
(494.748 1.40195 2.48111e-11)
(494.581 1.84414 -1.76647e-11)
(494.46 1.5958 6.46042e-12)
(494.256 2.26315 5.02458e-11)
(494.117 1.77188 1.58541e-11)
(493.88 2.66885 -2.78016e-11)
(493.713 1.96753 -5.57272e-12)
(493.463 2.98326 -1.42698e-11)
(493.233 2.31207 -3.06133e-11)
(493.023 3.08306 6.23625e-11)
(492.684 2.83286 7.98646e-11)
(492.543 3.0303 -1.03588e-11)
(492.072 3.4693 -4.69584e-11)
(492.039 2.79818 4.13608e-12)
(491.381 4.31315 1.89862e-11)
(495.164 0.094273 -1.4362e-09)
(495.153 0.348686 3.96042e-10)
(495.125 0.426318 -4.61509e-11)
(495.086 0.725157 4.43018e-12)
(495.027 0.815659 3.21619e-11)
(494.964 1.07479 -1.7709e-11)
(494.871 1.2315 -7.9662e-11)
(494.787 1.39149 -4.01677e-11)
(494.659 1.67259 9.88555e-12)
(494.556 1.67218 1.9996e-11)
(494.391 2.13588 -2.05557e-11)
(494.272 1.91914 1.76961e-11)
(494.069 2.61159 6.65643e-11)
(493.931 2.14488 1.82706e-11)
(493.696 3.07628 -2.32723e-11)
(493.533 2.38359 -2.32379e-12)
(493.28 3.46202 -2.39696e-11)
(493.061 2.75541 -3.6794e-11)
(492.84 3.62895 5.6841e-11)
(492.514 3.31692 7.77373e-11)
(492.367 3.62379 -1.16344e-11)
(491.904 3.99533 -4.72022e-11)
(491.866 3.45303 6.29368e-12)
(491.209 4.87417 2.39012e-11)
(494.915 0.112232 -1.44952e-09)
(494.905 0.39368 4.05572e-10)
(494.877 0.495477 -2.5864e-11)
(494.838 0.82605 7.87753e-12)
(494.779 0.939527 1.98995e-11)
(494.717 1.23189 -1.4559e-11)
(494.625 1.41022 -6.38277e-11)
(494.542 1.60437 -4.20915e-11)
(494.415 1.90622 -8.71271e-12)
(494.313 1.9398 1.74657e-11)
(494.15 2.4247 -9.91455e-12)
(494.031 2.2396 1.22214e-11)
(493.83 2.95643 4.17451e-11)
(493.694 2.51494 1.01513e-11)
(493.46 3.47922 -1.61142e-11)
(493.3 2.79725 -1.04187e-11)
(493.047 3.93347 -2.06257e-11)
(492.836 3.1964 -2.07905e-11)
(492.608 4.17046 6.05738e-11)
(492.294 3.79636 6.33603e-11)
(492.141 4.21519 -1.16801e-11)
(491.685 4.51671 -3.12542e-11)
(491.644 4.10275 3.64496e-12)
(490.995 5.42809 5.82518e-13)
(494.617 0.130013 -1.45819e-09)
(494.606 0.438122 3.91006e-10)
(494.579 0.563862 -4.7398e-11)
(494.54 0.925721 -4.39763e-12)
(494.482 1.06195 2.0249e-11)
(494.42 1.38708 -2.26222e-11)
(494.33 1.58678 -7.95679e-11)
(494.247 1.81463 -4.59529e-11)
(494.122 2.13695 -2.68774e-12)
(494.021 2.20418 1.42942e-11)
(493.859 2.70989 -2.18487e-11)
(493.742 2.55636 1.08598e-11)
(493.543 3.29687 5.06815e-11)
(493.409 2.88108 1.19614e-11)
(493.176 3.87679 -2.26051e-11)
(493.02 3.20717 -7.3526e-12)
(492.766 4.39647 -2.51318e-11)
(492.564 3.63454 -3.23681e-11)
(492.33 4.70533 5.702e-11)
(492.028 4.26927 7.0535e-11)
(491.869 4.80428 -1.34852e-11)
(491.421 5.0335 -4.24436e-11)
(491.376 4.74818 5.24634e-12)
(490.736 5.9755 1.67661e-11)
(494.268 0.147612 -1.43944e-09)
(494.258 0.482018 4.18895e-10)
(494.231 0.631465 -2.84168e-11)
(494.193 1.02419 1.86989e-11)
(494.135 1.18292 3.91034e-11)
(494.074 1.54037 -5.28374e-12)
(493.984 1.76118 -6.32122e-11)
(493.902 2.02227 -2.92897e-11)
(493.779 2.36475 1.51034e-11)
(493.679 2.46525 3.08595e-11)
(493.519 2.99134 -3.85428e-12)
(493.403 2.86925 2.68341e-11)
(493.206 3.63275 6.97092e-11)
(493.075 3.24303 2.5161e-11)
(492.843 4.26888 -8.79323e-12)
(492.69 3.61302 3.34566e-12)
(492.436 4.85136 -1.15974e-11)
(492.242 4.069 -2.19709e-11)
(492.004 5.23278 7.06668e-11)
(491.713 4.73577 8.23988e-11)
(491.548 5.38911 -1.24916e-12)
(491.111 5.544 -3.04247e-11)
(491.062 5.3873 1.4512e-11)
(490.432 6.51466 2.57628e-11)
(493.869 0.165004 -1.45633e-09)
(493.859 0.525319 4.06566e-10)
(493.833 0.698196 -3.77171e-11)
(493.795 1.12135 1.11299e-11)
(493.738 1.3023 3.27124e-11)
(493.677 1.69161 -1.29e-11)
(493.589 1.93321 -6.87293e-11)
(493.508 2.2271 -3.17976e-11)
(493.385 2.58935 1.28627e-11)
(493.287 2.72273 2.90176e-11)
(493.129 3.26872 -3.78769e-12)
(493.015 3.17786 2.94584e-11)
(492.82 3.96363 7.28914e-11)
(492.691 3.60022 2.74435e-11)
(492.461 4.65499 -3.9129e-12)
(492.312 4.0141 9.37968e-12)
(492.058 5.29802 -4.3318e-12)
(491.871 4.49926 -1.63193e-11)
(491.63 5.75202 8.08721e-11)
(491.35 5.1963 9.34266e-11)
(491.18 5.9671 -1.27071e-11)
(490.755 6.04622 -6.43637e-11)
(490.702 6.02049 -1.47141e-11)
(490.081 7.04513 -5.47799e-12)
(493.421 0.182167 -1.46049e-09)
(493.411 0.567981 4.08305e-10)
(493.384 0.763979 -4.06493e-11)
(493.347 1.2171 5.60659e-12)
(493.291 1.41996 2.80241e-11)
(493.231 1.84068 -1.85102e-11)
(493.143 2.10274 -7.72017e-11)
(493.063 2.42898 -4.2391e-11)
(492.943 2.81061 2.49153e-12)
(492.845 2.97647 1.94393e-11)
(492.689 3.5418 -1.44992e-11)
(492.577 3.48194 2.02998e-11)
(492.384 4.28921 6.25113e-11)
(492.258 3.95223 1.83216e-11)
(492.03 5.03475 -1.81989e-11)
(491.885 4.40978 -4.23687e-12)
(491.632 5.7365 -2.15359e-11)
(491.452 4.92488 -3.02092e-11)
(491.207 6.26234 6.22724e-11)
(490.939 5.64987 7.52704e-11)
(490.764 6.53738 -7.62073e-12)
(490.351 6.53954 -3.51839e-11)
(490.294 6.64632 1.10106e-11)
(489.685 7.56628 2.08095e-11)
(492.922 0.199074 -1.46464e-09)
(492.912 0.609946 4.06809e-10)
(492.886 0.828714 -4.6473e-11)
(492.849 1.31134 -4.15855e-13)
(492.793 1.53575 2.01281e-11)
(492.734 1.98741 -3.04595e-11)
(492.648 2.26956 -9.20366e-11)
(492.569 2.62772 -5.96333e-11)
(492.45 3.0283 -1.47574e-11)
(492.354 3.22622 6.32869e-13)
(492.2 3.81036 -4.08826e-11)
(492.09 3.78118 -5.72419e-12)
(491.899 4.60917 3.02601e-11)
(491.776 4.29863 1.33311e-11)
(491.55 5.40771 5.84971e-12)
(491.409 4.79939 1.31626e-11)
(491.158 6.16668 -3.62054e-12)
(490.984 5.34553 -1.83867e-11)
(490.737 6.7631 7.45119e-11)
(490.48 6.09578 8.58554e-11)
(490.3 7.09895 7.00091e-13)
(489.901 7.02303 -3.00892e-11)
(489.84 7.26366 1.61942e-11)
(489.243 8.0776 2.38108e-11)
(492.372 0.215698 -1.46175e-09)
(492.362 0.651162 4.30031e-10)
(492.337 0.892309 -4.72478e-11)
(492.3 1.40392 -1.98577e-11)
(492.246 1.6495 1.75319e-11)
(492.187 2.13162 -2.12416e-11)
(492.103 2.43347 -7.14484e-11)
(492.025 2.82307 -2.29348e-11)
(491.908 3.24217 4.14853e-12)
(491.814 3.47174 1.0352e-12)
(491.661 4.07412 -2.81431e-11)
(491.554 4.07532 1.77123e-11)
(491.365 4.92325 7.28548e-11)
(491.245 4.63908 3.30497e-11)
(491.021 5.77352 -2.68846e-11)
(490.885 5.18241 -2.75872e-11)
(490.635 6.58817 -3.99541e-11)
(490.467 5.76062 -3.75201e-11)
(490.218 7.25383 6.85253e-11)
(489.973 6.53349 9.1807e-11)
(489.789 7.65122 -1.13932e-11)
(489.402 7.49576 -5.89357e-11)
(489.339 7.8711 -7.00705e-13)
(488.754 8.57853 2.09159e-11)
(491.773 0.232018 -1.48024e-09)
(491.763 0.691577 3.90128e-10)
(491.738 0.954674 -3.8423e-11)
(491.702 1.49473 3.66093e-11)
(491.648 1.76104 4.34934e-11)
(491.591 2.27309 -1.80891e-11)
(491.507 2.59421 -9.18376e-11)
(491.431 3.01477 -6.93254e-11)
(491.315 3.45193 1.08152e-12)
(491.223 3.71273 4.29869e-11)
(491.073 4.3328 -7.66353e-12)
(490.968 4.36404 1.19728e-11)
(490.781 5.23112 3.90783e-11)
(490.665 4.97322 1.20677e-11)
(490.443 6.13184 -2.56912e-12)
(490.311 5.55836 1.60785e-12)
(490.063 7.00052 -2.98344e-11)
(489.902 6.16944 -4.94371e-11)
(489.652 7.73393 2.7734e-11)
(489.419 6.96267 6.29893e-11)
(489.231 8.19373 1.73708e-12)
(488.857 7.95685 -3.47589e-11)
(488.791 8.46739 -6.56537e-13)
(488.22 9.06856 -4.50327e-12)
(491.122 0.248012 -1.46914e-09)
(491.113 0.731145 4.40048e-10)
(491.088 1.01573 -4.53844e-11)
(491.053 1.58365 -2.3214e-11)
(491 1.87022 1.65671e-11)
(490.944 2.41164 -1.83444e-11)
(490.862 2.75154 -6.4452e-11)
(490.787 3.20253 -1.65895e-11)
(490.673 3.65725 4.86305e-12)
(490.583 3.94882 2.23913e-12)
(490.435 4.58601 -2.20569e-11)
(490.333 4.64697 2.57766e-11)
(490.149 5.53246 8.38374e-11)
(490.035 5.30069 9.1325e-12)
(489.816 6.48234 -5.84918e-11)
(489.689 5.92681 -2.35911e-11)
(489.443 7.40337 -3.02344e-11)
(489.289 6.5712 -2.51323e-11)
(489.038 8.20266 8.32088e-11)
(488.816 7.38306 6.97389e-11)
(488.624 8.72588 -3.68632e-11)
(488.264 8.40589 -4.7988e-11)
(488.195 9.05183 1.25825e-11)
(487.638 9.547 3.28508e-11)
(490.422 0.263658 -1.48767e-09)
(490.412 0.769821 4.02944e-10)
(490.388 1.07539 -6.35579e-11)
(490.353 1.67058 -2.71545e-11)
(490.302 1.97688 2.76048e-11)
(490.246 2.54706 8.3908e-12)
(490.166 2.9052 -6.13162e-11)
(490.092 3.38606 -3.55403e-11)
(489.981 3.85778 1.41774e-12)
(489.893 4.17963 1.35764e-11)
(489.748 4.83336 -3.34591e-11)
(489.648 4.92368 -5.69594e-12)
(489.467 5.82685 6.50223e-11)
(489.357 5.62108 4.02837e-11)
(489.141 6.82469 -7.76276e-12)
(489.018 6.28737 -1.22113e-13)
(488.774 7.79645 -2.66822e-11)
(488.627 6.96502 -4.2059e-11)
(488.377 8.65919 4.08999e-11)
(488.166 7.79435 4.68669e-11)
(487.97 9.24631 -4.82009e-11)
(487.625 8.8434 -4.47955e-11)
(487.552 9.62469 3.03387e-11)
(487.01 10.0127 2.94686e-11)
(489.67 0.278931 -1.48413e-09)
(489.661 0.807552 4.28025e-10)
(489.637 1.13358 -3.00802e-11)
(489.603 1.75538 2.73015e-11)
(489.552 2.08086 5.12281e-11)
(489.498 2.67916 4.12496e-12)
(489.419 3.05495 -5.41579e-11)
(489.348 3.56506 -1.1918e-11)
(489.239 4.05317 4.15979e-11)
(489.153 4.40477 2.56174e-11)
(489.01 5.07441 -4.96361e-11)
(488.913 5.19369 -9.08099e-12)
(488.735 6.11382 3.28614e-11)
(488.629 5.9339 -1.08007e-11)
(488.416 7.15846 -4.94519e-11)
(488.298 6.63962 -2.51845e-11)
(488.057 8.17952 -4.37227e-11)
(487.916 7.35016 -4.60424e-11)
(487.667 9.10282 5.37081e-11)
(487.467 8.19625 7.54845e-11)
(487.269 9.75442 -4.56679e-12)
(486.938 9.26913 -3.05281e-11)
(486.861 10.1854 1.91405e-11)
(486.334 10.4649 3.33684e-11)
(488.867 0.293805 -1.49504e-09)
(488.858 0.844277 4.15439e-10)
(488.835 1.19019 -5.06415e-11)
(488.801 1.83793 9.07783e-13)
(488.752 2.18198 1.90649e-11)
(488.699 2.80772 -3.89202e-11)
(488.622 3.20053 -1.00461e-10)
(488.552 3.73924 -6.24123e-11)
(488.446 4.24309 -1.69048e-11)
(488.362 4.62384 1.47192e-12)
(488.223 5.30871 -3.68828e-11)
(488.129 5.4565 -4.64984e-12)
(487.954 6.39285 2.92378e-11)
(487.852 6.23858 -1.84172e-11)
(487.642 7.48313 -6.71928e-11)
(487.529 6.98301 -4.79361e-11)
(487.291 8.55214 -3.11776e-11)
(487.157 7.72609 -5.7537e-12)
(486.909 9.53309 9.32376e-11)
(486.721 8.58835 1.01996e-10)
(486.519 10.2497 1.64196e-11)
(486.204 9.68274 -1.93403e-11)
(486.122 10.7332 2.72247e-11)
(485.612 10.9033 3.74595e-11)
(488.013 0.308243 -1.51516e-09)
(488.004 0.879919 4.27542e-10)
(487.982 1.2451 -2.18068e-11)
(487.949 1.91807 5.66274e-12)
(487.901 2.28004 4.5166e-11)
(487.849 2.93253 1.04262e-11)
(487.774 3.34169 -7.94987e-11)
(487.706 3.90832 -6.70903e-11)
(487.602 4.42721 8.0164e-13)
(487.521 4.83649 4.05358e-11)
(487.385 5.53585 -2.34173e-11)
(487.294 5.71165 2.51761e-11)
(487.123 6.66342 7.96893e-11)
(487.025 6.53454 2.13348e-12)
(486.819 7.79812 -2.19997e-11)
(486.711 7.31691 1.17133e-11)
(486.476 8.91378 -3.62186e-11)
(486.349 8.09225 -6.85943e-11)
(486.103 9.9496 4.35698e-11)
(485.926 8.97024 7.53367e-11)
(485.722 10.7317 -3.65271e-11)
(485.422 10.0839 -4.74024e-11)
(485.336 11.2676 1.47509e-11)
(484.843 11.3274 7.56917e-13)
(487.108 0.32221 -1.49959e-09)
(487.099 0.914391 4.40167e-10)
(487.077 1.29817 -2.23686e-11)
(487.045 1.99561 3.99136e-11)
(486.998 2.37482 6.37481e-11)
(486.948 3.05332 -2.74463e-11)
(486.875 3.47814 -1.25929e-10)
(486.81 4.07199 -7.66326e-11)
(486.708 4.6052 -1.75223e-11)
(486.63 5.04236 9.52394e-12)
(486.497 5.75543 -2.33659e-11)
(486.41 5.95869 2.12167e-11)
(486.242 6.92505 7.11146e-11)
(486.148 6.82122 2.80107e-11)
(485.946 8.10285 -3.33501e-12)
(485.844 7.64066 1.585e-11)
(485.613 9.26385 1.64114e-12)
(485.493 8.44796 -4.46317e-11)
(485.249 10.352 1.53116e-11)
(485.083 9.34153 4.32833e-11)
(484.877 11.1997 -3.66079e-11)
(484.592 10.4723 -6.01294e-11)
(484.502 11.7881 -1.17366e-11)
(484.027 11.7368 9.42669e-12)
(486.151 0.335662 -1.52316e-09)
(486.142 0.947601 3.93843e-10)
(486.121 1.34925 -4.59828e-11)
(486.09 2.07035 4.01168e-11)
(486.045 2.46609 4.08716e-11)
(485.996 3.16983 -2.76903e-11)
(485.925 3.60958 -1.03104e-10)
(485.862 4.22995 -3.36575e-11)
(485.763 4.77672 4.52596e-11)
(485.688 5.2411 4.7668e-11)
(485.558 5.96709 -8.69733e-12)
(485.475 6.19723 7.95413e-12)
(485.311 7.17729 2.77137e-11)
(485.222 7.09811 5.7975e-12)
(485.024 8.39675 -8.49075e-12)
(484.927 7.9536 -6.02061e-12)
(484.7 9.60171 -4.34551e-11)
(484.587 8.7924 -6.6679e-11)
(484.346 10.7399 6.01715e-11)
(484.191 9.70188 9.90363e-11)
(483.983 11.6528 -2.74514e-12)
(483.715 10.8476 -5.17861e-11)
(483.62 12.2941 -2.56312e-11)
(483.163 12.131 1.40112e-11)
(485.142 0.348565 -1.53146e-09)
(485.134 0.979464 3.96136e-10)
(485.113 1.39821 -4.66166e-11)
(485.083 2.14211 4.56113e-11)
(485.039 2.5536 5.12887e-11)
(484.992 3.28178 -2.26696e-11)
(484.924 3.73571 -1.03944e-10)
(484.863 4.38185 -8.40533e-11)
(484.767 4.94143 -4.36308e-12)
(484.695 5.43236 5.31195e-11)
(484.569 6.17045 1.52255e-12)
(484.489 6.42687 1.80223e-11)
(484.33 7.41973 3.86699e-11)
(484.245 7.36476 1.52628e-11)
(484.052 8.67934 1.67856e-12)
(483.961 8.25511 -1.48659e-12)
(483.738 9.92672 -3.86794e-11)
(483.633 9.12473 -5.83156e-11)
(483.395 11.113 7.06729e-11)
(483.251 10.0509 1.08525e-10)
(483.042 12.0901 7.41578e-12)
(482.789 11.209 -4.31326e-11)
(482.691 12.785 -1.10412e-11)
(482.252 12.5096 -1.32879e-11)
(484.081 0.360883 -1.54465e-09)
(484.073 1.0099 4.38818e-10)
(484.053 1.44492 -2.20081e-11)
(484.024 2.21071 2.02266e-12)
(483.982 2.63714 -3.80016e-12)
(483.937 3.38891 -3.89829e-11)
(483.871 3.85622 -7.91841e-11)
(483.812 4.52736 -6.87748e-11)
(483.72 5.09895 8.871e-13)
(483.651 5.61575 4.35814e-11)
(483.528 6.36513 -2.44273e-11)
(483.453 6.64724 3.34399e-11)
(483.298 7.65198 9.76267e-11)
(483.218 7.62074 1.06091e-11)
(483.029 8.95017 -6.76375e-11)
(482.945 8.54469 -2.53232e-11)
(482.726 10.2383 -2.29794e-11)
(482.629 9.44423 -5.42307e-11)
(482.395 11.4708 6.55406e-11)
(482.261 10.3879 9.53609e-11)
(482.052 12.5105 -1.87597e-11)
(481.816 11.5559 -2.94379e-11)
(481.714 13.2598 3.97116e-11)
(481.294 12.8721 2.00256e-11)
(482.969 0.372597 -1.51967e-09)
(482.961 1.03887 4.65027e-10)
(482.942 1.4893 -7.09951e-12)
(482.914 2.27603 1.32611e-11)
(482.873 2.71652 1.8172e-12)
(482.83 3.49098 -3.94527e-11)
(482.766 3.97082 -8.52637e-11)
(482.711 4.66616 -2.59719e-11)
(482.621 5.24892 3.87011e-11)
(482.556 5.7909 2.32439e-11)
(482.437 6.55071 -5.14734e-11)
(482.366 6.85793 3.01732e-12)
(482.215 7.87363 6.03181e-11)
(482.141 7.86567 2.08157e-11)
(481.957 9.20885 -7.38215e-12)
(481.878 8.82192 2.3885e-11)
(481.665 10.5361 -3.41859e-11)
(481.575 9.75036 -7.40719e-11)
(481.345 11.8128 3.81716e-11)
(481.222 10.7124 6.7423e-11)
(481.013 12.9135 -2.46828e-12)
(480.793 11.8874 -1.99907e-11)
(480.688 13.7173 4.51856e-11)
(480.288 13.2179 2.01286e-11)
(481.804 0.383687 -1.52053e-09)
(481.796 1.06632 4.36747e-10)
(481.778 1.53127 -6.66526e-11)
(481.751 2.33797 2.50649e-11)
(481.712 2.79161 2.90606e-11)
(481.671 3.58783 -4.5531e-11)
(481.61 4.07928 -6.96934e-11)
(481.557 4.79796 -4.83729e-11)
(481.471 5.39101 -2.17782e-11)
(481.409 5.95742 4.02122e-11)
(481.295 6.72679 -1.23741e-11)
(481.228 7.05853 3.51771e-12)
(481.082 8.08425 8.36386e-11)
(481.013 8.09914 1.06366e-11)
(480.833 9.45498 -5.88968e-11)
(480.761 9.08637 -6.63874e-12)
(480.553 10.8197 -4.57e-11)
(480.471 10.0426 -6.4719e-11)
(480.246 12.1385 6.71534e-11)
(480.133 11.0235 6.30339e-11)
(479.925 13.2985 -4.20997e-11)
(479.721 12.2027 -3.9966e-11)
(479.614 14.1561 -1.45703e-11)
(479.234 13.5464 -1.49848e-11)
(480.587 0.394145 -1.58407e-09)
(480.58 1.09223 4.13883e-10)
(480.562 1.5708 -6.7385e-11)
(480.537 2.39645 -4.55812e-12)
(480.5 2.86231 2.97452e-11)
(480.46 3.67929 -2.26595e-11)
(480.402 4.18141 -8.17136e-11)
(480.352 4.92252 -3.13476e-11)
(480.269 5.5249 2.395e-11)
(480.211 6.11497 5.20592e-11)
(480.101 6.89296 2.23487e-11)
(480.039 7.24859 9.54864e-12)
(479.897 8.2834 5.54852e-11)
(479.834 8.32071 5.30956e-12)
(479.66 9.68813 -3.60313e-11)
(479.594 9.33766 -1.18987e-11)
(479.391 11.0887 -2.85075e-11)
(479.317 10.3206 -2.92236e-11)
(479.096 12.4475 7.93451e-11)
(478.994 11.3206 9.39232e-11)
(478.787 13.6647 -4.22559e-11)
(478.601 12.5014 -6.55878e-11)
(478.491 14.5759 -1.42833e-11)
(478.131 13.8576 7.18109e-13)
(479.319 0.403958 -1.54934e-09)
(479.311 1.11658 4.68882e-10)
(479.295 1.60784 -1.12511e-11)
(479.27 2.45142 7.88336e-12)
(479.235 2.92853 -4.02132e-12)
(479.198 3.76528 -5.29587e-11)
(479.142 4.27708 -9.97886e-11)
(479.095 5.03966 -3.76276e-11)
(479.015 5.65038 2.41667e-11)
(478.961 6.26325 6.42737e-11)
(478.855 7.04888 -1.27195e-11)
(478.798 7.42773 -1.27307e-11)
(478.661 8.47065 4.43611e-11)
(478.604 8.52991 -7.6593e-14)
(478.435 9.90788 -3.05031e-11)
(478.376 9.57533 4.25996e-12)
(478.178 11.3427 1.12809e-12)
(478.113 10.5838 7.41795e-12)
(477.897 12.7396 6.80301e-11)
(477.805 11.6027 4.23194e-11)
(477.601 14.0108 -3.02922e-11)
(477.431 12.7838 -4.48789e-11)
(477.318 14.9777 2.08452e-11)
(476.978 14.1518 4.86778e-11)
(477.998 0.413115 -1.54263e-09)
(477.991 1.13933 4.3868e-10)
(477.975 1.64234 -8.72574e-11)
(477.951 2.50282 1.53425e-12)
(477.918 2.99022 6.67769e-11)
(477.883 3.84571 -1.62164e-11)
(477.83 4.36618 -1.12569e-10)
(477.785 5.14927 -3.78817e-11)
(477.71 5.76728 -1.14209e-11)
(477.66 6.40207 -1.23529e-11)
(477.558 7.19426 -1.25994e-11)
(477.506 7.59561 5.76015e-11)
(477.374 8.64557 6.9764e-11)
(477.322 8.72629 -1.13413e-11)
(477.159 10.1137 -2.47499e-11)
(477.107 9.79892 2.6579e-11)
(476.915 11.5814 -2.37823e-11)
(476.858 10.8319 -5.84399e-11)
(476.647 13.0145 8.12408e-11)
(476.566 11.8692 6.95796e-11)
(476.365 14.336 -4.89928e-11)
(476.212 13.0498 -5.04839e-11)
(476.096 15.3601 3.2918e-11)
(475.777 14.4276 2.17222e-11)
(476.625 0.421597 -1.60878e-09)
(476.618 1.16046 4.14005e-10)
(476.603 1.67426 -7.58418e-11)
(476.581 2.55058 -1.13205e-11)
(476.549 3.04728 1.9463e-11)
(476.516 3.92049 -4.16498e-11)
(476.465 4.44863 -1.01502e-10)
(476.424 5.25124 -5.05851e-11)
(476.352 5.87548 1.16872e-12)
(476.306 6.53128 2.45645e-11)
(476.209 7.32892 -6.31404e-12)
(476.161 7.75199 4.03514e-11)
(476.035 8.80784 8.33497e-11)
(475.989 8.90948 2.37982e-11)
(475.832 10.3052 -1.86741e-11)
(475.787 10.0079 3.81468e-12)
(475.601 11.8042 -1.75119e-11)
(475.552 11.0645 -2.53128e-11)
(475.347 13.2718 8.83787e-11)
(475.276 12.1195 1.03213e-10)
(475.078 14.6396 2.05328e-11)
(474.942 13.2988 -7.27383e-11)
(474.824 15.7221 -2.89192e-11)
(474.527 14.6844 -6.01133e-12)
(475.199 0.42939 -1.54057e-09)
(475.193 1.17991 4.79944e-10)
(475.179 1.70354 -3.43808e-11)
(475.158 2.59462 2.84475e-11)
(475.128 3.09963 5.06434e-11)
(475.097 3.98953 -1.61352e-11)
(475.049 4.52432 -8.38028e-11)
(475.011 5.34548 -3.81472e-11)
(474.943 5.97489 7.82074e-12)
(474.9 6.65081 2.51101e-11)
(474.808 7.45275 -1.25331e-11)
(474.765 7.89674 2.25863e-11)
(474.644 8.95725 5.87888e-11)
(474.604 9.07917 -1.12871e-14)
(474.453 10.4819 -5.76005e-11)
(474.416 10.2018 -4.30702e-11)
(474.235 12.0105 -6.98991e-11)
(474.195 11.2808 -1.4252e-11)
(473.995 13.5112 8.94609e-11)
(473.935 12.3534 9.28194e-11)
(473.741 14.9213 7.99045e-12)
(473.622 13.5303 -3.39166e-11)
(473.502 16.063 9.16777e-12)
(473.227 14.9217 2.25068e-11)
(473.722 0.436477 -1.5644e-09)
(473.715 1.19767 4.54398e-10)
(473.702 1.73012 -7.22348e-11)
(473.682 2.63487 2.82295e-11)
(473.654 3.14719 3.8837e-11)
(473.625 4.05274 -4.29439e-11)
(473.581 4.59316 -7.20628e-11)
(473.545 5.43192 -4.47612e-11)
(473.481 6.06544 -1.11334e-11)
(473.443 6.76059 5.12402e-11)
(473.354 7.56569 -5.95968e-12)
(473.317 8.0298 1.68712e-11)
(473.201 9.09369 9.86391e-11)
(473.167 9.23525 1.85661e-11)
(473.022 10.6436 -5.1625e-11)
(472.992 10.3803 4.68662e-12)
(472.818 12.2 -3.73751e-11)
(472.786 11.4804 -6.1497e-11)
(472.593 13.7321 9.02699e-11)
(472.544 12.5701 8.19227e-11)
(472.354 15.1813 -3.17082e-11)
(472.25 13.7446 -2.25783e-11)
(472.129 16.3816 9.67817e-12)
(471.876 15.139 -2.32987e-13)
(472.192 0.442851 -1.62219e-09)
(472.186 1.2137 4.56824e-10)
(472.173 1.75397 -3.51093e-11)
(472.155 2.67128 -1.25318e-11)
(472.128 3.1899 4.57209e-11)
(472.102 4.11004 3.90135e-12)
(472.06 4.65507 -1.11583e-10)
(472.028 5.51044 -3.84392e-11)
(471.967 6.14703 3.46892e-11)
(471.933 6.86055 1.29612e-11)
(471.849 7.66767 6.2931e-13)
(471.817 8.15115 6.83421e-11)
(471.706 9.21713 6.65898e-11)
(471.678 9.37767 2.49684e-11)
(471.538 10.7902 1.53509e-12)
(471.516 10.5432 -2.58395e-11)
(471.348 12.3722 -3.11553e-11)
(471.326 11.6626 -1.4182e-11)
(471.139 13.9338 5.71628e-11)
(471.101 12.7686 8.84235e-11)
(470.916 15.4197 2.22336e-11)
(470.827 13.9421 -5.19439e-11)
(470.704 16.6772 1.6511e-11)
(470.474 15.3356 4.69653e-11)
(470.609 0.448508 -1.59203e-09)
(470.603 1.22801 4.96817e-10)
(470.592 1.7751 -3.64947e-12)
(470.574 2.70385 2.25519e-11)
(470.55 3.22773 7.67316e-12)
(470.526 4.16138 -3.7471e-11)
(470.487 4.71 -7.98305e-11)
(470.458 5.581 -1.18319e-11)
(470.4 6.21959 6.16036e-11)
(470.37 6.9506 4.66721e-11)
(470.291 7.75861 -3.94734e-11)
(470.264 8.26074 2.38496e-11)
(470.158 9.32753 9.44851e-11)
(470.137 9.50648 5.06305e-11)
(470.003 10.9216 2.17061e-11)
(469.988 10.6906 -7.37957e-12)
(469.826 12.5271 -7.99239e-11)
(469.813 11.8273 -5.7306e-11)
(469.632 14.1159 7.16741e-11)
(469.605 12.9483 1.01257e-10)
(469.426 15.6362 4.29802e-11)
(469.352 14.1228 -4.06997e-11)
(469.228 16.949 -3.79214e-11)
(469.022 15.5111 -5.89119e-13)
(468.974 0.453458 -1.65847e-09)
(468.969 1.24062 4.24778e-10)
(468.958 1.79352 -8.86517e-11)
(468.942 2.73259 -2.6671e-11)
(468.92 3.26071 8.07488e-12)
(468.897 4.20679 -5.87286e-11)
(468.861 4.75792 -1.27271e-10)
(468.835 5.64354 -8.03621e-11)
(468.782 6.28303 -2.52148e-11)
(468.756 7.03066 1.82116e-13)
(468.681 7.83842 -3.94596e-11)
(468.659 8.35848 4.65817e-12)
(468.559 9.42482 4.76926e-11)
(468.543 9.62163 -1.38439e-11)
(468.415 11.038 -6.82797e-11)
(468.408 10.8223 -4.55178e-11)
(468.252 12.6647 -7.35519e-11)
(468.248 11.9745 -7.64172e-11)
(468.073 14.2782 3.05489e-11)
(468.057 13.1087 4.72425e-11)
(467.884 15.8301 -4.78429e-11)
(467.825 14.2863 -7.7332e-11)
(467.701 17.1967 -3.09455e-11)
(467.517 15.6652 -1.24438e-11)
(467.287 0.457709 -1.60082e-09)
(467.282 1.25154 4.66337e-10)
(467.272 1.80927 -7.6604e-11)
(467.257 2.75755 3.77745e-11)
(467.236 3.28888 4.85723e-11)
(467.216 4.2463 -3.81183e-11)
(467.183 4.79887 -6.08981e-11)
(467.16 5.69808 -3.21181e-11)
(467.11 6.33737 2.23729e-12)
(467.088 7.10069 7.56684e-11)
(467.018 7.90701 1.57266e-11)
(467.001 8.44427 3.20174e-11)
(466.906 9.50888 1.24923e-10)
(466.897 9.72307 3.8723e-11)
(466.775 11.1391 -3.36697e-11)
(466.775 10.9387 -3.27729e-11)
(466.625 12.785 -8.12116e-11)
(466.63 12.1042 -3.91624e-11)
(466.462 14.4209 5.28605e-11)
(466.457 13.2496 4.79716e-11)
(466.289 16.0011 1.8208e-12)
(466.245 14.4314 -5.33349e-11)
(466.122 17.4191 -3.0875e-11)
(465.961 15.7977 3.09197e-11)
(465.547 0.461276 -1.60147e-09)
(465.542 1.26081 4.77235e-10)
(465.533 1.8224 -7.10636e-11)
(465.519 2.77879 4.52591e-11)
(465.5 3.31232 5.59041e-11)
(465.482 4.27999 -3.15812e-11)
(465.452 4.83294 -5.4919e-11)
(465.432 5.7447 -2.52124e-11)
(465.386 6.38262 9.25497e-12)
(465.368 7.16069 1.43273e-11)
(465.302 7.96435 -4.66824e-11)
(465.291 8.51803 4.62352e-11)
(465.201 9.57958 6.99249e-11)
(465.198 9.81063 -1.42274e-11)
(465.082 11.2249 -2.00473e-11)
(465.09 11.0394 -1.99529e-11)
(464.946 12.8881 -6.7867e-11)
(464.96 12.2167 -2.67494e-11)
(464.797 14.5442 6.84004e-11)
(464.804 13.3712 6.1207e-11)
(464.642 16.1496 1.58994e-11)
(464.611 14.5567 -4.16596e-11)
(464.491 17.6146 -9.694e-12)
(464.354 15.9087 5.00687e-11)
(463.755 0.464167 -1.62779e-09)
(463.75 1.26845 5.272e-10)
(463.742 1.83296 -4.48311e-11)
(463.729 2.79636 -1.34017e-11)
(463.712 3.33111 5.63287e-11)
(463.696 4.30795 2.57197e-11)
(463.668 4.86022 -8.32842e-11)
(463.651 5.78348 -7.49952e-11)
(463.609 6.4189 1.6465e-11)
(463.595 7.21074 7.77877e-11)
(463.534 8.01046 2.6336e-12)
(463.527 8.57975 1.25469e-11)
(463.443 9.63683 9.2173e-11)
(463.446 9.88419 5.99603e-11)
(463.336 11.2951 -3.44908e-11)
(463.351 11.1245 -4.65035e-11)
(463.214 12.9737 -3.97165e-11)
(463.237 12.3119 -1.41341e-11)
(463.08 14.6483 6.96862e-11)
(463.098 13.4739 4.92737e-11)
(462.941 16.2765 -1.35013e-11)
(462.925 14.6612 -2.32857e-11)
(462.808 17.7817 -2.24284e-12)
(462.693 15.9981 -1.85141e-11)
(461.909 0.466391 -1.66313e-09)
(461.905 1.27447 4.5979e-10)
(461.897 1.84097 -7.92299e-11)
(461.886 2.81031 -2.8481e-11)
(461.87 3.34529 -5.01578e-12)
(461.856 4.33024 -8.37268e-11)
(461.831 4.88079 -9.13393e-11)
(461.817 5.81452 1.79282e-11)
(461.778 6.44628 6.60934e-11)
(461.768 7.25094 8.56374e-11)
(461.712 8.04543 3.12463e-11)
(461.71 8.62949 6.16746e-11)
(461.631 9.68064 1.00457e-10)
(461.641 9.94368 2.62931e-11)
(461.536 11.3496 -4.19941e-11)
(461.56 11.1935 -3.33506e-11)
(461.429 13.0416 -6.95107e-11)
(461.461 12.3896 -8.00051e-11)
(461.311 14.7327 1.91928e-11)
(461.339 13.5577 3.06089e-11)
(461.188 16.3818 -6.67937e-12)
(461.185 14.7459 8.27737e-12)
(461.072 17.9205 5.70422e-11)
(460.979 16.065 5.7706e-11)
(460.011 0.467947 -1.69895e-09)
(460.007 1.27889 4.70841e-10)
(460 1.84645 -4.59949e-11)
(459.989 2.82065 -3.59446e-11)
(459.976 3.3549 1.5849e-11)
(459.964 4.3469 -3.26557e-11)
(459.941 4.89469 -8.54453e-11)
(459.93 5.83788 -1.80633e-11)
(459.895 6.46486 -1.83162e-11)
(459.889 7.28139 2.93727e-11)
(459.837 8.06937 1.00993e-11)
(459.84 8.66736 -5.95707e-13)
(459.767 9.71107 6.52729e-11)
(459.783 9.98918 1.96474e-11)
(459.684 11.3884 -2.05976e-11)
(459.715 11.2465 1.36633e-11)
(459.59 13.0914 -6.26726e-11)
(459.632 12.4493 -4.75373e-11)
(459.488 14.7972 8.68195e-11)
(459.528 13.6223 4.40289e-11)
(459.383 16.4654 -3.72017e-11)
(459.393 14.8108 -4.96672e-11)
(459.283 18.0317 1.98918e-11)
(459.212 16.1101 4.51397e-11)
(458.059 0.468834 -1.63727e-09)
(458.055 1.2817 4.98011e-10)
(458.049 1.84938 -6.74422e-11)
(458.04 2.82737 -2.10366e-11)
(458.028 3.35993 2.35216e-12)