/*--------------------------------*- C++ -*----------------------------------*\
  =========                 |
  \\      /  F ield         | OpenFOAM: The Open Source CFD Toolbox
   \\    /   O peration     | Website:  https://openfoam.org
    \\  /    A nd           | Version:  10
     \\/     M anipulation  |
\*---------------------------------------------------------------------------*/
FoamFile
{
    format      ascii;
    class       volScalarField;
    location    "0.08";
    object      Ma;
}
// * * * * * * * * * * * * * * * * * * * * * * * * * * * * * * * * * * * * * //

dimensions      [0 0 0 0 0 0 0];

internalField   nonuniform List<scalar> 
4176
(
1.76846
1.7686
1.76846
1.76824
1.76789
1.76752
1.76697
1.76646
1.76571
1.76508
1.76413
1.76337
1.76225
1.76135
1.7601
1.75898
1.7577
1.75625
1.75509
1.75313
1.75229
1.74958
1.74947
1.74608
1.7699
1.77003
1.76989
1.76966
1.7693
1.76892
1.76835
1.76783
1.76705
1.76641
1.76543
1.76465
1.76349
1.76256
1.76128
1.76012
1.75883
1.7573
1.75616
1.75408
1.75329
1.75041
1.75026
1.74642
1.77318
1.77331
1.77317
1.77295
1.77259
1.77222
1.77166
1.77116
1.77038
1.76976
1.76878
1.76804
1.76687
1.76598
1.76469
1.76357
1.76229
1.76078
1.75969
1.7576
1.75689
1.75403
1.75387
1.74998
1.77594
1.77606
1.77591
1.77569
1.77533
1.77496
1.7744
1.7739
1.77312
1.77251
1.77151
1.77078
1.76959
1.76872
1.7674
1.76629
1.76502
1.76345
1.7624
1.76029
1.75959
1.75676
1.75664
1.75284
1.77795
1.77807
1.77792
1.7777
1.77735
1.77698
1.77642
1.77592
1.77514
1.77453
1.77354
1.77282
1.77163
1.77077
1.76944
1.76835
1.76706
1.76551
1.76446
1.76237
1.76163
1.75885
1.75871
1.75507
1.77982
1.77992
1.77978
1.77956
1.77921
1.77884
1.77829
1.77779
1.77704
1.77641
1.77545
1.77471
1.77355
1.77268
1.77136
1.77029
1.76895
1.76747
1.76639
1.7643
1.76358
1.76079
1.76065
1.75696
1.7809
1.78101
1.78087
1.78065
1.78031
1.77993
1.7794
1.77888
1.77815
1.77752
1.77657
1.77583
1.77468
1.77381
1.77251
1.77146
1.77009
1.76868
1.76752
1.76552
1.76474
1.76202
1.76182
1.75816
1.7817
1.7818
1.78166
1.78144
1.78111
1.78073
1.78021
1.7797
1.77897
1.77835
1.77742
1.77668
1.77555
1.77469
1.77339
1.77236
1.77099
1.76963
1.76846
1.76647
1.76571
1.76299
1.7628
1.75917
1.78188
1.78197
1.78183
1.78161
1.78128
1.78091
1.78039
1.77989
1.77918
1.77856
1.77764
1.77691
1.7758
1.77495
1.77366
1.77266
1.77128
1.76998
1.76875
1.76686
1.76605
1.76341
1.76318
1.7596
1.78169
1.78178
1.78165
1.78143
1.7811
1.78074
1.78022
1.77972
1.77902
1.7784
1.77749
1.77677
1.77566
1.77482
1.77355
1.77256
1.77118
1.76991
1.76867
1.76682
1.766
1.76338
1.76314
1.75961
1.78104
1.78112
1.78098
1.78077
1.78045
1.78009
1.77958
1.77909
1.7784
1.77779
1.77691
1.77619
1.77511
1.77429
1.77303
1.77207
1.77071
1.76949
1.76822
1.76646
1.7656
1.76305
1.76279
1.75931
1.77993
1.78002
1.77988
1.77967
1.77935
1.779
1.7785
1.77801
1.77733
1.77673
1.77585
1.77515
1.77407
1.77327
1.77202
1.77107
1.76972
1.76853
1.76726
1.76556
1.76468
1.76219
1.76192
1.75851
1.77848
1.77855
1.77842
1.77821
1.7779
1.77755
1.77706
1.77659
1.77592
1.77533
1.77447
1.77379
1.77273
1.77195
1.77072
1.7698
1.76846
1.76731
1.76604
1.76439
1.7635
1.76108
1.76079
1.75743
1.77652
1.77659
1.77647
1.77626
1.77595
1.77561
1.77513
1.77466
1.774
1.77343
1.77258
1.77191
1.77087
1.7701
1.76889
1.768
1.76668
1.76557
1.76429
1.76272
1.76181
1.75948
1.75919
1.75591
1.7743
1.77437
1.77424
1.77404
1.77374
1.7734
1.77293
1.77248
1.77183
1.77127
1.77044
1.76978
1.76877
1.76802
1.76683
1.76596
1.76465
1.76358
1.76231
1.76078
1.75987
1.75759
1.7573
1.75407
1.77156
1.77163
1.7715
1.77131
1.77101
1.77068
1.77022
1.76978
1.76914
1.7686
1.76778
1.76715
1.76615
1.76543
1.76426
1.76342
1.76215
1.76112
1.75985
1.75841
1.75748
1.7553
1.755
1.75188
1.76859
1.76865
1.76853
1.76834
1.76805
1.76773
1.76728
1.76685
1.76623
1.7657
1.7649
1.76428
1.7633
1.76259
1.76145
1.76063
1.75937
1.75837
1.75712
1.75572
1.7548
1.75267
1.75237
1.7493
1.76513
1.76519
1.76507
1.76488
1.7646
1.76429
1.76385
1.76343
1.76283
1.76232
1.76154
1.76095
1.76
1.75932
1.75821
1.75742
1.75619
1.75524
1.75401
1.75269
1.75176
1.74973
1.74943
1.74646
1.76141
1.76147
1.76136
1.76117
1.7609
1.7606
1.76017
1.75976
1.75917
1.75868
1.75792
1.75734
1.75641
1.75575
1.75466
1.7539
1.75269
1.75177
1.75056
1.74929
1.74836
1.74639
1.74609
1.7432
1.75727
1.75732
1.75721
1.75704
1.75677
1.75648
1.75607
1.75568
1.75511
1.75464
1.7539
1.75335
1.75245
1.75183
1.75077
1.75005
1.74888
1.748
1.74681
1.74562
1.74469
1.74282
1.74251
1.73971
1.75283
1.75288
1.75277
1.7526
1.75235
1.75206
1.75166
1.75129
1.75073
1.75028
1.74956
1.74903
1.74815
1.74755
1.74651
1.74583
1.74468
1.74384
1.74268
1.74154
1.74062
1.73882
1.73851
1.7358
1.74804
1.74809
1.74798
1.74782
1.74757
1.74731
1.74692
1.74656
1.74603
1.7456
1.74491
1.74441
1.74356
1.743
1.742
1.74135
1.74023
1.73944
1.73831
1.73723
1.73632
1.73461
1.7343
1.73167
1.74289
1.74294
1.74284
1.74268
1.74244
1.74219
1.74181
1.74147
1.74096
1.74055
1.73988
1.7394
1.73858
1.73804
1.73707
1.73646
1.73538
1.73463
1.73353
1.73251
1.73162
1.73
1.72969
1.72717
1.73747
1.73751
1.73742
1.73727
1.73704
1.7368
1.73645
1.73612
1.73563
1.73524
1.7346
1.73416
1.73336
1.73286
1.73192
1.73135
1.7303
1.7296
1.72853
1.72756
1.72669
1.72514
1.72484
1.7224
1.73165
1.7317
1.73161
1.73146
1.73125
1.73102
1.73068
1.73038
1.7299
1.72954
1.72892
1.72851
1.72774
1.72728
1.72637
1.72584
1.72483
1.72418
1.72315
1.72226
1.7214
1.71995
1.71966
1.71733
1.7256
1.72565
1.72556
1.72543
1.72522
1.72501
1.72468
1.7244
1.72395
1.72361
1.72302
1.72263
1.72189
1.72146
1.72059
1.7201
1.71912
1.71851
1.71752
1.71667
1.71584
1.71446
1.71418
1.71195
1.71916
1.71921
1.71913
1.719
1.71881
1.7186
1.7183
1.71804
1.71761
1.71729
1.71673
1.71638
1.71568
1.71529
1.71445
1.714
1.71307
1.71252
1.71156
1.71079
1.70998
1.7087
1.70844
1.70631
1.71249
1.71254
1.71246
1.71234
1.71216
1.71197
1.71168
1.71144
1.71103
1.71074
1.7102
1.70988
1.7092
1.70885
1.70804
1.70764
1.70674
1.70622
1.70531
1.70458
1.70381
1.70261
1.70235
1.70031
1.70547
1.70552
1.70544
1.70533
1.70516
1.70499
1.70472
1.70449
1.70411
1.70385
1.70334
1.70306
1.70242
1.7021
1.70134
1.70098
1.70013
1.69967
1.6988
1.69814
1.6974
1.69629
1.69605
1.69412
1.69819
1.69823
1.69817
1.69806
1.6979
1.69774
1.69748
1.69728
1.69692
1.69668
1.6962
1.69594
1.69533
1.69506
1.69433
1.69401
1.69319
1.69278
1.69195
1.69134
1.69064
1.68962
1.68938
1.68756
1.69062
1.69066
1.6906
1.6905
1.69036
1.69021
1.68997
1.68979
1.68945
1.68925
1.68879
1.68857
1.688
1.68776
1.68707
1.6868
1.68603
1.68567
1.68488
1.68433
1.68367
1.68273
1.68252
1.68079
1.68275
1.68279
1.68273
1.68264
1.68251
1.68237
1.68215
1.68199
1.68167
1.68149
1.68106
1.68087
1.68032
1.68013
1.67947
1.67925
1.67851
1.67821
1.67746
1.67698
1.67635
1.6755
1.6753
1.6737
1.67464
1.67468
1.67463
1.67455
1.67442
1.67431
1.6741
1.67396
1.67366
1.67351
1.67311
1.67296
1.67244
1.67229
1.67167
1.67149
1.67079
1.67054
1.66984
1.66941
1.66883
1.66804
1.66787
1.66636
1.66621
1.66625
1.6662
1.66613
1.66601
1.66591
1.66572
1.6656
1.66532
1.6652
1.66482
1.6647
1.66422
1.6641
1.66352
1.66339
1.66273
1.66254
1.66188
1.66152
1.66098
1.66028
1.66012
1.65874
1.65758
1.65762
1.65758
1.65751
1.65741
1.65732
1.65715
1.65704
1.65679
1.65669
1.65634
1.65625
1.6558
1.65572
1.65517
1.65508
1.65446
1.65431
1.6537
1.65339
1.6529
1.65227
1.65213
1.65084
1.64863
1.64867
1.64863
1.64857
1.64848
1.6484
1.64824
1.64816
1.64793
1.64786
1.64754
1.64748
1.64706
1.64702
1.64651
1.64646
1.64589
1.6458
1.64522
1.64498
1.64453
1.64399
1.64388
1.64271
1.63948
1.63952
1.63949
1.63944
1.63935
1.63929
1.63915
1.63908
1.63887
1.63882
1.63852
1.6385
1.6381
1.6381
1.63762
1.63762
1.63707
1.63703
1.63649
1.63631
1.6359
1.63542
1.63534
1.63428
1.63004
1.63008
1.63005
1.63001
1.62993
1.62988
1.62976
1.62971
1.62952
1.6295
1.62923
1.62923
1.62887
1.62891
1.62846
1.62851
1.62801
1.62802
1.62752
1.6274
1.62703
1.62662
1.62658
1.62563
1.62039
1.62043
1.6204
1.62037
1.6203
1.62026
1.62015
1.62012
1.61995
1.61995
1.6197
1.61973
1.6194
1.61947
1.61905
1.61914
1.61867
1.61874
1.61828
1.61821
1.61788
1.61754
1.61754
1.61669
1.61049
1.61052
1.6105
1.61047
1.61042
1.61039
1.6103
1.61028
1.61013
1.61015
1.60993
1.61
1.60969
1.6098
1.60942
1.60956
1.60912
1.60924
1.60881
1.60881
1.60852
1.60825
1.60827
1.60752
1.60035
1.60038
1.60037
1.60034
1.6003
1.60028
1.6002
1.6002
1.60007
1.60011
1.59991
1.6
1.59973
1.59987
1.59952
1.5997
1.5993
1.59946
1.59908
1.59914
1.59888
1.59869
1.59874
1.59809
1.59
1.59003
1.59002
1.59
1.58996
1.58996
1.58989
1.58991
1.5898
1.58986
1.58969
1.5898
1.58956
1.58973
1.58941
1.58963
1.58926
1.58948
1.58913
1.58925
1.58903
1.5889
1.58899
1.58841
1.57939
1.57943
1.57942
1.57941
1.57938
1.57938
1.57933
1.57937
1.57927
1.57936
1.5792
1.57935
1.57913
1.57934
1.57905
1.57931
1.57898
1.57925
1.57892
1.57912
1.57892
1.57888
1.579
1.57852
1.5686
1.56863
1.56863
1.56862
1.5686
1.56862
1.56858
1.56863
1.56855
1.56866
1.56853
1.5687
1.5685
1.56874
1.56848
1.56878
1.56847
1.56879
1.5685
1.56875
1.56858
1.56861
1.56875
1.56837
1.55756
1.55759
1.55759
1.55759
1.55758
1.55761
1.55758
1.55765
1.55759
1.55772
1.55761
1.55781
1.55764
1.55792
1.55768
1.55803
1.55775
1.55812
1.55785
1.55817
1.55802
1.55814
1.5583
1.55802
1.54633
1.54636
1.54636
1.54637
1.54637
1.54641
1.54639
1.54648
1.54643
1.54658
1.54649
1.54672
1.54657
1.54688
1.54667
1.54705
1.5468
1.54722
1.54697
1.54735
1.54722
1.54742
1.54758
1.5474
1.53489
1.53492
1.53492
1.53494
1.53494
1.53499
1.53499
1.53509
1.53507
1.53523
1.53517
1.53542
1.5353
1.53564
1.53546
1.53588
1.53565
1.53613
1.53591
1.53635
1.53624
1.53652
1.53668
1.53661
1.52324
1.52327
1.52328
1.52329
1.52331
1.52336
1.52338
1.52349
1.52348
1.52367
1.52362
1.5239
1.5238
1.52417
1.52401
1.52448
1.52428
1.5248
1.5246
1.52511
1.52501
1.52538
1.52553
1.52557
1.51141
1.51143
1.51145
1.51147
1.51149
1.51156
1.51159
1.51171
1.51172
1.51193
1.5119
1.51221
1.51213
1.51253
1.5124
1.51291
1.51272
1.5133
1.51312
1.5137
1.5136
1.51406
1.51421
1.51434
1.49936
1.49939
1.4994
1.49943
1.49946
1.49954
1.49958
1.49972
1.49975
1.49997
1.49996
1.50029
1.50024
1.50067
1.50056
1.50111
1.50095
1.50158
1.50141
1.50206
1.50196
1.50252
1.50266
1.5029
1.48716
1.48719
1.48721
1.48724
1.48728
1.48736
1.48741
1.48757
1.48761
1.48785
1.48786
1.48822
1.48818
1.48865
1.48856
1.48914
1.489
1.48968
1.48952
1.49025
1.49014
1.49079
1.49093
1.49125
1.47475
1.47478
1.4748
1.47484
1.47489
1.47498
1.47504
1.47521
1.47527
1.47553
1.47556
1.47593
1.47592
1.47642
1.47634
1.47698
1.47684
1.47759
1.47742
1.47824
1.47812
1.47886
1.479
1.47941
1.4622
1.46222
1.46225
1.46229
1.46235
1.46245
1.46252
1.4627
1.46277
1.46305
1.46309
1.4635
1.46349
1.46403
1.46396
1.46464
1.46451
1.46533
1.46515
1.46604
1.46593
1.46673
1.46688
1.46738
1.44946
1.44949
1.44952
1.44956
1.44962
1.44973
1.44982
1.45001
1.45009
1.45039
1.45045
1.45088
1.45088
1.45146
1.4514
1.45214
1.45199
1.45288
1.4527
1.45366
1.45356
1.45442
1.45459
1.45516
1.43658
1.43661
1.43664
1.43669
1.43676
1.43687
1.43697
1.43717
1.43726
1.43758
1.43765
1.43811
1.43811
1.43873
1.43866
1.43946
1.43931
1.44026
1.44008
1.44108
1.44101
1.44192
1.4421
1.44275
1.42355
1.42357
1.42361
1.42366
1.42373
1.42386
1.42396
1.42418
1.42428
1.42462
1.42468
1.42518
1.42518
1.42585
1.42577
1.42662
1.42647
1.42746
1.42731
1.42835
1.42829
1.42926
1.42945
1.43017
1.41038
1.4104
1.41044
1.41049
1.41057
1.4107
1.41081
1.41104
1.41114
1.41151
1.41156
1.4121
1.41209
1.41281
1.41273
1.41361
1.41348
1.4145
1.41437
1.41544
1.4154
1.41642
1.41662
1.41741
1.39707
1.39709
1.39714
1.39718
1.39728
1.3974
1.39753
1.39776
1.39787
1.39826
1.39831
1.39888
1.39887
1.39961
1.39955
1.40045
1.40034
1.40138
1.40127
1.40238
1.40236
1.40342
1.40363
1.40448
1.38364
1.38366
1.38371
1.38375
1.38386
1.38398
1.38412
1.38435
1.38447
1.38487
1.38494
1.38551
1.38552
1.38627
1.38623
1.38714
1.38706
1.38811
1.38803
1.38917
1.38916
1.39027
1.39049
1.3914
1.37009
1.37011
1.37016
1.37021
1.37031
1.37044
1.37058
1.37081
1.37095
1.37135
1.37143
1.37201
1.37204
1.37279
1.37277
1.37369
1.37363
1.3747
1.37464
1.3758
1.37581
1.37695
1.37718
1.37815
1.35644
1.35645
1.3565
1.35655
1.35665
1.35679
1.35694
1.35716
1.35733
1.3577
1.35782
1.35839
1.35843
1.3592
1.35919
1.36013
1.36008
1.36117
1.36112
1.3623
1.36233
1.36351
1.36374
1.36476
1.34267
1.34268
1.34272
1.34278
1.34288
1.34302
1.34317
1.3434
1.34358
1.34394
1.34408
1.34464
1.34471
1.34547
1.34548
1.34642
1.34639
1.34749
1.34746
1.34866
1.3487
1.34991
1.35015
1.35122
1.3288
1.32881
1.32886
1.32892
1.32902
1.32916
1.32931
1.32954
1.32973
1.33008
1.33025
1.33079
1.33089
1.33164
1.33167
1.33261
1.3326
1.33371
1.33369
1.33491
1.33496
1.3362
1.33644
1.33756
1.31483
1.31484
1.31488
1.31494
1.31505
1.31518
1.31534
1.31557
1.31577
1.31611
1.3163
1.31682
1.31695
1.31769
1.31774
1.31868
1.31869
1.3198
1.3198
1.32103
1.3211
1.32236
1.32261
1.32376
1.30078
1.30078
1.30083
1.30088
1.30099
1.30113
1.30129
1.30151
1.30172
1.30206
1.30226
1.30277
1.30292
1.30365
1.30372
1.30466
1.30468
1.3058
1.30581
1.30705
1.30713
1.30841
1.30866
1.30985
1.28661
1.28662
1.28666
1.28672
1.28683
1.28696
1.28713
1.28735
1.28756
1.2879
1.28811
1.28862
1.28878
1.2895
1.28959
1.29053
1.29056
1.29169
1.29171
1.29297
1.29305
1.29435
1.29461
1.29583
1.27237
1.27237
1.27242
1.27247
1.27258
1.27272
1.27288
1.27311
1.27332
1.27366
1.27388
1.27439
1.27456
1.27528
1.27538
1.27633
1.27637
1.2775
1.27753
1.27879
1.27889
1.2802
1.28046
1.28171
1.25803
1.25803
1.25807
1.25813
1.25824
1.25838
1.25855
1.25877
1.25899
1.25933
1.25957
1.26006
1.26026
1.26097
1.26109
1.26203
1.26208
1.26322
1.26326
1.26453
1.26464
1.26596
1.26622
1.2675
1.2436
1.2436
1.24364
1.2437
1.24381
1.24395
1.24413
1.24436
1.24458
1.24492
1.24517
1.24566
1.24588
1.24659
1.24672
1.24766
1.24772
1.24887
1.24892
1.2502
1.25031
1.25164
1.2519
1.2532
1.22908
1.22908
1.22913
1.22919
1.2293
1.22945
1.22963
1.22986
1.2301
1.23044
1.23071
1.23119
1.23143
1.23213
1.23228
1.23322
1.2333
1.23445
1.23451
1.23579
1.2359
1.23725
1.23751
1.23882
1.21449
1.21449
1.21454
1.2146
1.21472
1.21487
1.21506
1.2153
1.21555
1.21589
1.21618
1.21666
1.21692
1.21761
1.21779
1.21872
1.21881
1.21996
1.22003
1.22131
1.22144
1.22278
1.22305
1.22437
1.19984
1.19984
1.19989
1.19996
1.20008
1.20024
1.20043
1.20068
1.20093
1.20129
1.20158
1.20206
1.20235
1.20302
1.20323
1.20415
1.20426
1.2054
1.20548
1.20676
1.20689
1.20824
1.20851
1.20984
1.18517
1.18516
1.18521
1.18528
1.18541
1.18557
1.18577
1.18602
1.18628
1.18664
1.18694
1.18742
1.18773
1.18839
1.18863
1.18952
1.18967
1.19079
1.19088
1.19216
1.19229
1.19364
1.1939
1.19524
1.17049
1.17048
1.17053
1.1706
1.17073
1.17089
1.17108
1.17134
1.1716
1.17195
1.17226
1.17273
1.17305
1.17369
1.17396
1.17482
1.175
1.1761
1.17621
1.17747
1.17761
1.17895
1.17921
1.18055
1.15585
1.15585
1.15589
1.15596
1.15607
1.15623
1.15641
1.15666
1.15691
1.15725
1.15756
1.15802
1.15834
1.15896
1.15925
1.16007
1.16028
1.16134
1.16147
1.16272
1.16286
1.1642
1.16444
1.16578
1.14127
1.14126
1.14129
1.14135
1.14145
1.14159
1.14176
1.14199
1.14222
1.14255
1.14283
1.14327
1.14358
1.14417
1.14446
1.14525
1.14548
1.1465
1.14665
1.14788
1.14801
1.14935
1.14958
1.15092
1.12675
1.12673
1.12676
1.1268
1.12689
1.12701
1.12715
1.12736
1.12756
1.12785
1.12811
1.12851
1.1288
1.12935
1.12963
1.13038
1.13061
1.13158
1.13174
1.13294
1.13308
1.1344
1.13463
1.13596
1.11225
1.11223
1.11224
1.11228
1.11234
1.11244
1.11256
1.11273
1.1129
1.11316
1.11338
1.11374
1.11399
1.1145
1.11474
1.11544
1.11565
1.11657
1.11673
1.11789
1.11802
1.11935
1.11956
1.1209
1.09772
1.09769
1.0977
1.09772
1.09777
1.09785
1.09795
1.09808
1.09823
1.09845
1.09863
1.09895
1.09916
1.09962
1.09982
1.10048
1.10064
1.10152
1.10164
1.10277
1.10285
1.10417
1.10436
1.10572
1.08305
1.08301
1.08303
1.08302
1.08308
1.08313
1.08323
1.08333
1.08347
1.08365
1.08382
1.0841
1.08428
1.08471
1.08485
1.08549
1.08556
1.08646
1.08646
1.08759
1.08759
1.08889
1.08903
1.09037
1.06811
1.06807
1.06808
1.06808
1.06814
1.06819
1.06829
1.06839
1.06853
1.0687
1.06887
1.06913
1.06931
1.0697
1.06982
1.07047
1.07045
1.07137
1.07127
1.07241
1.07231
1.07358
1.07365
1.07489
1.05275
1.05271
1.05272
1.05274
1.0528
1.05288
1.05298
1.05312
1.05327
1.05348
1.05366
1.05394
1.05414
1.05453
1.05469
1.0553
1.0553
1.0562
1.05608
1.05721
1.05705
1.05832
1.05832
1.05949
1.03685
1.03681
1.03684
1.03687
1.03695
1.03706
1.0372
1.03739
1.03758
1.03784
1.03807
1.0384
1.03866
1.03908
1.03933
1.03992
1.04003
1.0409
1.04082
1.04198
1.0418
1.04311
1.04305
1.04424
1.02031
1.02028
1.02032
1.02037
1.02049
1.02063
1.02082
1.02106
1.02132
1.02164
1.02195
1.02236
1.02271
1.02321
1.02357
1.02422
1.02445
1.02537
1.02537
1.02661
1.02644
1.02785
1.02775
1.02904
1.0031
1.00306
1.00312
1.00319
1.00334
1.00352
1.00377
1.00406
1.0044
1.00478
1.0052
1.00569
1.00617
1.00677
1.00726
1.00803
1.00839
1.00946
1.00957
1.01097
1.01086
1.01244
1.01234
1.0138
0.985219
0.98518
0.985251
0.98534
0.985517
0.985735
0.986022
0.986362
0.986761
0.987219
0.987725
0.9883
0.988898
0.989606
0.990247
0.991134
0.9917
0.992911
0.993215
0.994809
0.994856
0.996674
0.996641
0.998374
0.966736
0.966703
0.966773
0.966883
0.96707
0.96732
0.967631
0.968017
0.968451
0.968976
0.969531
0.970198
0.970866
0.971682
0.972447
0.973429
0.974231
0.97549
0.976133
0.977822
0.978171
0.98027
0.980401
0.982563
0.947743
0.947712
0.947781
0.9479
0.948095
0.948358
0.948685
0.949092
0.949551
0.950107
0.950699
0.951409
0.952131
0.953006
0.953852
0.954908
0.955855
0.95715
0.958106
0.95978
0.960549
0.962794
0.963229
0.96595
0.928367
0.928337
0.928403
0.928523
0.928719
0.928983
0.929313
0.929724
0.930191
0.930753
0.931358
0.932077
0.932821
0.93371
0.934591
0.93567
0.936675
0.937993
0.93908
0.940727
0.941797
0.944
0.944764
0.947928
0.908727
0.908694
0.908756
0.90887
0.909061
0.909317
0.909642
0.910042
0.910503
0.91105
0.911649
0.912352
0.913091
0.91396
0.914838
0.915893
0.916899
0.918191
0.919279
0.920899
0.921981
0.92414
0.924951
0.928112
0.888953
0.888915
0.888972
0.889077
0.889258
0.8895
0.889812
0.890191
0.890636
0.891156
0.891736
0.892404
0.89312
0.893946
0.894797
0.895799
0.896774
0.898001
0.899038
0.900601
0.901574
0.903687
0.90437
0.907271
0.869141
0.869097
0.869149
0.869242
0.869412
0.869634
0.869929
0.870282
0.870704
0.871189
0.871742
0.872364
0.873047
0.873817
0.874629
0.875563
0.876493
0.877634
0.878614
0.880079
0.880974
0.882964
0.883589
0.886274
0.849392
0.849341
0.849387
0.849466
0.849625
0.849824
0.850101
0.850422
0.850821
0.851262
0.851786
0.852354
0.853003
0.853707
0.854476
0.855333
0.856211
0.857257
0.858181
0.859537
0.860364
0.862205
0.86279
0.865268
0.829774
0.829716
0.829761
0.829819
0.829971
0.830141
0.830405
0.830685
0.831066
0.831454
0.831957
0.832457
0.833081
0.833704
0.83444
0.835207
0.836036
0.836983
0.837848
0.839096
0.839859
0.841546
0.842099
0.84437
0.810355
0.810291
0.810336
0.810371
0.81052
0.810655
0.810911
0.811143
0.811514
0.811839
0.812331
0.812749
0.813361
0.813885
0.814605
0.815262
0.816061
0.816901
0.817708
0.818843
0.819556
0.821081
0.821606
0.823671
0.791183
0.791115
0.791153
0.791177
0.791309
0.791426
0.791657
0.791861
0.7922
0.792485
0.792941
0.793304
0.79388
0.794328
0.795015
0.795575
0.796338
0.797068
0.797831
0.798845
0.799512
0.800876
0.801378
0.803238
0.772302
0.772231
0.772257
0.772278
0.772384
0.772495
0.772687
0.77288
0.773169
0.773437
0.773832
0.774171
0.774678
0.775089
0.775705
0.776206
0.776907
0.777542
0.778271
0.779144
0.779778
0.780984
0.781464
0.783124
0.753742
0.75367
0.753686
0.753701
0.753787
0.753885
0.754047
0.754222
0.75447
0.754715
0.755057
0.755367
0.75581
0.756185
0.75673
0.757179
0.757814
0.758366
0.759052
0.759781
0.760395
0.761447
0.761908
0.76337
0.735529
0.735456
0.735464
0.735471
0.73554
0.735623
0.735761
0.735913
0.736128
0.736343
0.736642
0.736916
0.737306
0.737637
0.738121
0.738513
0.739087
0.739559
0.740196
0.740797
0.741398
0.74229
0.742733
0.744004
0.717687
0.717614
0.717614
0.717613
0.717668
0.717734
0.717851
0.717979
0.718164
0.718348
0.718609
0.718844
0.719188
0.719471
0.719903
0.720236
0.720752
0.721147
0.721731
0.722225
0.722809
0.72354
0.723969
0.725053
0.700229
0.700155
0.700149
0.70014
0.700181
0.700232
0.700329
0.700433
0.700591
0.700744
0.70097
0.701167
0.701468
0.701705
0.702086
0.702362
0.702824
0.703146
0.703678
0.704074
0.704631
0.70521
0.705628
0.706533
0.683172
0.683097
0.683085
0.683069
0.683098
0.683134
0.683211
0.683294
0.683426
0.68355
0.683742
0.683902
0.684163
0.684354
0.684689
0.684909
0.685321
0.685575
0.686055
0.686363
0.686881
0.68732
0.687731
0.688465
0.666519
0.666444
0.666427
0.666404
0.666421
0.666444
0.666503
0.666564
0.666672
0.666768
0.666929
0.667054
0.667277
0.667425
0.667716
0.667883
0.668247
0.668435
0.668866
0.669092
0.669567
0.669879
0.670282
0.670856
0.650283
0.650209
0.650187
0.650158
0.650165
0.650174
0.650217
0.650258
0.650343
0.650412
0.650544
0.650635
0.650822
0.650929
0.651179
0.651296
0.651613
0.65174
0.652123
0.652271
0.652702
0.652906
0.653298
0.653719
0.634464
0.63439
0.634364
0.634329
0.634326
0.634322
0.63435
0.634373
0.634436
0.63448
0.634585
0.634644
0.634798
0.634865
0.635076
0.635145
0.63542
0.635488
0.635827
0.6359
0.636288
0.636396
0.636776
0.637047
0.619069
0.618996
0.618967
0.618926
0.618914
0.618899
0.618912
0.618917
0.61896
0.61898
0.61906
0.619089
0.619211
0.619242
0.619416
0.61944
0.619675
0.619688
0.619985
0.61999
0.620338
0.620358
0.620717
0.62085
0.604094
0.604022
0.603989
0.603943
0.603923
0.603898
0.603897
0.603886
0.60391
0.603908
0.603963
0.603964
0.604057
0.604053
0.604193
0.604175
0.604372
0.604332
0.60459
0.604531
0.604842
0.604782
0.605114
0.60512
0.589544
0.589473
0.589437
0.589387
0.58936
0.589324
0.589311
0.589284
0.589292
0.589268
0.589301
0.589275
0.589341
0.589303
0.589412
0.589353
0.589515
0.589426
0.589647
0.589527
0.589803
0.589665
0.589969
0.589863
0.575411
0.575341
0.575303
0.575249
0.575215
0.57517
0.575146
0.575105
0.575096
0.575053
0.575065
0.575014
0.575055
0.574986
0.575065
0.574969
0.575097
0.574962
0.575148
0.57497
0.575212
0.575
0.575277
0.57507
0.561699
0.561631
0.56159
0.561533
0.561492
0.561439
0.561405
0.56135
0.561326
0.561265
0.561258
0.561184
0.561201
0.561104
0.561155
0.561023
0.561121
0.560943
0.561096
0.560864
0.561075
0.560793
0.561047
0.560743
0.548397
0.54833
0.548288
0.548228
0.548182
0.54812
0.548077
0.54801
0.547973
0.547895
0.547871
0.547774
0.54777
0.547646
0.547673
0.547508
0.547577
0.547358
0.547483
0.5472
0.547384
0.547036
0.547271
0.546877
0.535506
0.535441
0.535398
0.535335
0.535284
0.535216
0.535164
0.535085
0.535036
0.534942
0.534902
0.534786
0.534762
0.534613
0.534617
0.534421
0.534466
0.534209
0.534307
0.533977
0.534137
0.533729
0.533947
0.533471
0.523015
0.522953
0.522908
0.522843
0.522788
0.522713
0.522653
0.522564
0.522505
0.522396
0.522342
0.522207
0.522166
0.521993
0.521977
0.521753
0.521774
0.521483
0.521558
0.521185
0.521323
0.520859
0.521063
0.520512
0.510924
0.510863
0.510818
0.51075
0.510692
0.510611
0.510545
0.510446
0.510377
0.510255
0.510188
0.510035
0.509979
0.509784
0.509749
0.509499
0.5095
0.509178
0.50923
0.508818
0.508937
0.508422
0.508614
0.507994
0.49922
0.499161
0.499115
0.499046
0.498984
0.498898
0.498826
0.498718
0.49864
0.498506
0.498428
0.498259
0.498188
0.497974
0.497922
0.497649
0.49763
0.497279
0.497312
0.496864
0.496966
0.496404
0.496585
0.495903
0.487899
0.487843
0.487797
0.487726
0.487661
0.487571
0.487493
0.487378
0.487292
0.487147
0.487057
0.486875
0.48679
0.486559
0.486491
0.486196
0.48616
0.485783
0.485798
0.485318
0.485403
0.484799
0.484969
0.48423
0.476952
0.476897
0.476851
0.476779
0.476712
0.476617
0.476535
0.476412
0.476319
0.476164
0.476065
0.475869
0.475773
0.475525
0.475443
0.475129
0.475077
0.474676
0.474674
0.474164
0.474234
0.473593
0.473753
0.472963
0.466372
0.46632
0.466273
0.4662
0.466131
0.466032
0.465946
0.465817
0.465717
0.465553
0.465445
0.465238
0.46513
0.464869
0.464773
0.464441
0.464374
0.463952
0.463935
0.463398
0.463454
0.462777
0.462928
0.462091
0.456148
0.456098
0.456052
0.455978
0.455907
0.455805
0.455715
0.45558
0.455475
0.455302
0.455187
0.454968
0.454851
0.454576
0.454468
0.45412
0.454039
0.453598
0.453566
0.453005
0.453047
0.45234
0.452481
0.451603
0.446276
0.446228
0.446181
0.446107
0.446035
0.44593
0.445837
0.445697
0.445586
0.445406
0.445283
0.445055
0.444928
0.444641
0.444522
0.44416
0.444066
0.443608
0.443562
0.442979
0.443009
0.442273
0.442405
0.441489
0.436743
0.436697
0.436651
0.436576
0.436503
0.436395
0.436299
0.436154
0.436039
0.435852
0.435723
0.435486
0.435351
0.435053
0.434924
0.434549
0.434443
0.433969
0.43391
0.433308
0.433325
0.432564
0.432687
0.431735
0.427544
0.427501
0.427455
0.42738
0.427305
0.427195
0.427096
0.426947
0.426828
0.426635
0.4265
0.426255
0.426113
0.425805
0.425667
0.42528
0.425163
0.424675
0.424603
0.423985
0.423989
0.423206
0.42332
0.422336
0.418668
0.418627
0.418581
0.418506
0.418431
0.418318
0.418218
0.418065
0.417942
0.417743
0.417604
0.417351
0.417203
0.416885
0.41674
0.416341
0.416216
0.415715
0.415632
0.414999
0.414991
0.414189
0.414292
0.41328
0.410109
0.410069
0.410024
0.409948
0.409873
0.409759
0.409656
0.4095
0.409374
0.40917
0.409027
0.408767
0.408614
0.408288
0.408136
0.407727
0.407594
0.407081
0.406989
0.406343
0.406324
0.405507
0.4056
0.404564
0.401855
0.401817
0.401772
0.401697
0.401621
0.401505
0.401402
0.401242
0.401114
0.400905
0.400759
0.400493
0.400335
0.400001
0.399844
0.399426
0.399287
0.398762
0.398665
0.398005
0.39798
0.397147
0.397234
0.396181
0.393901
0.393864
0.39382
0.393745
0.393669
0.393551
0.393447
0.393284
0.393155
0.392941
0.392792
0.39252
0.392359
0.392018
0.391857
0.39143
0.391287
0.390752
0.390651
0.389977
0.38995
0.389102
0.389186
0.38812
0.386235
0.3862
0.386157
0.386082
0.386005
0.385887
0.385782
0.385616
0.385485
0.385268
0.385116
0.38484
0.384676
0.384329
0.384164
0.383729
0.383583
0.383038
0.382934
0.38225
0.38222
0.38136
0.38144
0.380364
0.378852
0.378819
0.378776
0.378701
0.378624
0.378505
0.378399
0.378232
0.378099
0.377879
0.377725
0.377444
0.377277
0.376925
0.376757
0.376316
0.376166
0.375614
0.375506
0.374813
0.37478
0.37391
0.373987
0.372901
0.371741
0.371709
0.371667
0.371592
0.371516
0.371396
0.371289
0.37112
0.370986
0.370763
0.370607
0.370323
0.370153
0.369797
0.369626
0.36918
0.369026
0.368469
0.368356
0.367657
0.367619
0.366742
0.366814
0.365721
0.364896
0.364865
0.364823
0.364749
0.364673
0.364552
0.364445
0.364274
0.364139
0.363914
0.363756
0.363469
0.363297
0.362937
0.362763
0.362314
0.362155
0.361594
0.361476
0.360773
0.360729
0.359847
0.359913
0.358814
0.358307
0.358278
0.358236
0.358162
0.358086
0.357965
0.357857
0.357685
0.357549
0.357322
0.357163
0.356874
0.356699
0.356337
0.356159
0.355707
0.355544
0.35498
0.354858
0.354151
0.354101
0.353216
0.353277
0.352172
0.351968
0.35194
0.351899
0.351825
0.351749
0.351628
0.35152
0.351347
0.35121
0.350981
0.350821
0.350529
0.350353
0.349988
0.349808
0.349353
0.349187
0.34862
0.348493
0.347784
0.347729
0.34684
0.346897
0.345787
0.345871
0.345844
0.345804
0.34573
0.345654
0.345532
0.345424
0.34525
0.345113
0.344882
0.344722
0.344427
0.34425
0.343882
0.343701
0.343243
0.343075
0.342505
0.342375
0.341664
0.341604
0.340713
0.340764
0.339652
0.340008
0.339983
0.339943
0.33987
0.339794
0.339671
0.339563
0.339388
0.339251
0.339019
0.338858
0.338562
0.338384
0.338014
0.337831
0.337371
0.337201
0.336629
0.336496
0.335783
0.33572
0.334826
0.334873
0.33376
0.334373
0.334349
0.334309
0.334236
0.334161
0.334038
0.333931
0.333755
0.333618
0.333384
0.333223
0.332925
0.332747
0.332374
0.332191
0.331729
0.331558
0.330984
0.330849
0.330134
0.330068
0.329173
0.329217
0.328103
0.328959
0.328936
0.328897
0.328824
0.328749
0.328626
0.328519
0.328342
0.328205
0.32797
0.32781
0.327509
0.327333
0.326957
0.326775
0.326309
0.326139
0.325562
0.325428
0.32471
0.324644
0.323747
0.323788
0.322676
0.323759
0.323736
0.323698
0.323625
0.323551
0.323428
0.323321
0.323143
0.323008
0.32277
0.322612
0.322308
0.322134
0.321754
0.321576
0.321105
0.320939
0.320357
0.320226
0.319504
0.31944
0.31854
0.31858
0.31747
0.318767
0.318745
0.318707
0.318635
0.318561
0.318437
0.318332
0.318152
0.318018
0.317779
0.317623
0.317316
0.317145
0.316761
0.316586
0.31611
0.315949
0.315361
0.315236
0.314507
0.31445
0.313546
0.313586
0.31248
0.313976
0.313955
0.313917
0.313845
0.313772
0.313647
0.313543
0.313362
0.313231
0.312989
0.312835
0.312525
0.312358
0.311969
0.3118
0.311318
0.311164
0.310569
0.310451
0.309715
0.309665
0.308758
0.308799
0.307698
0.309381
0.30936
0.309323
0.30925
0.309179
0.309053
0.308951
0.308768
0.308639
0.308394
0.308244
0.30793
0.307767
0.307374
0.307211
0.306722
0.306575
0.305973
0.305863
0.305122
0.305078
0.30417
0.304211
0.303117
0.304975
0.304954
0.304918
0.304846
0.304775
0.304649
0.304548
0.304364
0.304237
0.30399
0.303843
0.303526
0.303367
0.302969
0.302812
0.302318
0.302178
0.301569
0.301467
0.30072
0.30068
0.299773
0.299813
0.298725
0.300753
0.300732
0.300697
0.300624
0.300554
0.300428
0.300328
0.300143
0.300018
0.29977
0.299625
0.299306
0.299151
0.29875
0.298597
0.298099
0.297964
0.297351
0.297256
0.296504
0.296469
0.295562
0.295601
0.294518
0.296709
0.296689
0.296654
0.296581
0.296513
0.296385
0.296287
0.296101
0.295978
0.295727
0.295587
0.295264
0.295113
0.294708
0.294561
0.294059
0.29393
0.293311
0.293224
0.292469
0.292436
0.291531
0.291569
0.290491
0.292839
0.292819
0.292785
0.292711
0.292644
0.292516
0.29242
0.292231
0.292113
0.291859
0.291723
0.291395
0.291252
0.29084
0.290702
0.290191
0.290074
0.289446
0.289367
0.288608
0.288578
0.287675
0.287711
0.28664
0.289136
0.289116
0.289083
0.289008
0.288943
0.288813
0.28872
0.288529
0.288415
0.288156
0.288027
0.287693
0.287559
0.287138
0.287011
0.28649
0.286385
0.28575
0.285677
0.284918
0.284889
0.283991
0.284024
0.282962
0.285597
0.285578
0.285545
0.28547
0.285407
0.285274
0.285185
0.28499
0.284881
0.284617
0.284496
0.284153
0.28403
0.283599
0.283484
0.282955
0.282858
0.282219
0.28215
0.281392
0.281363
0.28047
0.280501
0.279447
0.282217
0.282197
0.282165
0.282089
0.282029
0.281894
0.281809
0.28161
0.281508
0.281237
0.281125
0.280775
0.280662
0.280223
0.280117
0.279582
0.279491
0.278851
0.278784
0.278027
0.277998
0.277109
0.277137
0.276091
0.278991
0.278971
0.27894
0.278863
0.278805
0.278667