/*--------------------------------*- C++ -*----------------------------------*\
  =========                 |
  \\      /  F ield         | OpenFOAM: The Open Source CFD Toolbox
   \\    /   O peration     | Website:  https://openfoam.org
    \\  /    A nd           | Version:  10
     \\/     M anipulation  |
\*---------------------------------------------------------------------------*/
FoamFile
{
    format      ascii;
    class       volScalarField;
    location    "0.08";
    object      p;
}
// * * * * * * * * * * * * * * * * * * * * * * * * * * * * * * * * * * * * * //

dimensions      [1 -1 -2 0 0 0 0];

internalField   nonuniform List<scalar> 
4176
(
1722.82
1723.02
1723.52
1724.16
1725.18
1726.23
1727.8
1729.24
1731.34
1733.17
1735.76
1738.04
1741.03
1743.82
1747.09
1750.59
1753.86
1758.34
1761.36
1767.12
1769.56
1776.94
1778.12
1786.58
1712.15
1712.32
1712.79
1713.39
1714.37
1715.33
1716.85
1718.16
1720.19
1721.86
1724.39
1726.46
1729.37
1731.95
1735.08
1738.36
1741.41
1745.76
1748.38
1754.13
1756.04
1763.53
1764.74
1774.46
1710.32
1710.51
1710.99
1711.6
1712.59
1713.58
1715.1
1716.45
1718.5
1720.2
1722.77
1724.86
1727.85
1730.44
1733.68
1736.96
1740.1
1744.52
1747.18
1752.96
1754.9
1762.21
1763.34
1772.73
1705.77
1705.96
1706.43
1707.02
1708.01
1708.96
1710.48
1711.77
1713.84
1715.45
1718.05
1720.02
1723.07
1725.52
1728.82
1732.02
1735.06
1739.59
1742.06
1747.87
1749.78
1756.98
1758.01
1766.78
1703.82
1704.02
1704.48
1705.08
1706.04
1707.02
1708.5
1709.83
1711.83
1713.5
1716.02
1718.06
1721.03
1723.51
1726.8
1729.93
1733.16
1737.5
1740.08
1745.79
1747.82
1754.94
1756.07
1764.82
1702.57
1702.75
1703.2
1703.8
1704.74
1705.72
1707.16
1708.5
1710.45
1712.14
1714.6
1716.65
1719.57
1722.05
1725.3
1728.36
1731.69
1735.79
1738.54
1744.15
1746.16
1753.25
1754.4
1763.26
1702.33
1702.51
1702.95
1703.54
1704.47
1705.45
1706.86
1708.2
1710.12
1711.81
1714.23
1716.27
1719.15
1721.6
1724.84
1727.84
1731.22
1735.17
1738.05
1743.49
1745.58
1752.53
1753.76
1762.5
1703.44
1703.63
1704.07
1704.66
1705.58
1706.55
1707.94
1709.27
1711.16
1712.84
1715.22
1717.25
1720.1
1722.52
1725.74
1728.68
1732.06
1735.88
1738.83
1744.15
1746.25
1753.16
1754.37
1763.08
1705.43
1705.61
1706.04
1706.63
1707.53
1708.49
1709.87
1711.18
1713.05
1714.7
1717.06
1719.05
1721.87
1724.25
1727.44
1730.32
1733.71
1737.38
1740.44
1745.52
1747.75
1754.47
1755.76
1764.3
1708.59
1708.77
1709.2
1709.78
1710.67
1711.63
1712.99
1714.29
1716.13
1717.77
1720.1
1722.08
1724.86
1727.21
1730.38
1733.21
1736.6
1740.15
1743.28
1748.21
1750.5
1757.12
1758.43
1766.85
1712.66
1712.84
1713.26
1713.84
1714.72
1715.66
1717
1718.28
1720.1
1721.71
1724.01
1725.95
1728.7
1731
1734.14
1736.9
1740.28
1743.71
1746.89
1751.63
1754
1760.44
1761.8
1770.09
1717.8
1717.98
1718.4
1718.97
1719.83
1720.76
1722.08
1723.35
1725.14
1726.73
1728.99
1730.9
1733.62
1735.88
1738.99
1741.68
1745.04
1748.37
1751.59
1756.16
1758.6
1764.85
1766.25
1774.39
1723.9
1724.08
1724.49
1725.05
1725.9
1726.82
1728.12
1729.37
1731.13
1732.69
1734.92
1736.8
1739.47
1741.69
1744.76
1747.38
1750.72
1753.95
1757.18
1761.58
1764.07
1770.14
1771.57
1779.55
1730.98
1731.16
1731.56
1732.12
1732.95
1733.85
1735.13
1736.36
1738.09
1739.63
1741.82
1743.66
1746.3
1748.46
1751.49
1754.05
1757.36
1760.49
1763.74
1767.97
1770.5
1776.39
1777.83
1785.65
1739.02
1739.2
1739.6
1740.14
1740.96
1741.85
1743.1
1744.31
1746.01
1747.52
1749.67
1751.47
1754.07
1756.18
1759.17
1761.66
1764.92
1767.95
1771.21
1775.27
1777.83
1783.54
1784.99
1792.63
1748.02
1748.2
1748.59
1749.13
1749.93
1750.8
1752.03
1753.21
1754.88
1756.35
1758.47
1760.23
1762.78
1764.84
1767.78
1770.2
1773.42
1776.35
1779.6
1783.5
1786.09
1791.61
1793.06
1800.52
1757.99
1758.16
1758.54
1759.07
1759.86
1760.7
1761.91
1763.06
1764.7
1766.13
1768.21
1769.92
1772.42
1774.43
1777.32
1779.66
1782.84
1785.67
1788.9
1792.63
1795.25
1800.57
1802.04
1809.3
1768.91
1769.08
1769.45
1769.97
1770.74
1771.56
1772.74
1773.86
1775.46
1776.86
1778.89
1780.55
1783
1784.95
1787.78
1790.05
1793.18
1795.91
1799.11
1802.67
1805.32
1810.43
1811.92
1818.98
1780.79
1780.96
1781.32
1781.83
1782.58
1783.38
1784.53
1785.62
1787.18
1788.54
1790.52
1792.13
1794.52
1796.4
1799.18
1801.37
1804.44
1807.06
1810.23
1813.62
1816.29
1821.19
1822.71
1829.55
1793.64
1793.8
1794.16
1794.65
1795.38
1796.16
1797.28
1798.33
1799.85
1801.16
1803.09
1804.65
1806.98
1808.79
1811.51
1813.61
1816.63
1819.14
1822.26
1825.49
1828.17
1832.86
1834.4
1841.02
1807.46
1807.62
1807.97
1808.44
1809.15
1809.91
1810.99
1812.01
1813.49
1814.75
1816.62
1818.12
1820.39
1822.13
1824.78
1826.79
1829.74
1832.14
1835.22
1838.28
1840.96
1845.43
1846.99
1853.38
1822.25
1822.41
1822.75
1823.21
1823.89
1824.62
1825.67
1826.65
1828.08
1829.29
1831.11
1832.55
1834.75
1836.41
1838.99
1840.91
1843.79
1846.07
1849.09
1851.99
1854.67
1858.91
1860.5
1866.65
1838.04
1838.2
1838.52
1838.96
1839.62
1840.32
1841.33
1842.27
1843.65
1844.81
1846.57
1847.93
1850.08
1851.65
1854.16
1855.98
1858.78
1860.95
1863.89
1866.64
1869.3
1873.31
1874.91
1880.82
1854.81
1854.97
1855.28
1855.7
1856.34
1857.01
1857.98
1858.87
1860.2
1861.3
1863
1864.3
1866.37
1867.86
1870.29
1872.01
1874.73
1876.77
1879.65
1882.23
1884.87
1888.64
1890.24
1895.9
1872.59
1872.74
1873.04
1873.45
1874.05
1874.69
1875.62
1876.47
1877.74
1878.79
1880.42
1881.64
1883.64
1885.04
1887.39
1889.01
1891.64
1893.56
1896.35
1898.77
1901.38
1904.92
1906.51
1911.89
1891.38
1891.53
1891.81
1892.2
1892.78
1893.38
1894.27
1895.07
1896.29
1897.27
1898.83
1899.98
1901.9
1903.21
1905.47
1906.98
1909.53
1911.32
1914.03
1916.28
1918.85
1922.15
1923.73
1928.84
1911.19
1911.34
1911.61
1911.98
1912.52
1913.09
1913.94
1914.69
1915.85
1916.76
1918.26
1919.32
1921.16
1922.38
1924.55
1925.95
1928.41
1930.06
1932.68
1934.77
1937.28
1940.34
1941.91
1946.76
1932.03
1932.17
1932.43
1932.78
1933.3
1933.83
1934.63
1935.33
1936.43
1937.28
1938.7
1939.68
1941.44
1942.56
1944.64
1945.92
1948.28
1949.8
1952.33
1954.25
1956.69
1959.5
1961.06
1965.64
1953.91
1954.05
1954.29
1954.63
1955.11
1955.61
1956.37
1957.02
1958.06
1958.83
1960.18
1961.08
1962.74
1963.76
1965.74
1966.91
1969.17
1970.54
1972.98
1974.73
1977.09
1979.66
1981.21
1985.49
1976.85
1976.99
1977.21
1977.53
1977.98
1978.45
1979.15
1979.75
1980.73
1981.44
1982.71
1983.52
1985.09
1986
1987.89
1988.93
1991.09
1992.32
1994.65
1996.23
1998.51
2000.82
2002.35
2006.34
2000.86
2000.99
2001.2
2001.49
2001.92
2002.34
2003
2003.55
2004.46
2005.1
2006.29
2007.01
2008.5
2009.31
2011.09
2012
2014.05
2015.13
2017.36
2018.76
2020.96
2023.02
2024.53
2028.2
2025.94
2026.07
2026.27
2026.54
2026.93
2027.32
2027.93
2028.42
2029.27
2029.84
2030.95
2031.59
2032.99
2033.68
2035.37
2036.14
2038.08
2039.01
2041.13
2042.35
2044.45
2046.27
2047.76
2051.1
2052.13
2052.25
2052.43
2052.68
2053.04
2053.39
2053.95
2054.38
2055.17
2055.67
2056.71
2057.25
2058.56
2059.14
2060.72
2061.37
2063.2
2063.97
2065.97
2067
2069
2070.59
2072.05
2075.05
2079.42
2079.54
2079.7
2079.93
2080.26
2080.57
2081.08
2081.46
2082.18
2082.6
2083.56
2084.01
2085.23
2085.7
2087.19
2087.7
2089.42
2090.03
2091.92
2092.76
2094.64
2095.99
2097.42
2100.08
2107.83
2107.95
2108.1
2108.3
2108.6
2108.87
2109.33
2109.65
2110.31
2110.66
2111.54
2111.89
2113.02
2113.38
2114.76
2115.14
2116.76
2117.2
2118.98
2119.62
2121.39
2122.5
2123.88
2126.2
2137.38
2137.49
2137.63
2137.82
2138.08
2138.31
2138.73
2138.99
2139.58
2139.85
2140.65
2140.92
2141.95
2142.19
2143.48
2143.71
2145.22
2145.51
2147.17
2147.62
2149.28
2150.15
2151.46
2153.43
2168.09
2168.2
2168.32
2168.48
2168.72
2168.91
2169.28
2169.49
2170.01
2170.21
2170.93
2171.1
2172.04
2172.16
2173.34
2173.44
2174.84
2174.96
2176.51
2176.77
2178.32
2178.95
2180.16
2181.79
2199.97
2200.07
2200.18
2200.33
2200.53
2200.69
2201
2201.16
2201.62
2201.74
2202.38
2202.45
2203.3
2203.31
2204.38
2204.33
2205.62
2205.57
2207.01
2207.08
2208.52
2208.92
2210.04
2211.3
2233.04
2233.14
2233.24
2233.36
2233.53
2233.65
2233.92
2234.02
2234.42
2234.47
2235.02
2235
2235.75
2235.64
2236.61
2236.42
2237.6
2237.37
2238.7
2238.56
2239.89
2240.05
2241.1
2242
2267.32
2267.42
2267.5
2267.6
2267.74
2267.83
2268.05
2268.09
2268.43
2268.4
2268.88
2268.76
2269.42
2269.19
2270.06
2269.72
2270.79
2270.38
2271.59
2271.24
2272.46
2272.38
2273.34
2273.92
2302.83
2302.93
2303
2303.08
2303.19
2303.24
2303.41
2303.4
2303.66
2303.57
2303.97
2303.75
2304.32
2303.97
2304.74
2304.25
2305.21
2304.62
2305.72
2305.14
2306.26
2305.92
2306.78
2307.06
2339.6
2339.7
2339.75
2339.81
2339.89
2339.9
2340.02
2339.95
2340.16
2339.98
2340.3
2339.99
2340.47
2340
2340.66
2340.02
2340.88
2340.1
2341.11
2340.3
2341.31
2340.69
2341.46
2341.42
2377.65
2377.74
2377.78
2377.82
2377.86
2377.83
2377.9
2377.78
2377.92
2377.67
2377.91
2377.5
2377.89
2377.29
2377.86
2377.07
2377.82
2376.85
2377.76
2376.71
2377.64
2376.73
2377.42
2377.02
2416.99
2417.08
2417.1
2417.12
2417.13
2417.06
2417.08
2416.9
2416.97
2416.65
2416.8
2416.3
2416.59
2415.87
2416.34
2415.39
2416.05
2414.89
2415.7
2414.42
2415.27
2414.06
2414.69
2413.91
2457.64
2457.73
2457.74
2457.74
2457.71
2457.61
2457.57
2457.34
2457.34
2456.94
2457.01
2456.41
2456.6
2455.76
2456.12
2455.02
2455.57
2454.22
2454.94
2453.42
2454.2
2452.68
2453.27
2452.13
2499.64
2499.72
2499.71
2499.69
2499.63
2499.49
2499.4
2499.11
2499.04
2498.56
2498.55
2497.84
2497.94
2496.97
2497.23
2495.97
2496.42
2494.87
2495.5
2493.72
2494.45
2492.61
2493.19
2491.64
2542.98
2543.07
2543.04
2543
2542.9
2542.72
2542.58
2542.23
2542.09
2541.53
2541.43
2540.62
2540.63
2539.53
2539.69
2538.27
2538.62
2536.86
2537.41
2535.36
2536.04
2533.86
2534.46
2532.47
2587.7
2587.78
2587.75
2587.68
2587.55
2587.33
2587.13
2586.72
2586.51
2585.87
2585.69
2584.77
2584.68
2583.45
2583.51
2581.92
2582.17
2580.2
2580.68
2578.35
2578.98
2576.44
2577.08
2574.67
2633.81
2633.89
2633.83
2633.75
2633.58
2633.32
2633.07
2632.6
2632.31
2631.59
2631.33
2630.31
2630.12
2628.75
2628.71
2626.95
2627.11
2624.92
2625.33
2622.71
2623.33
2620.4
2621.06
2618.24
2681.32
2681.39
2681.33
2681.22
2681.01
2680.71
2680.41
2679.87
2679.52
2678.71
2678.37
2677.24
2676.96
2675.45
2675.32
2673.37
2673.46
2671.03
2671.39
2668.46
2669.11
2665.75
2666.43
2663.2
2730.24
2730.31
2730.23
2730.1
2729.86
2729.52
2729.16
2728.56
2728.14
2727.25
2726.82
2725.58
2725.22
2723.56
2723.34
2721.21
2721.23
2718.54
2718.87
2715.59
2716.28
2712.54
2713.2
2709.58
2780.58
2780.65
2780.55
2780.4
2780.12
2779.75
2779.33
2778.68
2778.19
2777.21
2776.7
2775.35
2774.9
2773.09
2772.81
2770.46
2770.44
2767.47
2767.82
2764.16
2764.86
2760.77
2761.39
2757.4
2832.35
2832.42
2832.31
2832.13
2831.82
2831.41
2830.94
2830.23
2829.67
2828.6
2828.02
2826.54
2826.03
2824.05
2823.72
2821.14
2821.11
2817.82
2818.21
2814.21
2814.86
2810.47
2811.04
2806.67
2885.56
2885.62
2885.49
2885.3
2884.95
2884.5
2883.98
2883.21
2882.59
2881.43
2880.79
2879.18
2878.63
2876.45
2876.11
2873.25
2873.27
2869.63
2870.02
2865.75
2866.32
2861.64
2862.15
2857.41
2940.19
2940.25
2940.11
2939.9
2939.52
2939.03
2938.46
2937.63
2936.95
2935.7
2935.02
2933.24
2932.69
2930.27
2929.98
2926.81
2926.85
2922.97
2923.27
2918.77
2919.25
2914.29
2914.74
2909.65
2996.25
2996.32
2996.16
2995.93
2995.52
2995
2994.37
2993.49
2992.77
2991.4
2990.73
2988.75
2988.25
2985.56
2985.29
2981.91
2981.86
2977.8
2978
2973.29
2973.67
2968.44
2968.83
2963.38
3053.73
3053.81
3053.62
3053.41
3052.94
3052.41
3051.73
3050.79
3050.05
3048.53
3047.89
3045.72
3045.2
3042.37
3042.01
3038.5
3038.35
3034.13
3034.21
3029.3
3029.58
3024.1
3024.42
3018.63
3112.64
3112.73
3112.51
3112.31
3111.77
3111.26
3110.51
3109.52
3108.76
3107.15
3106.45
3104.2
3103.6
3100.67
3100.21
3096.58
3096.32
3091.95
3091.92
3086.82
3087.01
3081.27
3081.54
3075.41
3172.97
3173.06
3172.82
3172.62
3172.06
3171.52
3170.71
3169.73
3168.88
3167.23
3166.46
3164.12
3163.45
3160.43
3159.88
3156.13
3155.77
3151.26
3151.13
3145.85
3145.95
3139.97
3140.17
3133.72
3234.71
3234.81
3234.57
3234.34
3233.77
3233.2
3232.34
3231.38
3230.38
3228.77
3227.9
3225.51
3224.76
3221.65
3221.02
3217.17
3216.71
3212.07
3211.84
3206.39
3206.39
3200.19
3200.33
3193.57
3297.86
3297.95
3297.72
3297.47
3296.89
3296.3
3295.41
3294.44
3293.33
3291.78
3290.73
3288.37
3287.53
3284.34
3283.63
3279.69
3279.13
3274.37
3274.04
3268.43
3268.35
3261.93
3262.01
3254.95
3362.41
3362.51
3362.27
3362.01
3361.42
3360.81
3359.89
3358.91
3357.72
3356.2
3355
3352.71
3351.7
3348.49
3347.7
3343.67
3343.02
3338.15
3337.73
3331.97
3331.81
3325.18
3325.21
3317.87
3428.37
3428.47
3428.23
3427.96
3427.36
3426.74
3425.79
3424.79
3423.55
3422.04
3420.73
3418.46
3417.3
3414.13
3413.21
3409.11
3408.38
3403.4
3402.9
3397
3396.76
3389.94
3389.92
3382.31
3495.74
3495.84
3495.6
3495.33
3494.71
3494.08
3493.11
3492.09
3490.8
3489.3
3487.89
3485.65
3484.36
3481.19
3480.15
3476.01
3475.19
3470.12
3469.54
3463.5
3463.19
3456.19
3456.11
3448.25
3564.52
3564.63
3564.39
3564.11
3563.48
3562.84
3561.84
3560.81
3559.48
3557.98
3556.49
3554.25
3552.86
3549.68
3548.52
3544.34
3543.45
3538.28
3537.62
3531.45
3531.07
3523.9
3523.77
3515.68
3634.73
3634.84
3634.6
3634.32
3633.68
3633.03
3632.01
3630.96
3629.59
3628.07
3626.51
3624.26
3622.78
3619.58
3618.34
3614.08
3613.12
3607.85
3607.12
3600.84
3600.38
3593.06
3592.88
3584.57
3706.38
3706.5
3706.25
3705.97
3705.31
3704.65
3703.6
3702.53
3701.11
3699.58
3697.93
3695.68
3694.1
3690.87
3689.54
3685.23
3684.19
3678.83
3678.03
3671.63
3671.1
3663.64
3663.4
3654.9
3779.48
3779.61
3779.34
3779.06
3778.38
3777.7
3776.61
3775.52
3774.05
3772.49
3770.75
3768.5
3766.8
3763.55
3762.13
3757.75
3756.65
3751.18
3750.31
3743.8
3743.2
3735.61
3735.33
3726.64
3854.03
3854.16
3853.88
3853.59
3852.88
3852.17
3851.03
3849.91
3848.37
3846.78
3844.94
3842.68
3840.86
3837.6
3836.06
3831.62
3830.45
3824.87
3823.94
3817.34
3816.67
3808.96
3808.63
3799.78
3930
3930.14
3929.84
3929.52
3928.78
3928.03
3926.85
3925.67
3924.07
3922.42
3920.48
3918.21
3916.24
3912.99
3911.31
3906.85
3905.58
3899.91
3898.92
3892.23
3891.49
3883.68
3883.29
3874.31
4007.32
4007.45
4007.14
4006.8
4006.02
4005.23
4003.99
4002.75
4001.08
3999.38
3997.35
3995.05
3992.93
3989.7
3987.84
3983.39
3981.98
3976.29
3975.23
3968.45
3967.65
3959.75
3959.31
3950.2
4085.87
4086
4085.68
4085.31
4084.51
4083.67
4082.4
4081.1
4079.37
4077.61
4075.49
4073.17
4070.9
4067.7
4065.65
4061.26
4059.68
4053.99
4052.85
4046.01
4045.14
4037.18
4036.7
4027.49
4165.48
4165.62
4165.3
4164.91
4164.1
4163.24
4161.93
4160.61
4158.83
4157.03
4154.86
4152.51
4150.13
4146.96
4144.74
4140.43
4138.66
4133.03
4131.78
4124.91
4123.98
4115.98
4115.47
4106.18
4245.95
4246.1
4245.79
4245.41
4244.62
4243.76
4242.47
4241.15
4239.38
4237.58
4235.38
4233.05
4230.59
4227.48
4225.11
4220.91
4218.94
4213.42
4212.02
4205.19
4204.22
4196.18
4195.66
4186.31
4327.1
4327.26
4326.99
4326.64
4325.9
4325.08
4323.85
4322.59
4320.88
4319.14
4316.99
4314.71
4312.26
4309.23
4306.78
4302.71
4300.59
4295.2
4293.67
4286.85
4285.87
4277.81
4277.29
4267.91
4408.82
4409
4408.78
4408.49
4407.82
4407.1
4405.98
4404.82
4403.23
4401.62
4399.58
4397.44
4395.07
4392.18
4389.74
4385.84
4383.63
4378.42
4376.75
4370.02
4369.01
4360.91
4360.41
4350.99
4491.15
4491.35
4491.18
4490.97
4490.41
4489.81
4488.82
4487.83
4486.4
4484.97
4483.1
4481.16
4478.96
4476.27
4473.95
4470.26
4468.07
4463.08
4461.35
4454.75
4453.71
4445.55
4445.08
4435.59
4574.31
4574.55
4574.43
4574.31
4573.84
4573.37
4572.53
4571.7
4570.45
4569.23
4567.57
4565.87
4563.87
4561.43
4559.32
4555.89
4553.86
4549.12
4547.47
4541.04
4540.06
4531.84
4531.41
4521.76
4658.8
4659.08
4658.98
4658.95
4658.52
4658.19
4657.43
4656.77
4655.64
4654.62
4653.12
4651.65
4649.84
4647.65
4645.82
4642.57
4640.91
4636.28
4635.02
4628.66
4628.03
4619.82
4619.5
4609.72
4745.32
4745.66
4745.49
4745.59
4745.07
4744.91
4744.03
4743.58
4742.39
4741.56
4740.08
4738.79
4737.08
4735.05
4733.56
4730.17
4729.25
4724.23
4723.9
4717.26
4717.3
4709.22
4709.23
4699.81
4834.74
4835.07
4834.95
4834.92
4834.47
4834.12
4833.32
4832.67
4831.52
4830.55
4829.07
4827.74
4825.98
4824.1
4822.54
4819.19
4818.53
4813.48
4813.46
4806.89
4807.35
4799.38
4799.85
4791.06
4927.96
4928.26
4928.11
4927.97
4927.42
4926.89
4925.94
4925.06
4923.72
4922.5
4920.8
4919.23
4917.25
4915.25
4913.25
4910.21
4908.98
4904.15
4904.07
4897.43
4898.14
4890
4890.84
4882.12
5025.7
5025.98
5025.75
5025.49
5024.75
5024
5022.78
5021.58
5019.88
5018.28
5016.16
5014.16
5011.71
5009.3
5006.73
5003.5
5001.59
4996.75
4996.19
4989.23
4990.01
4981.4
4982.5
4973.41
5128.46
5128.76
5128.39
5128.03
5127.06
5126.08
5124.5
5122.96
5120.78
5118.72
5116.01
5113.46
5110.32
5107.28
5103.93
5100.09
5097.39
5091.89
5090.76
5083
5083.6
5074.15
5075.36
5065.47
5236.42
5236.75
5236.24
5235.79
5234.59
5233.39
5231.46
5229.6
5226.89
5224.45
5220.98
5218.01
5213.9
5210.25
5205.95
5201.15
5197.63
5190.81
5188.93
5179.9
5179.85
5169.11
5170.16
5158.93
5349.42
5349.7
5349.21
5348.56
5347.29
5345.81
5343.71
5341.44
5338.49
5335.45
5331.69
5327.89
5323.34
5318.78
5313.58
5308.16
5302.9
5295.52
5292.01
5281.67
5280.3
5267.74
5268.1
5254.74
5466.94
5467.2
5466.7
5465.97
5464.62
5462.99
5460.74
5458.24
5455.07
5451.71
5447.62
5443.38
5438.37
5433.23
5427.37
5421.23
5414.74
5407.14
5401
5390.61
5386.75
5372.36
5371.24
5354.65
5588.3
5588.55
5588.06
5587.29
5585.91
5584.22
5581.9
5579.3
5576.02
5572.51
5568.25
5563.8
5558.55
5553.1
5546.87
5540.32
5533.24
5525.22
5517.72
5507.4
5500.64
5486.11
5482.45
5462.05
5712.67
5712.92
5712.45
5711.7
5710.32
5708.65
5706.33
5703.74
5700.45
5696.93
5692.65
5688.18
5682.89
5677.41
5671.11
5664.5
5657.27
5649.16
5641.35
5631.1
5623.32
5609.35
5603.81
5581.59
5839.19
5839.48
5839.03
5838.32
5836.99
5835.38
5833.12
5830.61
5827.4
5823.99
5819.79
5815.46
5810.27
5804.94
5798.76
5792.34
5785.26
5777.37
5769.86
5759.68
5752.7
5738.59
5734.14
5713.78
5967.05
5967.36
5966.96
5966.31
5965.05
5963.53
5961.37
5959
5955.91
5952.68
5948.65
5944.53
5939.55
5934.49
5928.56
5922.46
5915.67
5908.19
5901.06
5891.35
5884.94
5871.4
5867.37
5848.42
6095.47
6095.82
6095.46
6094.89
6093.71
6092.32
6090.27
6088.08
6085.15
6082.15
6078.32
6074.48
6069.74
6065.02
6059.4
6053.69
6047.27
6040.3
6033.57
6024.48
6018.51
6005.84
6002.07
5984.43
6223.78
6224.19
6223.84
6223.38
6222.27
6221.03
6219.11
6217.13
6214.36
6211.63
6207.99
6204.51
6200.01
6195.7
6190.38
6185.14
6179.1
6172.69
6166.37
6157.91
6152.45
6140.67
6137.12
6120.79
6351.41
6351.87
6351.51
6351.21
6350.11
6349.1
6347.23
6345.55
6342.86
6340.52
6336.99
6333.98
6329.62
6325.87
6320.75
6316.09
6310.39
6304.57
6298.69
6290.89
6285.82
6275.03
6271.69
6256.68
6477.84
6478.33
6477.99
6477.82
6476.76
6475.97
6474.15
6472.78
6470.16
6468.24
6464.78
6462.32
6458.01
6454.93
6449.88
6446
6440.45
6435.32
6429.88
6422.73
6418.04
6408.25
6405.11
6391.43
6602.63
6603.13
6602.88
6602.71
6601.85
6601.07
6599.56
6598.22
6595.98
6594.13
6591.11
6588.8
6584.96
6582.14
6577.55
6574.08
6568.95
6564.46
6559.28
6552.93
6548.59
6539.8
6536.86
6524.48
6725.42
6725.92
6725.74
6725.61
6724.9
6724.19
6722.9
6721.66
6719.74
6718
6715.4
6713.21
6709.88
6707.24
6703.2
6700.01
6695.4
6691.42
6686.57
6681.16
6677.04
6669.23
6666.47
6655.37
6845.88
6846.38
6846.27
6846.18
6845.6
6844.98
6843.88
6842.77
6841.1
6839.55
6837.27
6835.3
6832.37
6829.99
6826.42
6823.57
6819.43
6815.94
6811.47
6806.93
6802.97
6796.13
6793.57
6783.73
6963.75
6964.26
6964.19
6964.16
6963.68
6963.17
6962.22
6961.27
6959.82
6958.47
6956.48
6954.75
6952.18
6950.08
6946.93
6944.44
6940.74
6937.74
6933.68
6929.85
6926.06
6920.26
6917.87
6909.25
7078.8
7079.31
7079.29
7079.31
7078.93
7078.52
7077.72
7076.93
7075.68
7074.53
7072.8
7071.32
7069.07
7067.27
7064.5
7062.37
7059.1
7056.56
7052.92
7049.71
7046.14
7041.33
7039.11
7031.67
7190.86
7191.37
7191.39
7191.46
7191.17
7190.85
7190.2
7189.55
7188.49
7187.54
7186.05
7184.81
7182.86
7181.36
7178.94
7177.17
7174.29
7172.18
7168.95
7166.32
7163.05
7159.17
7157.04
7150.75
7299.77
7300.27
7300.34
7300.45
7300.24
7300.02
7299.49
7298.99
7298.11
7297.34
7296.08
7295.07
7293.41
7292.19
7290.1
7288.66
7286.16
7284.46
7281.63
7279.5
7276.6
7273.55
7271.55
7266.3
7405.42
7405.92
7406.01
7406.17
7406.03
7405.9
7405.49
7405.12
7404.41
7403.82
7402.77
7401.99
7400.59
7399.64
7397.86
7396.75
7394.59
7393.29
7390.83
7389.19
7386.64
7384.32
7382.47
7378.19
7507.72
7508.21
7508.34
7508.53
7508.46
7508.42
7508.12
7507.87
7507.31
7506.89
7506.05
7505.47
7504.32
7503.62
7502.13
7501.33
7499.5
7498.57
7496.47
7495.29
7493.1
7491.37
7489.66
7486.35
7606.62
7607.1
7607.25
7607.47
7607.47
7607.5
7607.31
7607.18
7606.76
7606.5
7605.84
7605.46
7604.54
7604.08
7602.86
7602.34
7600.82
7600.23
7598.46
7597.7
7595.84
7594.68
7593.13
7590.71
7702.07
7702.54
7702.71
7702.97
7703.02
7703.12
7703.02
7703
7702.72
7702.6
7702.11
7701.92
7701.2
7700.97
7700
7699.75
7698.51
7698.24
7696.77
7696.41
7694.85
7694.17
7692.87
7691.25
7794.06
7794.52
7794.71
7794.99
7795.1
7795.27
7795.25
7795.33
7795.17
7795.18
7794.86
7794.83
7794.32
7794.29
7793.55
7793.55
7792.58
7792.6
7791.42
7791.42
7790.14
7789.92
7788.84
7787.94
7882.6
7883.04
7883.25
7883.56
7883.71
7883.93
7883.99
7884.16
7884.11
7884.25
7884.07
7884.21
7883.87
7884.03
7883.52
7883.74
7883.01
7883.32
7882.4
7882.74
7881.73
7881.95
7881.11
7880.81
7967.7
7968.13
7968.35
7968.68
7968.87
7969.15
7969.28
7969.53
7969.58
7969.84
7969.79
7970.07
7969.9
7970.23
7969.91
7970.35
7969.85
7970.41
7969.73
7970.39
7969.62
7970.25
7969.61
7969.89
8049.4
8049.82
8050.05
8050.39
8050.62
8050.94
8051.14
8051.47
8051.61
8051.97
8052.04
8052.45
8052.43
8052.93
8052.78
8053.41
8053.11
8053.9
8053.45
8054.4
8053.84
8054.85
8054.37
8055.18
8127.76
8128.16
8128.39
8128.75
8129.01
8129.38
8129.63
8130.02
8130.25
8130.7
8130.88
8131.41
8131.52
8132.16
8132.18
8132.98
8132.87
8133.87
8133.6
8134.81
8134.44
8135.79
8135.45
8136.75
8202.82
8203.2
8203.45
8203.82
8204.11
8204.51
8204.81
8205.26
8205.56
8206.09
8206.37
8207
8207.24
8208.01
8208.17
8209.13
8209.17
8210.36
8210.27
8211.72
8211.5
8213.17
8212.94
8214.67
8274.67
8275.04
8275.29
8275.67
8275.98
8276.41
8276.75
8277.26
8277.62
8278.23
8278.59
8279.32
8279.66
8280.55
8280.83
8281.93
8282.12
8283.48
8283.53
8285.19
8285.12
8287.05
8286.93
8289.03
8343.39
8343.73
8343.99
8344.37
8344.7
8345.16
8345.54
8346.1
8346.52
8347.18
8347.62
8348.43
8348.87
8349.86
8350.26
8351.48
8351.79
8353.3
8353.49
8355.33
8355.38
8357.56
8357.52
8359.96
8409.05
8409.38
8409.64
8410.02
8410.37
8410.85
8411.27
8411.86
8412.33
8413.05
8413.56
8414.44
8414.96
8416.04
8416.54
8417.87
8418.29
8419.93
8420.24
8422.25
8422.4
8424.8
8424.82
8427.56
8471.76
8472.07
8472.32
8472.71
8473.08
8473.58
8474.02
8474.65
8475.16
8475.93
8476.5
8477.44
8478.04
8479.19
8479.78
8481.2
8481.72
8483.48
8483.88
8486.04
8486.28
8488.87
8488.97
8491.95
8531.6
8531.89
8532.15
8532.54
8532.91
8533.43
8533.89
8534.55
8535.1
8535.92
8536.53
8537.53
8538.19
8539.42
8540.08
8541.58
8542.19
8544.05
8544.54
8546.82
8547.15
8549.9
8550.03
8553.29
8588.67
8588.95
8589.21
8589.6
8589.98
8590.51
8590.99
8591.67
8592.25
8593.11
8593.77
8594.82
8595.53
8596.81
8597.54
8599.12
8599.81
8601.75
8602.32
8604.71
8605.11
8608
8608.18
8611.63
8643.08
8643.35
8643.6
8643.99
8644.37
8644.91
8645.41
8646.12
8646.72
8647.61
8648.31
8649.4
8650.16
8651.49
8652.28
8653.92
8654.67
8656.68
8657.33
8659.81
8660.28
8663.3
8663.52
8667.13
8694.92
8695.17
8695.42
8695.81
8696.2
8696.74
8697.26
8697.98
8698.61
8699.52
8700.25
8701.38
8702.18
8703.56
8704.39
8706.08
8706.9
8708.97
8709.68
8712.24
8712.76
8715.89
8716.15
8719.91
8744.3
8744.53
8744.78
8745.16
8745.55
8746.11
8746.63
8747.37
8748.01
8748.95
8749.7
8750.86
8751.69
8753.11
8753.99
8755.73
8756.59
8758.71
8759.48
8762.1
8762.68
8765.9
8766.19
8770.09
8791.3
8791.52
8791.76
8792.14
8792.54
8793.09
8793.63
8794.38
8795.04
8795.99
8796.76
8797.95
8798.81
8800.26
8801.17
8802.94
8803.85
8806.02
8806.84
8809.5
8810.13
8813.42
8813.75
8817.76
8836.04
8836.25
8836.48
8836.86
8837.25
8837.81
8838.35
8839.11
8839.78
8840.75
8841.54
8842.74
8843.62
8845.1
8846.04
8847.84
8848.78
8850.98
8851.84
8854.55
8855.22
8858.56
8858.93
8863.02
8878.6
8878.8
8879.03
8879.4
8879.79
8880.35
8880.9
8881.66
8882.34
8883.32
8884.12
8885.34
8886.23
8887.73
8888.69
8890.52
8891.47
8893.71
8894.59
8897.34
8898.03
8901.41
8901.81
8905.97
8919.09
8919.28
8919.5
8919.87
8920.26
8920.82
8921.36
8922.13
8922.81
8923.8
8924.6
8925.84
8926.74
8928.26
8929.22
8931.08
8932.04
8934.32
8935.19
8937.98
8938.67
8942.1
8942.49
8946.68
8957.6
8957.77
8957.99
8958.35
8958.74
8959.3
8959.84
8960.61
8961.29
8962.28
8963.09
8964.34
8965.25
8966.78
8967.74
8969.62
8970.58
8972.88
8973.75
8976.57
8977.25
8980.71
8981.09
8985.3
8994.21
8994.37
8994.58
8994.94
8995.32
8995.88
8996.42
8997.19
8997.87
8998.87
8999.68
9000.93
9001.84
9003.38
9004.35
9006.24
9007.19
9009.51
9010.38
9013.22
9013.89
9017.36
9017.74
9021.95
9029.01
9029.16
9029.37
9029.72
9030.1
9030.66
9031.19
9031.96
9032.64
9033.64
9034.45
9035.7
9036.61
9038.16
9039.12
9041.02
9041.97
9044.3
9045.16
9048.01
9048.68
9052.16
9052.53
9056.74
9062.09
9062.24
9062.44
9062.79
9063.16
9063.71
9064.24
9065.01
9065.68
9066.68
9067.49
9068.74
9069.65
9071.2
9072.16
9074.06
9075.01
9077.33
9078.2
9081.04
9081.72
9085.19
9085.56
9089.77
9093.54
9093.67
9093.87
9094.21
9094.58
9095.13
9095.65
9096.42
9097.09
9098.09
9098.88
9100.14
9101.04
9102.59
9103.54
9105.44
9106.39
9108.71
9109.57
9112.41
9113.08
9116.55
9116.92
9121.12
9123.42
9123.55
9123.74
9124.08
9124.44
9124.98
9125.5
9126.26
9126.93
9127.92
9128.71
9129.97
9130.86
9132.4
9133.35
9135.24
9136.19
9138.5
9139.37
9142.19
9142.86
9146.32
9146.68
9150.87
9151.82
9151.94
9152.13
9152.46
9152.81
9153.35
9153.86
9154.62
9155.28
9156.27
9157.05
9158.3
9159.18
9160.72
9161.67
9163.55
9164.49
9166.79
9167.65
9170.46
9171.14
9174.57
9174.93
9179.1
9178.8
9178.92
9179.1
9179.43
9179.77
9180.31
9180.81
9181.57
9182.21
9183.2
9183.97
9185.22
9186.09
9187.63
9188.56
9190.43
9191.37
9193.65
9194.5
9197.3
9197.95
9201.4
9201.74
9205.88
9204.44
9204.55
9204.73
9205.05
9205.39
9205.92
9206.41
9207.17
9207.8
9208.79
9209.54
9210.79
9211.64
9213.18
9214.09
9215.96
9216.88
9219.16
9219.99
9222.77
9223.42
9226.84
9227.18
9231.29
9228.8
9228.91
9229.08
9229.39
9229.73
9230.25
9230.74
9231.49
9232.11
9233.09
9233.83
9235.08
9235.91
9237.44
9238.34
9240.21
9241.1
9243.37
9244.19
9246.95
9247.58
9250.98
9251.31
9255.39
9251.95
9252.05
9252.22
9252.52
9252.85
9253.37
9253.85
9254.59
9255.2
9256.18
9256.9
9258.15
9258.96
9260.49
9261.36
9263.23
9264.09
9266.36
9267.15
9269.91
9270.51
9273.88
9274.2
9278.24
9273.93
9274.03
9274.19
9274.5
9274.82
9275.33
9275.8
9276.54
9277.13
9278.11
9278.81
9280.06
9280.84
9282.38
9283.21
9285.09
9285.91
9288.19
9288.93
9291.7
9292.26
9295.62
9295.91
9299.92
9294.82
9294.91
9295.07
9295.37
9295.68
9296.2
9296.65
9297.39
9297.96
9298.94
9299.62
9300.87
9301.63
9303.17
9303.96
9305.85
9306.63
9308.91
9309.61
9312.38
9312.89
9316.24
9316.51
9320.47
9314.66
9314.75
9314.9
9315.2
9315.5
9316.02
9316.45
9317.19
9317.75
9318.73
9319.38
9320.64
9321.36
9322.91
9323.66
9325.56
9326.29
9328.59
9329.24
9332
9332.47
9335.8
9336.05
9339.95
9333.51
9333.59
9333.74
9334.04
9334.33
9334.84
9335.26
9336
9336.54
9337.52
9338.15
9339.41
9340.1
9341.65
9342.37
9344.27
9344.96
9347.27
9347.85
9350.64
9351.06
9354.37
9354.6
9358.44
9351.4
9351.49
9351.63
9351.93
9352.21
9352.72
9353.13
9353.87
9354.39
9355.37
9355.98
9357.23
9357.89
9359.45
9360.13
9362.04
9362.68
9364.99
9365.53
9368.32
9368.7
9371.99
9372.2
9376
9368.4
9368.48
9368.63
9368.92
9369.19
9369.7
9370.1
9370.83
9371.33
9372.31
9372.9
9374.15
9374.79
9376.34
9376.99
9378.9
9379.5
9381.83
9382.32
9385.1
9385.45
9388.71
9388.91
9392.67
9384.55
9384.62
9384.76
9385.05
9385.32
9385.82
9386.21
9386.94
9387.42
9388.41
9388.97
9390.22
9390.83
9392.39
9393
9394.91
9395.47
9397.8
9398.25
9401.02
9401.35
9404.57
9404.76
9408.47
9399.87
9399.95
9400.08
9400.37
9400.63
9401.13
9401.5
9402.24
9402.7
9403.69
9404.21
9405.48
9406.04
9407.62
9408.17
9410.13
9410.61
9412.96
9413.36
9416.12
9416.43
9419.62
9419.8
9423.46
9414.42
9414.49
9414.62
9414.91
9415.16
9415.66
9416.02
9416.76
9417.19
9418.19
9418.68
9419.97
9420.48
9422.08
9422.58
9424.55
9424.99
9427.34
9427.71
9430.45
9430.74
9433.89
9434.06
9437.67
9428.23
9428.3
9428.43
9428.71
9428.95
9429.46
9429.79
9430.54
9430.95
9431.96
9432.41
9433.71
9434.18
9435.81
9436.25
9438.23
9438.63
9440.97
9441.32
9444.04
9444.31
9447.43
9447.59
9451.14
9441.33
9441.4
9441.52
9441.81
9442.03
9442.55
9442.86
9443.62
9443.99
9445.03
9445.43
9446.76
9447.17
9448.82
9449.23
9451.2
9451.58
9453.9
9454.23
9456.92
9457.18
9460.26
9460.41
9463.92
9453.75
9453.83
9453.94
9454.23
9454.44
9454.97
9455.25
9456.02
9456.36
9457.41
9457.78
9459.12
9459.51
9461.15
9461.53
9463.5
9463.86
9466.16
9466.48
9469.13
9469.38
9472.42
9472.57
9476.03
9465.53
9465.61
9465.71
9466.01
9466.21
9466.74
9467
9467.78
9468.1
9469.15
9469.5
9470.83
9471.2
9472.83
9473.2
9475.15
9475.5
9477.77
9478.08
9480.71
9480.95
9483.95
9484.09
9487.5
9476.7
9476.77
9476.87
9477.17
9477.36
9477.89
9478.14
9478.92
9479.23
9480.27
9480.61
9481.93
9482.29
9483.9
9484.26
9486.19
9486.52
9488.77
9489.07
9491.67
9491.9
9494.87
9495
9498.37
9487.27
9487.35
9487.45
9487.74
9487.93
9488.45
9488.7
9489.47
9489.77
9490.8
9491.13
9492.44
9492.78
9494.39
9494.73
9496.64
9496.96
9499.19
9499.48
9502.04
9502.27
9505.2
9505.33
9508.65
9497.29
9497.36
9497.46
9497.75
9497.93
9498.45
9498.69
9499.45
9499.75
9500.77
9501.09
9502.39
9502.72
9504.31
9504.64
9506.53
9506.84
9509.05
9509.32
9511.86
9512.08
9514.97
9515.1
9518.38
9506.76
9506.83
9506.93
9507.22
9507.4
9507.9
9508.15
9508.9
9509.18
9510.19
9510.51
9511.79
9512.12
9513.69
9514.01
9515.88
9516.18
9518.36
9518.63
9521.14
9521.35
9524.21
9524.34
9527.57
9515.72
9515.79
9515.89
9516.16
9516.35
9516.84
9517.09
9517.82
9518.11
9519.11
9519.41
9520.68
9521
9522.55
9522.86
9524.71
9525.01
9527.17
9527.43
9529.91
9530.11
9532.94
9533.06
9536.25
9524.18
9524.24
9524.36
9524.6
9524.82
9525.27
9525.55
9526.24
9526.55
9527.51
9527.82
9529.07
9529.38
9530.92
9531.22
9533.05
9533.34
9535.47
9535.72
9538.18
9538.37
9541.17
9541.28
9544.44
9532.17
9532.23
9532.35
9532.57
9532.82
9533.22
9533.54