/*--------------------------------*- C++ -*----------------------------------*\
  =========                 |
  \\      /  F ield         | OpenFOAM: The Open Source CFD Toolbox
   \\    /   O peration     | Website:  https://openfoam.org
    \\  /    A nd           | Version:  10
     \\/     M anipulation  |
\*---------------------------------------------------------------------------*/
FoamFile
{
    format      ascii;
    class       surfaceScalarField;
    location    "0.08";
    object      phi;
}
// * * * * * * * * * * * * * * * * * * * * * * * * * * * * * * * * * * * * * //

dimensions      [1 0 -1 0 0 0 0];

internalField   nonuniform List<scalar> 
8154
(
-2.50461e-08
-8.56379e-08
-1.80399e-07
-3.18213e-07
-4.78879e-07
-6.9844e-07
-9.19145e-07
-1.23002e-06
-1.50198e-06
-1.90783e-06
-2.21985e-06
-2.6985e-06
-3.0502e-06
-3.54515e-06
-3.97671e-06
-4.48578e-06
-5.14788e-06
-5.51632e-06
-6.65552e-06
-6.7813e-06
-8.29429e-06
-7.99034e-06
-7.19586e-06
-0.000280402
-0.000841446
6.19336e-09
-0.00140267
3.84741e-08
-0.00196411
9.46991e-08
-0.00252608
1.78852e-07
-0.00308831
2.81636e-07
-0.00365154
4.13866e-07
-0.00421495
5.5682e-07
-0.00477991
7.26557e-07
-0.00534492
9.0634e-07
-0.00591198
1.09761e-06
-0.00647914
1.31966e-06
-0.00704848
1.51802e-06
-0.00761849
1.79937e-06
-0.00819
2.02108e-06
-0.00876385
2.37392e-06
-0.00933701
2.61492e-06
-0.00991612
2.94524e-06
-0.0104903
3.31744e-06
-0.011076
3.41039e-06
-0.0116509
3.80346e-06
-0.012244
3.75057e-06
-0.0128211
2.87158e-06
-0.0134233
1.53697e-06
-0.000280245
-0.000840971
7.95338e-09
-0.00140187
5.02268e-08
-0.001963
1.25244e-07
-0.00252465
2.2881e-07
-0.00308657
3.65144e-07
-0.00364947
5.17081e-07
-0.00421256
7.09257e-07
-0.00477719
8.88603e-07
-0.00534188
1.13366e-06
-0.00590863
1.31053e-06
-0.00647542
1.60752e-06
-0.00704451
1.7466e-06
-0.00761411
2.08697e-06
-0.00818545
2.19092e-06
-0.00875883
2.53695e-06
-0.00933178
2.7854e-06
-0.00991057
2.87356e-06
-0.0104844
3.42193e-06
-0.0110696
3.75576e-06
-0.0116439
3.78752e-06
-0.0122359
4.24567e-06
-0.0128123
4.15124e-06
-0.0134138
3.61399e-06
-0.000280098
-0.000840523
4.69761e-09
-0.00140113
3.50936e-08
-0.00196195
8.58946e-08
-0.00252329
1.62282e-07
-0.0030849
2.44936e-07
-0.0036475
3.59321e-07
-0.00421025
4.5258e-07
-0.00477462
5.93975e-07
-0.00533889
6.71228e-07
-0.00590545
8.21363e-07
-0.00647173
8.58356e-07
-0.00704072
9.82262e-07
-0.00760973
9.71006e-07
-0.00818101
9.89877e-07
-0.00875395
9.58606e-07
-0.00932642
7.39828e-07
-0.00990535
9.00284e-07
-0.0104784
6.47947e-07
-0.0110634
4.74024e-07
-0.0116376
2.17905e-07
-0.0122288
1.06158e-07
-0.0128043
2.05198e-08
-0.0134025
5.95526e-08
-0.000279958
-0.000840097
9.85936e-09
-0.00140041
5.67002e-08
-0.00196095
1.32979e-07
-0.00252199
2.43182e-07
-0.00308331
3.69041e-07
-0.00364559
5.33681e-07
-0.00420807
6.85591e-07
-0.00477207
8.895e-07
-0.00533611
1.03457e-06
-0.00590224
1.25424e-06
-0.0064683
1.3573e-06
-0.00703685
1.555e-06
-0.00760557
1.59548e-06
-0.00817653
1.69825e-06
-0.00874892
1.6984e-06
-0.00932156
1.53088e-06
-0.00989971
1.79893e-06
-0.0104726
1.06911e-06
-0.0110572
1.18224e-06
-0.0116313
5.86815e-07
-0.0122221
3.40858e-07
-0.0127975
-3.23074e-07
-0.013395
-5.87476e-07
-0.000279832
-0.000839712
2.13936e-08
-0.00139976
9.42041e-08
-0.00196004
2.14286e-07
-0.0025208
3.81646e-07
-0.00308187
5.89564e-07
-0.00364384
8.38255e-07
-0.00420608
1.11272e-06
-0.00476973
1.4168e-06
-0.00533355
1.72648e-06
-0.00589928
2.04927e-06
-0.00646514
2.35631e-06
-0.00703326
2.65099e-06
-0.00760174
2.91498e-06
-0.00817233
3.12578e-06
-0.00874425
3.30914e-06
-0.00931699
3.36672e-06
-0.00989403
3.46617e-06
-0.0104673
3.19927e-06
-0.0110511
2.94945e-06
-0.0116251
2.82161e-06
-0.0122154
2.34567e-06
-0.0127908
1.68479e-06
-0.0133889
9.11298e-07
-0.000279718
-0.000839358
2.63243e-08
-0.00139916
1.10937e-07
-0.0019592
2.52814e-07
-0.00251971
4.51294e-07
-0.00308053
6.98455e-07
-0.00364224
9.94021e-07
-0.00420422
1.32152e-06
-0.00476758
1.68445e-06
-0.00533112
2.05625e-06
-0.00589656
2.4446e-06
-0.00646211
2.81624e-06
-0.00702992
3.17592e-06
-0.00759804
3.49897e-06
-0.00816834
3.76314e-06
-0.00873982
3.98871e-06
-0.00931238
4.07751e-06
-0.00988868
4.16427e-06
-0.0104621
3.87391e-06
-0.0110451
4.00838e-06
-0.0116189
3.24499e-06
-0.0122085
2.85169e-06
-0.0127837
1.93922e-06
-0.0133811
1.18686e-06
-0.000279619
-0.000839061
2.75979e-08
-0.00139867
1.25212e-07
-0.0019585
2.88963e-07
-0.00251881
5.172e-07
-0.00307942
8.01184e-07
-0.00364091
1.14062e-06
-0.00420267
1.51773e-06
-0.00476579
1.93607e-06
-0.00532908
2.36632e-06
-0.00589426
2.81698e-06
-0.00645953
3.24915e-06
-0.00702707
3.67135e-06
-0.00759486
4.04766e-06
-0.00816488
4.367e-06
-0.00873594
4.62858e-06
-0.00930826
4.75402e-06
-0.00988392
4.8387e-06
-0.0104573
4.6097e-06
-0.0110396
4.32678e-06
-0.0116132
3.84279e-06
-0.0122023
3.18579e-06
-0.0127772
2.37432e-06
-0.0133741
1.25254e-06
-0.000279532
-0.000838797
3.24958e-08
-0.00139823
1.42702e-07
-0.00195788
3.26128e-07
-0.002518
5.81323e-07
-0.00307842
8.99194e-07
-0.0036397
1.27911e-06
-0.00420125
1.70225e-06
-0.00476414
2.17169e-06
-0.00532721
2.6564e-06
-0.00589213
3.16436e-06
-0.00645713
3.65382e-06
-0.00702439
4.13271e-06
-0.00759187
4.56098e-06
-0.00816161
4.92652e-06
-0.00873227
5.22594e-06
-0.00930434
5.37399e-06
-0.00987935
5.49142e-06
-0.0104527
5.22464e-06
-0.0110341
5.12745e-06
-0.0116077
4.3629e-06
-0.012196
3.80544e-06
-0.0127707
2.68034e-06
-0.0133669
1.60693e-06
-0.000279457
-0.000838568
3.69897e-08
-0.00139784
1.58304e-07
-0.00195733
3.60369e-07
-0.00251729
6.40952e-07
-0.00307754
9.91247e-07
-0.00363863
1.4084e-06
-0.0042
1.8753e-06
-0.00476268
2.39058e-06
-0.00532553
2.92734e-06
-0.00589022
3.48564e-06
-0.00645498
4.03055e-06
-0.00702197
4.55864e-06
-0.00758914
5.0371e-06
-0.00815861
5.44327e-06
-0.00872887
5.77401e-06
-0.00930071
5.94893e-06
-0.00987509
6.05598e-06
-0.0104484
5.8334e-06
-0.0110289
5.66574e-06
-0.0116025
4.92744e-06
-0.0121901
4.3083e-06
-0.0127645
3.03014e-06
-0.0133598
1.77677e-06
-0.000279393
-0.000838369
4.07253e-08
-0.00139751
1.73626e-07
-0.00195686
3.94613e-07
-0.00251667
7.01073e-07
-0.00307676
1.0834e-06
-0.00363769
1.53847e-06
-0.00419888
2.04785e-06
-0.00476138
2.61019e-06
-0.00532403
3.19643e-06
-0.00588849
3.80732e-06
-0.006453
4.40429e-06
-0.00701975
4.98547e-06
-0.00758662
5.51195e-06
-0.00815582
5.96373e-06
-0.00872569
6.32763e-06
-0.00929727
6.53004e-06
-0.00987108
6.64064e-06
-0.0104443
6.42984e-06
-0.0110239
6.24356e-06
-0.0115975
5.47196e-06
-0.0121841
4.98637e-06
-0.0127584
3.38558e-06
-0.0133527
1.95603e-06
-0.000279334
-0.000838188
4.46647e-08
-0.0013972
1.88667e-07
-0.00195642
4.2773e-07
-0.00251609
7.58785e-07
-0.00307604
1.17175e-06
-0.00363682
1.66256e-06
-0.00419784
2.21227e-06
-0.00476015
2.81812e-06
-0.00532261
3.45071e-06
-0.00588685
4.10899e-06
-0.00645113
4.7541e-06
-0.00701761
5.38221e-06
-0.00758418
5.95308e-06
-0.0081531
6.44553e-06
-0.00872258
6.84115e-06
-0.00929388
7.06708e-06
-0.00986716
7.18011e-06
-0.0104402
6.98724e-06
-0.0110191
6.77589e-06
-0.0115925
5.97738e-06
-0.0121782
5.04103e-06
-0.0127523
3.72319e-06
-0.0133458
2.17364e-06
-0.000279288
-0.000838046
4.84962e-08
-0.00139696
2.03461e-07
-0.00195608
4.60454e-07
-0.00251564
8.15941e-07
-0.00307547
1.25932e-06
-0.00363611
1.78561e-06
-0.00419699
2.37514e-06
-0.00475914
3.0238e-06
-0.00532142
3.7015e-06
-0.00588545
4.40561e-06
-0.00644951
5.09659e-06
-0.00701575
5.76928e-06
-0.00758203
6.38199e-06
-0.00815065
6.91305e-06
-0.00871974
7.33985e-06
-0.00929075
7.59219e-06
-0.00986345
7.71543e-06
-0.0104363
7.51904e-06
-0.0110143
7.2808e-06
-0.0115877
6.45389e-06
-0.0121724
5.60341e-06
-0.0127462
4.04863e-06
-0.0133387
2.35548e-06
-0.000279245
-0.000837911
5.22395e-08
-0.00139673
2.17966e-07
-0.00195575
4.9256e-07
-0.0025152
8.72079e-07
-0.00307492
1.34536e-06
-0.00363543
1.90657e-06
-0.00419617
2.53518e-06
-0.00475816
3.22575e-06
-0.00532027
3.94709e-06
-0.0058841
4.69506e-06
-0.00644794
5.42886e-06
-0.00701394
6.14227e-06
-0.00757995
6.79187e-06
-0.0081483
7.3563e-06
-0.00871702
7.8089e-06
-0.00928773
8.08241e-06
-0.00985995
8.21215e-06
-0.0104325
8.01643e-06
-0.0110098
7.74402e-06
-0.011583
6.88198e-06
-0.0121668
5.98602e-06
-0.0127403
4.34662e-06
-0.0133318
2.53129e-06
-0.000279214
-0.000837813
5.59323e-08
-0.00139656
2.32268e-07
-0.00195551
5.24235e-07
-0.00251487
9.27508e-07
-0.0030745
1.43043e-06
-0.00363489
2.02633e-06
-0.00419552
2.69386e-06
-0.00475735
3.4262e-06
-0.0053193
4.19108e-06
-0.00588293
4.98261e-06
-0.00644656
5.75864e-06
-0.00701231
6.51161e-06
-0.00757803
7.19612e-06
-0.00814608
7.79115e-06
-0.00871441
8.26632e-06
-0.0092848
8.55766e-06
-0.00985646
8.69057e-06
-0.0104288
8.49401e-06
-0.0110053
8.18084e-06
-0.0115782
7.27217e-06
-0.0121611
6.31799e-06
-0.0127343
4.6001e-06
-0.0133247
2.68327e-06
-0.000279187
-0.000837728
5.95482e-08
-0.00139641
2.46297e-07
-0.00195529
5.55325e-07
-0.00251458
9.81937e-07
-0.00307412
1.51398e-06
-0.00363441
2.14399e-06
-0.00419492
2.84981e-06
-0.00475662
3.6233e-06
-0.00531842
4.43105e-06
-0.00588187
5.26536e-06
-0.0064453
6.08266e-06
-0.00701082
6.87361e-06
-0.00757627
7.59093e-06
-0.00814405
8.21339e-06
-0.00871202
8.7074e-06
-0.00928209
9.01252e-06
-0.00985325
9.14714e-06
-0.0104253
8.95209e-06
-0.011001
8.59461e-06
-0.0115738
7.63714e-06
-0.0121557
6.61948e-06
-0.0127285
4.78139e-06
-0.0133179
2.813e-06
-0.000279167
-0.000837666
6.31094e-08
-0.0013963
2.6016e-07
-0.00195513
5.86038e-07
-0.00251435
1.03567e-06
-0.00307382
1.5964e-06
-0.00363402
2.26004e-06
-0.00419442
3.00364e-06
-0.00475598
3.81789e-06
-0.00531763
4.66827e-06
-0.00588089
5.54541e-06
-0.00644411
6.40411e-06
-0.00700938
7.23329e-06
-0.00757455
7.98322e-06
-0.00814202
8.63209e-06
-0.00870962
9.14241e-06
-0.00927934
9.45687e-06
-0.00984997
9.58767e-06
-0.0104217
9.38599e-06
-0.0109966
8.99037e-06
-0.0115691
7.99033e-06
-0.01215
6.90976e-06
-0.0127226
4.97415e-06
-0.0133108
2.9401e-06
-0.000279155
-0.000837627
6.66043e-08
-0.00139623
2.73735e-07
-0.00195502
6.16073e-07
-0.0025142
1.08813e-06
-0.00307361
1.67671e-06
-0.00363373
2.3729e-06
-0.00419404
3.15304e-06
-0.00475548
4.00671e-06
-0.00531699
4.89848e-06
-0.00588008
5.81741e-06
-0.00644311
6.71702e-06
-0.00700815
7.58423e-06
-0.00757306
8.36729e-06
-0.00814025
9.04287e-06
-0.00870748
9.56987e-06
-0.00927687
9.89242e-06
-0.009847
1.00155e-05
-0.0104184
9.79772e-06
-0.0109925
9.37041e-06
-0.0115648
8.33336e-06
-0.0121447
7.19105e-06
-0.012717
5.18837e-06
-0.013304
3.06301e-06
-0.000279147
-0.000837598
7.0021e-08
-0.00139618
2.87047e-07
-0.00195494
6.45504e-07
-0.00251407
1.13945e-06
-0.00307342
1.7551e-06
-0.00363346
2.48282e-06
-0.00419369
3.29819e-06
-0.004755
4.18986e-06
-0.00531637
5.1215e-06
-0.00587928
6.08093e-06
-0.00644211
7.02044e-06
-0.0070069
7.92535e-06
-0.00757153
8.74177e-06
-0.0081384
9.44508e-06
-0.00870525
9.99023e-06
-0.00927428
1.03223e-05
-0.0098439
1.0439e-05
-0.0104149
1.02062e-05
-0.0109883
9.7435e-06
-0.0115603
8.6708e-06
-0.0121391
7.46657e-06
-0.0127111
5.39202e-06
-0.013297
3.17947e-06
-0.000279149
-0.0008376
7.33169e-08
-0.00139618
2.99855e-07
-0.00195493
6.73791e-07
-0.00251403
1.1887e-06
-0.00307335
1.83021e-06
-0.00363334
2.58791e-06
-0.00419349
3.43669e-06
-0.0047547
4.36419e-06
-0.00531595
5.33347e-06
-0.0058787
6.33106e-06
-0.00644134
7.30858e-06
-0.0070059
8.24966e-06
-0.00757026
9.09917e-06
-0.00813682
9.83051e-06
-0.00870331
1.03959e-05
-0.00927197
1.07398e-05
-0.00984108
1.08533e-05
-0.0104117
1.06089e-05
-0.0109843
1.01086e-05
-0.011556
9.00729e-06
-0.0121338
7.74245e-06
-0.0127055
5.59085e-06
-0.0132901
3.29292e-06
-0.000279151
-0.000837604
7.64239e-08
-0.00139618
3.11963e-07
-0.00195492
7.00544e-07
-0.002514
1.23529e-06
-0.00307328
1.90124e-06
-0.0036332
2.68723e-06
-0.00419328
3.56738e-06
-0.00475438
4.52845e-06
-0.0053155
5.53271e-06
-0.00587808
6.56573e-06
-0.00644052
7.57839e-06
-0.00700484
8.5532e-06
-0.00756893
9.43393e-06
-0.00813517
1.01927e-05
-0.00870128
1.07791e-05
-0.00926956
1.11371e-05
-0.00983817
1.12513e-05
-0.0104084
1.0998e-05
-0.0109802
1.04628e-05
-0.0115516
9.34171e-06
-0.0121284
8.02215e-06
-0.0126998
5.79474e-06
-0.0132832
3.4082e-06
-0.000279165
-0.000837641
7.92701e-08
-0.00139623
3.23031e-07
-0.00195498
7.2502e-07
-0.00251406
1.27797e-06
-0.00307333
1.96642e-06
-0.00363321
2.77848e-06
-0.00419323
3.6876e-06
-0.00475423
4.6795e-06
-0.00531525
5.71586e-06
-0.00587766
6.78104e-06
-0.00643993
7.82555e-06
-0.00700401
8.83063e-06
-0.00756783
9.73978e-06
-0.00813375
1.05236e-05
-0.00869949
1.11306e-05
-0.00926737
1.15037e-05
-0.00983544
1.1623e-05
-0.0104053
1.1366e-05
-0.0109763
1.08045e-05
-0.0115474
9.66831e-06
-0.012123
8.30099e-06
-0.0126942
6.00773e-06
-0.0132762
3.53136e-06
-0.000279178
-0.000837677
8.17573e-08
-0.00139629
3.32723e-07
-0.00195504
7.46506e-07
-0.00251412
1.31556e-06
-0.00307336
2.02403e-06
-0.0036332
2.85942e-06
-0.00419316
3.79454e-06
-0.00475407
4.81418e-06
-0.00531497
5.87927e-06
-0.00587722
6.97307e-06
-0.00643931
8.04554e-06
-0.00700315
9.07678e-06
-0.00756671
1.00102e-05
-0.00813231
1.08152e-05
-0.00869768
1.14399e-05
-0.00926516
1.18264e-05
-0.00983274
1.1952e-05
-0.0104021
1.16968e-05
-0.0109724
1.11239e-05
-0.0115431
9.96785e-06
-0.0121177
8.55863e-06
-0.0126886
6.22026e-06
-0.0132693
3.65814e-06
-0.000279201
-0.000837741
8.38254e-08
-0.00139639
3.40758e-07
-0.00195517
7.64356e-07
-0.00251425
1.34691e-06
-0.0030735
2.07232e-06
-0.00363331
2.92764e-06
-0.00419322
3.88523e-06
-0.00475404
4.92895e-06
-0.00531484
6.01916e-06
-0.00587693
7.13777e-06
-0.00643884
8.23434e-06
-0.00700244
9.28753e-06
-0.00756573
1.02409e-05
-0.008131
1.10626e-05
-0.00869599
1.17009e-05
-0.00926305
1.20971e-05
-0.00983009
1.22268e-05
-0.010399
1.19718e-05
-0.0109686
1.13874e-05
-0.0115389
1.02151e-05
-0.0121124
8.77007e-06
-0.0126828
6.40661e-06
-0.0132622
3.77224e-06
-0.000279224
-0.000837806
8.54007e-08
-0.00139649
3.46856e-07
-0.0019553
7.77927e-07
-0.0025144
1.37083e-06
-0.00307364
2.10937e-06
-0.00363342
2.98033e-06
-0.0041933
3.95579e-06
-0.00475403
5.01893e-06
-0.00531473
6.12959e-06
-0.00587667
7.26844e-06
-0.00643841
8.38463e-06
-0.00700177
9.45511e-06
-0.00756481
1.04236e-05
-0.00812976
1.12568e-05
-0.00869439
1.19036e-05
-0.00926105
1.23048e-05
-0.00982759
1.24352e-05
-0.010396
1.21782e-05
-0.0109649
1.15802e-05
-0.0115348
1.03955e-05
-0.0121072
8.90845e-06
-0.0126773
6.51804e-06
-0.0132553
3.83029e-06
-0.000279252
-0.000837887
8.64786e-08
-0.00139662
3.50986e-07
-0.00195547
7.87108e-07
-0.00251459
1.38704e-06
-0.00307384
2.13461e-06
-0.0036336
3.01649e-06
-0.00419343
4.00464e-06
-0.00475408
5.08191e-06
-0.00531468
6.20775e-06
-0.00587646
7.36199e-06
-0.00643803
8.49308e-06
-0.00700115
9.57682e-06
-0.00756392
1.05559e-05
-0.00812853
1.13966e-05
-0.00869278
1.20465e-05
-0.00925901
1.24484e-05
-0.00982503
1.25742e-05
-0.0103929
1.23128e-05
-0.0109611
1.17018e-05
-0.0115305
1.05092e-05
-0.0121019
8.96935e-06
-0.0126715
6.51572e-06
-0.0132482
3.79338e-06
-0.000279283
-0.000837977
8.74223e-08
-0.00139676
3.54574e-07
-0.00195566
7.95069e-07
-0.0025148
1.4011e-06
-0.00307407
2.15654e-06
-0.00363382
3.04805e-06
-0.00419362
4.04775e-06
-0.0047542
5.13825e-06
-0.00531471
6.27918e-06
-0.00587634
7.44956e-06
-0.00643775
8.59793e-06
-0.00700063
9.69829e-06
-0.00756316
1.06934e-05
-0.00812745
1.15473e-05
-0.00869134
1.22078e-05
-0.00925715
1.26166e-05
-0.00982268
1.27457e-05
-0.0103901
1.24872e-05
-0.0109576
1.18751e-05
-0.0115265
1.06892e-05
-0.0120968
9.11599e-06
-0.0126661
6.6172e-06
-0.0132414
3.85613e-06
-0.000279315
-0.00083807
8.79719e-08
-0.00139691
3.56607e-07
-0.00195585
7.9953e-07
-0.00251503
1.40891e-06
-0.00307431
2.16869e-06
-0.00363404
3.06555e-06
-0.00419382
4.07187e-06
-0.00475432
5.17026e-06
-0.00531474
6.32083e-06
-0.00587621
7.50215e-06
-0.00643745
8.66343e-06
-0.00700009
9.77705e-06
-0.00756235
1.07865e-05
-0.0081263
1.16526e-05
-0.00868982
1.23243e-05
-0.0092552
1.274e-05
-0.00982022
1.28729e-05
-0.0103871
1.26153e-05
-0.0109539
1.19994e-05
-0.0115223
1.0811e-05
-0.0120916
9.23403e-06
-0.0126604
6.72679e-06
-0.0132345
3.99191e-06
-0.000279352
-0.000838177
8.80146e-08
-0.00139708
3.56601e-07
-0.00195608
7.99397e-07
-0.0025153
1.40854e-06
-0.00307461
2.16805e-06
-0.00363434
3.06462e-06
-0.00419409
4.07096e-06
-0.00475453
5.16973e-06
-0.00531488
6.32185e-06
-0.00587622
7.5057e-06
-0.0064373
8.67174e-06
-0.00699971
9.79125e-06
-0.00756172
1.0809e-05
-0.00812534
1.16832e-05
-0.00868851
1.23636e-05
-0.00925345
1.27848e-05
-0.00981798
1.29207e-05
-0.0103844
1.26623e-05
-0.0109505
1.2041e-05
-0.0115183
1.0851e-05
-0.0120866
9.26876e-06
-0.012655
6.76167e-06
-0.0132276
3.8058e-06
-0.000279386
-0.000838278
8.75899e-08
-0.00139724
3.54757e-07
-0.00195629
7.95165e-07
-0.00251554
1.40094e-06
-0.00307488
2.15618e-06
-0.0036346
3.04764e-06
-0.00419433
4.04831e-06
-0.00475471
5.14097e-06
-0.00531496
6.28733e-06
-0.00587616
7.46591e-06
-0.00643708
8.62855e-06
-0.00699926
9.74632e-06
-0.00756102
1.07657e-05
-0.0081243
1.16433e-05
-0.00868711
1.233e-05
-0.00925162
1.27569e-05
-0.00981565
1.28978e-05
-0.0103815
1.26407e-05
-0.010947
1.2015e-05
-0.0115143
1.0824e-05
-0.0120815
9.23025e-06
-0.0126494
6.76171e-06
-0.0132208
4.20917e-06
-0.000279426
-0.000838395
8.67269e-08
-0.00139743
3.51167e-07
-0.00195654
7.87061e-07
-0.00251584
1.38659e-06
-0.00307521
2.13402e-06
-0.00363493
3.01617e-06
-0.00419466
4.00637e-06
-0.00475497
5.08748e-06
-0.00531516
6.22201e-06
-0.00587622
7.38855e-06
-0.006437
8.54055e-06
-0.00699895
9.64907e-06
-0.00756047
1.0663e-05
-0.00812342
1.15382e-05
-0.00868587
1.22282e-05
-0.00924994
1.26608e-05
-0.00981347
1.28111e-05
-0.0103788
1.25616e-05
-0.0109436
1.1939e-05
-0.0115103
1.07481e-05
-0.0120765
9.1352e-06
-0.012644
6.69904e-06
-0.013214
3.99559e-06
-0.000279463
-0.000838501
8.54402e-08
-0.0013976
3.45921e-07
-0.00195677
7.75314e-07
-0.0025161
1.36595e-06
-0.0030755
2.10237e-06
-0.00363522
2.97155e-06
-0.00419493
3.94727e-06
-0.00475518
5.01246e-06
-0.0053153
6.13034e-06
-0.00587622
7.27955e-06
-0.00643686
8.41489e-06
-0.00699858
9.50757e-06
-0.00755987
1.0509e-05
-0.0081225
1.13749e-05
-0.0086846
1.20625e-05
-0.00924825
1.24982e-05
-0.0098113
1.26597e-05
-0.0103761
1.24254e-05
-0.0109402
1.182e-05
-0.0115064
1.0644e-05
-0.0120717
9.02888e-06
-0.0126388
6.62775e-06
-0.0132073
3.91305e-06
-0.000279502
-0.000838618
8.37702e-08
-0.00139779
3.3916e-07
-0.00195702
7.60235e-07
-0.0025164
1.33958e-06
-0.00307583
2.06213e-06
-0.00363556
2.91519e-06
-0.00419525
3.87309e-06
-0.00475545
4.91895e-06
-0.0053155
6.01674e-06
-0.00587629
7.14503e-06
-0.00643679
8.25976e-06
-0.00699829
9.3321e-06
-0.00755935
1.03155e-05
-0.00812166
1.11662e-05
-0.00868341
1.18448e-05
-0.00924663
1.2278e-05
-0.00980918
1.24481e-05
-0.0103735
1.22311e-05
-0.0109369
1.16537e-05
-0.0115025
1.05126e-05
-0.0120669
8.93188e-06
-0.0126335
6.55375e-06
-0.0132006
3.86996e-06
-0.000279539
-0.000838725
8.17534e-08
-0.00139796
3.31031e-07
-0.00195725
7.42136e-07
-0.00251667
1.30798e-06
-0.00307613
2.01401e-06
-0.00363586
2.84798e-06
-0.00419554
3.785e-06
-0.00475569
4.80849e-06
-0.00531567
5.88334e-06
-0.00587634
6.98808e-06
-0.0064367
8.07975e-06
-0.00699799
9.12914e-06
-0.00755883
1.00914e-05
-0.00812083
1.09227e-05
-0.00868226
1.15866e-05
-0.00924508
1.20108e-05
-0.00980718
1.21827e-05
-0.010371
1.1979e-05
-0.0109337
1.14311e-05
-0.0114987
1.03334e-05
-0.0120622
8.80078e-06
-0.0126284
6.47671e-06
-0.0131941
3.81923e-06
-0.000279577
-0.000838835
7.94662e-08
-0.00139813
3.21836e-07
-0.00195749
7.21663e-07
-0.00251695
1.27222e-06
-0.00307644
1.95953e-06
-0.00363617
2.77191e-06
-0.00419585
3.68537e-06
-0.00475594
4.68386e-06
-0.00531585
5.7334e-06
-0.00587639
6.81267e-06
-0.00643661
7.87994e-06
-0.00699769
8.90559e-06
-0.00755831
9.84606e-06
-0.00812
1.06569e-05
-0.0086811
1.13036e-05
-0.0092435
1.17147e-05
-0.00980513
1.18812e-05
-0.0103684
1.16827e-05
-0.0109305
1.1158e-05
-0.011495
1.01032e-05
-0.0120575
8.63231e-06
-0.0126233
6.40102e-06
-0.0131876
3.7643e-06
-0.000279613
-0.000838941
7.69756e-08
-0.0013983
3.11822e-07
-0.00195771
6.99341e-07
-0.00251722
1.23315e-06
-0.00307674
1.89988e-06
-0.00363648
2.68843e-06
-0.00419615
3.5758e-06
-0.00475619
4.54662e-06
-0.00531604
5.56824e-06
-0.00587646
6.61985e-06
-0.00643656
7.66122e-06
-0.00699743
8.66257e-06
-0.00755784
9.58173e-06
-0.00811924
1.03734e-05
-0.00868003
1.10042e-05
-0.00924205
1.14021e-05
-0.00980325
1.15604e-05
-0.0103661
1.13605e-05
-0.0109276
1.08472e-05
-0.0114914
9.82257e-06
-0.0120531
8.41294e-06
-0.0126183
6.29102e-06
-0.0131814
3.69417e-06
-0.000279646
-0.000839039
7.43652e-08
-0.00139846
3.01333e-07
-0.00195792
6.75927e-07
-0.00251747
1.19207e-06
-0.00307702
1.83697e-06
-0.00363676
2.60007e-06
-0.00419641
3.45935e-06
-0.0047564
4.40021e-06
-0.00531619
5.39142e-06
-0.00587648
6.41295e-06
-0.00643645
7.42635e-06
-0.00699711
8.40227e-06
-0.00755731
9.30019e-06
-0.00811841
1.00743e-05
-0.00867889
1.06926e-05
-0.00924052
1.10812e-05
-0.00980127
1.12346e-05
-0.0103636
1.10333e-05
-0.0109245
1.0525e-05
-0.0114878
9.51549e-06
-0.0120488
8.13983e-06
-0.0126133
6.07302e-06
-0.0131751
3.59078e-06
-0.000279681
-0.000839139
7.16881e-08
-0.00139862
2.90566e-07
-0.00195814
6.51855e-07
-0.00251773
1.14974e-06
-0.00307731
1.77194e-06
-0.00363705
2.50839e-06
-0.0041967
3.33802e-06
-0.00475664
4.24688e-06
-0.00531638
5.20526e-06
-0.00587656
6.19396e-06
-0.00643641
7.17657e-06
-0.00699688
8.12451e-06
-0.00755688
8.99967e-06
-0.00811769
9.75623e-06
-0.00867787
1.03645e-05
-0.00923912
1.07485e-05
-0.00979945
1.09048e-05
-0.0103613
1.07096e-05
-0.0109217
1.02125e-05
-0.0114845
9.21806e-06
-0.0120446
7.86599e-06
-0.0126086
5.84396e-06
-0.0131691
3.45532e-06
-0.00027971
-0.000839226
6.8985e-08
-0.00139876
2.79697e-07
-0.00195833
6.27529e-07
-0.00251795
1.10689e-06
-0.00307755
1.70594e-06
-0.00363729
2.41507e-06
-0.00419693
3.21399e-06
-0.00475682
4.08944e-06
-0.0053165
5.01299e-06
-0.00587657
5.96632e-06
-0.00643629
6.91494e-06
-0.00699657
7.83146e-06
-0.00755637
8.68026e-06
-0.0081169
9.41653e-06
-0.00867678
1.00137e-05
-0.00923766
1.03949e-05
-0.00979757
1.05603e-05
-0.010359
1.03802e-05
-0.0109188
9.90798e-06
-0.0114811
8.93851e-06
-0.0120404
7.61379e-06
-0.012604
5.62881e-06
-0.0131632
3.27585e-06
-0.000279741
-0.000839317
6.62566e-08
-0.00139891
2.68724e-07
-0.00195852
6.02959e-07
-0.00251818
1.06356e-06
-0.00307781
1.63911e-06
-0.00363755
2.32038e-06
-0.00419718
3.08785e-06
-0.00475703
3.92877e-06
-0.00531666
4.81594e-06
-0.00587662
5.7317e-06
-0.00643624
6.64341e-06
-0.00699633
7.52469e-06
-0.00755594
8.34266e-06
-0.0081162
9.05355e-06
-0.00867579
9.63515e-06
-0.0092363
1.001e-05
-0.0097958
1.01852e-05
-0.0103568
1.00247e-05
-0.010916
9.59179e-06
-0.0114777
8.66424e-06
-0.0120363
7.39297e-06
-0.0125994
5.44787e-06
-0.0131575
3.09828e-06
-0.000279768
-0.000839393
6.34861e-08
-0.00139903
2.57588e-07
-0.00195868
5.7802e-07
-0.00251837
1.01955e-06
-0.00307802
1.57119e-06
-0.00363776
2.22405e-06
-0.00419738
2.95931e-06
-0.00475718
3.76469e-06
-0.00531674
4.61412e-06
-0.0058766
5.49041e-06
-0.00643611
6.36272e-06
-0.00699602
7.20524e-06
-0.00755546
7.98785e-06
-0.00811546
8.66738e-06
-0.00867478
9.22643e-06
-0.00923495
9.58687e-06
-0.00979405
9.7652e-06
-0.0103546
9.61907e-06
-0.0109133
9.22945e-06
-0.0114745
8.35302e-06
-0.0120324
7.16887e-06
-0.0125949
5.3027e-06
-0.0131521
3.07382e-06
-0.000279794
-0.000839471
6.06279e-08
-0.00139916
2.46113e-07
-0.00195885
5.52324e-07
-0.00251856
9.74221e-07
-0.00307824
1.50119e-06
-0.00363797
2.12473e-06
-0.00419758
2.8267e-06
-0.00475733
3.59523e-06
-0.00531684
4.4054e-06
-0.00587659
5.24033e-06
-0.00643599
6.07097e-06
-0.00699573
6.87163e-06
-0.00755499
7.61504e-06
-0.00811474
8.25779e-06
-0.00867379
8.78729e-06
-0.00923363
9.12407e-06
-0.00979234
9.29443e-06
-0.0103525
9.14994e-06
-0.0109106
8.79324e-06
-0.0114714
7.9586e-06
-0.0120284
6.86766e-06
-0.0125905
5.09238e-06
-0.0131466
3.01147e-06
-0.000279818
-0.000839539
5.76197e-08
-0.00139926
2.3403e-07
-0.00195899
5.25271e-07
-0.00251873
9.26491e-07
-0.00307842
1.42748e-06
-0.00363815
2.02013e-06
-0.00419774
2.68692e-06
-0.00475744
3.41654e-06
-0.0053169
4.18496e-06
-0.00587655
4.97607e-06
-0.00643585
5.76187e-06
-0.00699542
6.5178e-06
-0.00755451
7.2175e-06
-0.00811403
7.81985e-06
-0.00867282
8.31218e-06
-0.00923236
8.61955e-06
-0.0097907
8.76738e-06
-0.0103505
8.61474e-06
-0.010908
8.26664e-06
-0.0114684
7.46205e-06
-0.0120247
6.4407e-06
-0.0125863
4.75861e-06
-0.0131414
2.83239e-06
-0.000279839
-0.000839601
5.47238e-08
-0.00139936
2.22391e-07
-0.00195912
4.99227e-07
-0.00251888
8.80579e-07
-0.00307858
1.35666e-06
-0.0036383
1.91976e-06
-0.00419788
2.553e-06
-0.00475753
3.2457e-06
-0.00531693
3.97459e-06
-0.00587648
4.72472e-06
-0.00643566
5.46847e-06
-0.00699507
6.18366e-06
-0.00755398
6.84295e-06
-0.00811326
7.41022e-06
-0.0086718
7.86841e-06
-0.00923103
8.15259e-06
-0.00978901
8.27741e-06
-0.0103484
8.12091e-06
-0.0109055
7.76961e-06
-0.0114655
6.99347e-06
-0.0120211
6.01367e-06
-0.0125823
4.41494e-06
-0.0131363
2.61021e-06
-0.000279859
-0.000839659
5.21569e-08
-0.00139945
2.1208e-07
-0.00195925
4.76183e-07
-0.00251902
8.4002e-07
-0.00307873
1.29426e-06
-0.00363844
1.83159e-06
-0.004198
2.43588e-06
-0.0047576
3.09694e-06
-0.00531696
3.79273e-06
-0.0058764
4.50858e-06
-0.00643549
5.219e-06
-0.00699473
5.90145e-06
-0.00755349
6.53208e-06
-0.00811253
7.07336e-06
-0.00867085
7.51355e-06
-0.00922978
7.78422e-06
-0.00978742
7.9077e-06
-0.0103465
7.75449e-06
-0.010903
7.42342e-06
-0.0114627
6.67214e-06
-0.0120176
5.75004e-06
-0.0125784
4.20617e-06
-0.0131315
2.53624e-06
-0.000279876
-0.000839707
4.94035e-08
-0.00139953
2.01028e-07
-0.00195934
4.51489e-07
-0.00251913
7.96552e-07
-0.00307885
1.22736e-06
-0.00363854
1.73704e-06
-0.00419808
2.31027e-06
-0.00475763
2.93732e-06
-0.00531693
3.59756e-06
-0.00587626
4.2765e-06
-0.00643525
4.95101e-06
-0.00699433
5.598e-06
-0.00755293
6.19754e-06
-0.00811175
6.71017e-06
-0.00866983
7.13067e-06
-0.00922847
7.38611e-06
-0.00978578
7.50939e-06
-0.0103445
7.36019e-06
-0.0109006
7.05368e-06
-0.0114599
6.32667e-06
-0.0120141
5.45232e-06
-0.0125747
3.95555e-06
-0.0131267
2.43404e-06
-0.000279893
-0.000839755
4.64488e-08
-0.00139961
1.89175e-07
-0.00195944
4.25012e-07
-0.00251924
7.49947e-07
-0.00307897
1.15562e-06
-0.00363865
1.63563e-06
-0.00419817
2.17549e-06
-0.00475767
2.76604e-06
-0.00531691
3.3881e-06
-0.00587615
4.02745e-06
-0.00643505
4.66345e-06
-0.00699397
5.27234e-06
-0.00755242
5.8384e-06
-0.00811102
6.31985e-06
-0.00866888
6.71844e-06
-0.00922725
6.95647e-06
-0.00978423
7.07884e-06
-0.0103427
6.9347e-06
-0.0108982
6.66066e-06
-0.0114573
5.96533e-06
-0.0120108
5.14582e-06
-0.0125712
3.66949e-06
-0.0131221
2.23438e-06
-0.000279905
-0.00083979
4.32848e-08
-0.00139966
1.76486e-07
-0.00195951
3.9667e-07
-0.00251932
7.00062e-07
-0.00307904
1.07883e-06
-0.0036387
1.5271e-06
-0.0041982
2.03123e-06
-0.00475764
2.58267e-06
-0.00531683
3.16385e-06
-0.00587597
3.76074e-06
-0.00643477
4.35567e-06
-0.00699355
4.92378e-06
-0.00755186
5.45444e-06
-0.00811025
5.90221e-06
-0.00866789
6.27757e-06
-0.009226
6.49532e-06
-0.00978267
6.61529e-06
-0.0103408
6.47297e-06
-0.0108959
6.23395e-06
-0.0114547
5.57391e-06
-0.0120075
4.8665e-06
-0.0125678
3.62592e-06
-0.0131178
2.10585e-06
-0.000279917
-0.000839823
3.98992e-08
-0.00139971
1.62922e-07
-0.00195958
3.66375e-07
-0.00251939
6.46742e-07
-0.00307911
9.96764e-07
-0.00363875
1.41115e-06
-0.00419823
1.87712e-06
-0.00475762
2.38679e-06
-0.00531676
2.92433e-06
-0.0058758
3.47583e-06
-0.00643451
4.02707e-06
-0.00699313
4.55153e-06
-0.0075513
5.0451e-06
-0.00810949
5.45681e-06
-0.00866693
5.80898e-06
-0.00922479
6.00457e-06
-0.00978114
6.12303e-06
-0.010339
5.97829e-06
-0.0108937
5.76608e-06
-0.0114522
5.13399e-06
-0.0120042
4.55025e-06
-0.0125645
3.2824e-06
-0.0131135
1.94946e-06
-0.000279924
-0.000839844
3.62866e-08
-0.00139974
1.48437e-07
-0.00195962
3.3401e-07
-0.00251942
5.89767e-07
-0.00307914
9.0908e-07
-0.00363875
1.28731e-06
-0.00419821
1.7126e-06
-0.00475754
2.17774e-06
-0.00531663
2.66885e-06
-0.00587558
3.17181e-06
-0.0064342
3.67664e-06
-0.00699268
4.1541e-06
-0.00755072
4.60876e-06
-0.00810872
4.98133e-06
-0.00866596
5.31111e-06
-0.00922361
5.48265e-06
-0.00977965
5.60513e-06
-0.0103373
5.45778e-06
-0.0108915
5.28315e-06
-0.0114499
4.62801e-06
-0.0120012
4.0954e-06
-0.0125612
2.99203e-06
-0.0131096
1.76958e-06
-0.00027993
-0.000839858
3.24404e-08
-0.00139976
1.33011e-07
-0.00195964
2.99515e-07
-0.00251944
5.29041e-07
-0.00307915
8.15575e-07
-0.00363873
1.15533e-06
-0.00419816
1.53738e-06
-0.00475743
1.95522e-06
-0.00531647
2.39717e-06
-0.00587532
2.84849e-06
-0.00643386
3.30434e-06
-0.00699221
3.73105e-06
-0.0075501
4.14515e-06
-0.00810794
4.47474e-06
-0.00866496
4.78346e-06
-0.00922241
4.92651e-06
-0.00977814
5.05928e-06
-0.0103356
4.90268e-06
-0.0108893
4.82082e-06
-0.0114477
4.40379e-06
-0.0119983
3.67743e-06
-0.0125581
2.70864e-06
-0.0131057
1.59536e-06
-0.000279932
-0.000839862
2.83569e-08
-0.00139977
1.16603e-07
-0.00195964
2.6278e-07
-0.00251943
4.64368e-07
-0.00307913
7.1602e-07
-0.00363868
1.01494e-06
-0.00419808
1.35113e-06
-0.00475729
1.7188e-06
-0.00531628
2.10889e-06
-0.00587504
2.50536e-06
-0.0064335
2.91011e-06
-0.00699172
3.28181e-06
-0.00754949
3.65505e-06
-0.00810717
3.93658e-06
-0.00866399
4.22847e-06
-0.00922129
4.3346e-06
-0.00977668
4.4906e-06
-0.0103341
4.33456e-06
-0.0108872
4.25156e-06
-0.0114455
3.80986e-06
-0.0119956
3.25257e-06
-0.0125551
2.4096e-06
-0.0131021
1.41475e-06
-0.000279929
-0.000839854
2.3997e-08
-0.00139975
9.91719e-08
-0.00195961
2.23789e-07
-0.00251938
3.95837e-07
-0.00307906
6.10624e-07
-0.00363858
8.66414e-07
-0.00419794
1.15411e-06
-0.0047571
1.46868e-06
-0.00531603
1.80424e-06
-0.0058747
2.14241e-06
-0.00643306
2.49528e-06
-0.00699118
2.80658e-06
-0.0075488
3.14276e-06
-0.00810637
3.36783e-06
-0.00866295
3.65343e-06
-0.00922016
3.71273e-06
-0.00977519
3.90139e-06
-0.0103325
3.5839e-06
-0.0108852
3.58909e-06
-0.0114432
3.28108e-06
-0.011993
2.80365e-06
-0.0125522
2.08527e-06
-0.0130987
1.2249e-06
-0.000279925
-0.000839838
1.92933e-08
-0.00139972
8.06841e-08
-0.00195957
1.82544e-07
-0.00251931
3.23654e-07
-0.00307897
4.99949e-07
-0.00363845
7.10416e-07
-0.00419778
9.46913e-07