/*--------------------------------*- C++ -*----------------------------------*\
  =========                 |
  \\      /  F ield         | OpenFOAM: The Open Source CFD Toolbox
   \\    /   O peration     | Website:  https://openfoam.org
    \\  /    A nd           | Version:  10
     \\/     M anipulation  |
\*---------------------------------------------------------------------------*/
FoamFile
{
    format      ascii;
    class       volScalarField;
    location    "0.08";
    object      rho;
}
// * * * * * * * * * * * * * * * * * * * * * * * * * * * * * * * * * * * * * //

dimensions      [1 -3 0 0 0 0 0];

internalField   nonuniform List<scalar> 
4176
(
0.0320999
0.0321101
0.0321185
0.032128
0.0321434
0.0321581
0.0321811
0.0322012
0.0322318
0.0322574
0.032295
0.0323269
0.0323701
0.0324094
0.0324561
0.0325056
0.0325521
0.0326152
0.0326584
0.0327385
0.0327746
0.0328751
0.0328963
0.033011
0.0319345
0.0319439
0.0319518
0.0319603
0.0319748
0.0319878
0.0320097
0.0320272
0.0320565
0.0320788
0.0321149
0.0321427
0.0321842
0.0322192
0.0322633
0.0323082
0.0323506
0.0324103
0.0324466
0.0325251
0.0325523
0.0326525
0.0326741
0.0328042
0.031942
0.0319517
0.0319598
0.0319687
0.0319834
0.0319971
0.0320192
0.0320376
0.0320674
0.0320906
0.0321276
0.0321563
0.0321991
0.0322348
0.032281
0.0323265
0.0323709
0.0324323
0.03247
0.0325492
0.032578
0.0326753
0.0326952
0.0328217
0.0319076
0.0319167
0.0319246
0.0319332
0.0319477
0.0319608
0.031983
0.0320005
0.0320304
0.0320522
0.0320898
0.0321164
0.0321602
0.0321936
0.0322407
0.0322848
0.0323278
0.0323906
0.0324256
0.0325048
0.0325336
0.0326295
0.0326483
0.0327627
0.0318956
0.0319048
0.0319125
0.0319213
0.0319355
0.031949
0.0319704
0.0319886
0.0320175
0.0320404
0.0320765
0.0321045
0.0321469
0.0321811
0.0322278
0.0322708
0.0323171
0.0323766
0.0324135
0.0324918
0.0325217
0.0326174
0.0326375
0.0327551
0.0319069
0.0319155
0.031923
0.0319317
0.0319456
0.0319591
0.0319802
0.0319985
0.0320269
0.0320499
0.0320854
0.0321135
0.0321553
0.0321894
0.0322359
0.032278
0.0323257
0.0323816
0.0324219
0.0324973
0.0325285
0.0326226
0.0326438
0.0327623
0.0319177
0.031926
0.0319334
0.031942
0.0319557
0.0319691
0.0319899
0.032008
0.0320361
0.0320589
0.032094
0.0321217
0.0321632
0.0321968
0.0322431
0.0322843
0.0323325
0.0323866
0.032428
0.0325024
0.0325332
0.0326265
0.0326477
0.0327645
0.0319544
0.0319629
0.0319703
0.0319789
0.0319926
0.0320059
0.0320265
0.0320445
0.0320722
0.0320948
0.0321296
0.0321571
0.0321983
0.0322313
0.0322776
0.0323179
0.0323663
0.0324185
0.0324615
0.0325331
0.0325655
0.0326572
0.0326792
0.0327954
0.0319959
0.0320042
0.0320115
0.03202
0.0320334
0.0320466
0.0320669
0.0320847
0.0321121
0.0321344
0.0321688
0.0321959
0.0322367
0.0322692
0.0323151
0.0323546
0.032403
0.0324534
0.0324974
0.0325666
0.0325999
0.03269
0.032712
0.0328266
0.0320562
0.0320644
0.0320716
0.03208
0.0320933
0.0321063
0.0321263
0.0321439
0.032171
0.032193
0.0322269
0.0322536
0.0322939
0.0323258
0.0323714
0.0324099
0.0324584
0.0325067
0.032552
0.0326182
0.0326528
0.0327407
0.0327636
0.0328758
0.0321261
0.0321339
0.032141
0.0321493
0.0321625
0.0321754
0.0321953
0.0322126
0.0322394
0.0322612
0.0322949
0.0323211
0.0323612
0.0323925
0.0324379
0.0324756
0.0325241
0.0325712
0.0326169
0.0326812
0.0327166
0.0328024
0.0328258
0.0329361
0.0322089
0.0322167
0.0322237
0.0322319
0.0322448
0.0322575
0.032277
0.032294
0.0323203
0.0323416
0.0323747
0.0324004
0.0324398
0.0324703
0.0325152
0.0325517
0.0325999
0.0326452
0.0326916
0.0327534
0.0327898
0.0328729
0.0328968
0.0330055
0.0323059
0.0323134
0.0323203
0.0323284
0.0323412
0.0323536
0.032373
0.0323898
0.0324159
0.0324369
0.0324697
0.0324949
0.0325341
0.0325639
0.0326084
0.0326441
0.032692
0.0327359
0.0327826
0.0328416
0.0328788
0.0329591
0.0329834
0.0330892
0.0324118
0.0324193
0.032426
0.032434
0.0324465
0.0324588
0.0324777
0.0324941
0.0325197
0.0325402
0.0325725
0.0325971
0.0326356
0.0326647
0.0327086
0.0327433
0.0327908
0.0328334
0.0328804
0.0329376
0.0329751
0.0330534
0.0330777
0.0331819
0.0325344
0.0325417
0.0325484
0.0325562
0.0325685
0.0325805
0.0325992
0.0326154
0.0326406
0.0326607
0.0326924
0.0327164
0.0327544
0.0327827
0.032826
0.0328595
0.0329065
0.0329473
0.0329944
0.0330485
0.0330868
0.0331617
0.0331863
0.0332873
0.0326641
0.0326713
0.0326778
0.0326855
0.0326976
0.0327093
0.0327276
0.0327434
0.0327682
0.0327878
0.032819
0.0328424
0.0328798
0.0329074
0.0329502
0.0329829
0.0330295
0.0330692
0.0331161
0.0331686
0.0332071
0.0332802
0.0333046
0.0334037
0.0328111
0.0328183
0.0328246
0.0328322
0.032844
0.0328555
0.0328734
0.0328887
0.0329129
0.0329319
0.0329624
0.0329851
0.0330217
0.0330484
0.0330903
0.0331216
0.0331674
0.0332052
0.033252
0.0333012
0.0333404
0.0334098
0.0334347
0.0335302
0.0329655
0.0329724
0.0329787
0.032986
0.0329976
0.0330088
0.0330264
0.0330414
0.0330651
0.0330837
0.0331137
0.0331358
0.0331718
0.0331977
0.0332391
0.0332696
0.0333149
0.0333517
0.033398
0.0334457
0.033485
0.0335521
0.0335773
0.0336703
0.033136
0.033143
0.0331491
0.0331562
0.0331675
0.0331783
0.0331954
0.0332098
0.0332329
0.0332507
0.0332799
0.0333011
0.0333361
0.0333609
0.0334012
0.0334302
0.0334746
0.0335094
0.0335553
0.0335998
0.0336397
0.0337032
0.0337288
0.0338184
0.0333159
0.0333225
0.0333285
0.0333355
0.0333465
0.0333571
0.0333738
0.0333878
0.0334104
0.0334277
0.0334563
0.0334768
0.0335113
0.0335352
0.0335749
0.033603
0.0336467
0.0336803
0.0337255
0.0337683
0.0338081
0.033869
0.0338949
0.0339814
0.0335095
0.0335162
0.033522
0.0335287
0.0335394
0.0335495
0.0335656
0.033579
0.0336009
0.0336174
0.033645
0.0336646
0.0336979
0.0337207
0.0337591
0.0337857
0.0338284
0.03386
0.0339046
0.0339447
0.0339847
0.0340423
0.0340686
0.0341518
0.0337152
0.0337216
0.0337273
0.0337338
0.0337442
0.033754
0.0337697
0.0337826
0.0338039
0.0338198
0.0338468
0.0338656
0.0338982
0.03392
0.0339576
0.033983
0.0340247
0.0340549
0.0340986
0.0341365
0.0341763
0.0342306
0.0342573
0.0343368
0.033932
0.0339385
0.0339439
0.0339502
0.0339601
0.0339695
0.0339845
0.0339969
0.0340173
0.0340324
0.0340584
0.0340762
0.0341076
0.0341283
0.0341647
0.0341887
0.0342293
0.0342577
0.0343005
0.0343363
0.0343759
0.0344273
0.034454
0.0345304
0.0341635
0.0341697
0.034175
0.034181
0.0341906
0.0341996
0.0342141
0.0342259
0.0342457
0.03426
0.0342852
0.0343021
0.0343325
0.034352
0.0343874
0.0344099
0.0344493
0.034476
0.0345177
0.0345508
0.0345902
0.0346377
0.0346646
0.0347367
0.0344042
0.0344104
0.0344155
0.0344212
0.0344304
0.0344389
0.0344529
0.0344639
0.0344829
0.0344965
0.0345207
0.0345365
0.0345659
0.0345842
0.0346185
0.0346397
0.0346779
0.034703
0.0347436
0.034775
0.0348138
0.0348586
0.0348853
0.0349542
0.0346608
0.0346669
0.0346718
0.0346773
0.0346861
0.0346941
0.0347074
0.0347178
0.034736
0.0347487
0.0347718
0.0347866
0.0348148
0.0348318
0.0348647
0.0348843
0.0349211
0.0349441
0.0349835
0.035012
0.0350503
0.0350912
0.0351178
0.0351822
0.0349265
0.0349324
0.0349371
0.0349423
0.0349507
0.0349583
0.034971
0.0349808
0.0349982
0.03501
0.0350323
0.0350461
0.0350732
0.035089
0.0351208
0.035139
0.0351747
0.0351963
0.0352344
0.0352612
0.0352985
0.0353367
0.0353632
0.0354244
0.0352076
0.0352135
0.035218
0.0352229
0.0352309
0.0352379
0.03525
0.035259
0.0352755
0.0352864
0.0353074
0.03532
0.0353457
0.0353601
0.0353903
0.0354069
0.0354409
0.0354604
0.0354971
0.0355211
0.0355575
0.0355918
0.0356182
0.0356752
0.0354991
0.0355048
0.0355091
0.0355138
0.0355214
0.0355279
0.0355394
0.0355478
0.0355636
0.0355736
0.0355937
0.0356053
0.03563
0.0356431
0.0356721
0.0356873
0.0357201
0.0357379
0.0357733
0.0357954
0.0358307
0.0358617
0.0358882
0.0359409
0.0358043
0.0358101
0.0358141
0.0358185
0.0358256
0.0358317
0.0358424
0.0358501
0.0358648
0.0358738
0.0358927
0.0359031
0.0359262
0.0359379
0.0359653
0.0359787
0.0360098
0.0360255
0.0360594
0.0360789
0.0361132
0.0361406
0.0361665
0.0362155
0.0361222
0.0361278
0.0361316
0.0361358
0.0361425
0.0361481
0.0361582
0.0361652
0.0361792
0.0361874
0.0362053
0.0362146
0.0362367
0.0362471
0.0362731
0.0362849
0.0363146
0.0363285
0.0363609
0.0363781
0.0364111
0.0364351
0.036461
0.036505
0.0364518
0.0364574
0.036461
0.0364648
0.036471
0.0364761
0.0364855
0.0364917
0.0365047
0.0365119
0.0365286
0.0365367
0.0365573
0.0365663
0.0365908
0.0366009
0.0366289
0.0366407
0.0366716
0.0366864
0.0367181
0.0367391
0.0367646
0.0368045
0.0367962
0.0368016
0.036805
0.0368085
0.0368143
0.0368189
0.0368277
0.0368333
0.0368454
0.0368517
0.0368674
0.0368744
0.0368937
0.0369013
0.0369244
0.0369328
0.0369592
0.036969
0.0369981
0.0370103
0.0370405
0.037058
0.0370833
0.0371181
0.0371508
0.0371561
0.0371593
0.0371625
0.0371679
0.0371719
0.03718
0.0371848
0.0371959
0.0372013
0.0372158
0.0372217
0.0372397
0.037246
0.0372676
0.0372744
0.0372994
0.0373072
0.0373347
0.0373448
0.0373733
0.0373881
0.0374129
0.0374435
0.0375213
0.0375265
0.0375295
0.0375324
0.0375373
0.0375409
0.0375483
0.0375524
0.0375626
0.0375671
0.0375804
0.0375851
0.0376017
0.0376065
0.0376266
0.0376316
0.0376549
0.0376605
0.0376864
0.0376935
0.0377205
0.0377316
0.0377559
0.0377813
0.0379017
0.0379068
0.0379096
0.0379123
0.0379167
0.0379198
0.0379266
0.03793
0.0379393
0.0379429
0.0379552
0.0379587
0.0379741
0.0379776
0.0379963
0.0379998
0.0380216
0.0380254
0.0380498
0.0380549
0.0380803
0.0380886
0.0381119
0.0381329
0.0382979
0.0383029
0.0383055
0.0383079
0.0383119
0.0383145
0.0383206
0.0383232
0.0383316
0.0383342
0.0383452
0.0383476
0.0383615
0.0383635
0.0383805
0.0383821
0.0384022
0.0384038
0.0384265
0.0384288
0.0384528
0.0384578
0.0384798
0.038496
0.0387051
0.03871
0.0387124
0.0387146
0.0387182
0.0387203
0.0387258
0.0387278
0.0387354
0.0387371
0.0387471
0.0387484
0.0387611
0.0387617
0.0387774
0.0387774
0.0387961
0.0387957
0.0388169
0.038817
0.0388395
0.0388416
0.0388625
0.0388739
0.0391268
0.0391317
0.0391339
0.0391358
0.039139
0.0391406
0.0391453
0.0391467
0.0391533
0.0391541
0.0391629
0.0391629
0.0391742
0.0391733
0.0391874
0.0391855
0.0392024
0.0391999
0.0392194
0.0392168
0.0392378
0.0392369
0.0392568
0.0392635
0.0395614
0.0395662
0.0395682
0.0395699
0.0395726
0.0395739
0.039578
0.0395787
0.0395845
0.0395844
0.0395922
0.0395912
0.0396013
0.0395991
0.0396117
0.0396082
0.0396236
0.0396189
0.0396368
0.0396316
0.0396511
0.0396469
0.0396657
0.039668
0.0400092
0.0400139
0.0400157
0.0400171
0.0400194
0.0400202
0.0400236
0.0400236
0.0400284
0.0400274
0.0400341
0.0400319
0.0400406
0.040037
0.0400482
0.0400429
0.0400567
0.0400498
0.0400661
0.0400583
0.0400763
0.0400691
0.0400865
0.0400855
0.0404714
0.040476
0.0404777
0.0404788
0.0404807
0.040481
0.0404838
0.0404831
0.0404871
0.0404852
0.0404908
0.0404875
0.040495
0.04049
0.0404997
0.0404927
0.0405049
0.0404958
0.0405106
0.0404998
0.0405164
0.0405054
0.0405217
0.040516
0.0409459
0.0409505
0.0409519
0.0409528
0.0409543
0.0409541
0.0409562
0.0409548
0.040958
0.0409552
0.0409597
0.0409553
0.0409615
0.0409551
0.0409635
0.0409547
0.0409656
0.0409544
0.0409679
0.0409545
0.0409699
0.0409556
0.0409709
0.0409608
0.0414356
0.0414402
0.0414414
0.041442
0.041443
0.0414423
0.0414438
0.0414417
0.0414439
0.0414403
0.0414436
0.041438
0.0414429
0.041435
0.0414418
0.0414313
0.0414406
0.0414271
0.0414392
0.0414227
0.041437
0.0414188
0.0414334
0.0414183
0.0419379
0.0419423
0.0419433
0.0419437
0.0419443
0.0419432
0.041944
0.0419413
0.0419426
0.0419381
0.0419404
0.0419337
0.0419373
0.0419281
0.0419336
0.0419214
0.0419294
0.0419138
0.0419245
0.0419055
0.0419188
0.0418971
0.0419112
0.0418917
0.0424549
0.0424593
0.0424601
0.0424601
0.0424603
0.0424587
0.0424587
0.0424553
0.0424557
0.0424502
0.0424513
0.0424435
0.0424457
0.042435
0.0424389
0.0424249
0.0424312
0.0424134
0.0424227
0.0424006
0.042413
0.0423874
0.0424013
0.0423767
0.0429855
0.0429898
0.0429904
0.0429902
0.0429899
0.0429879
0.0429873
0.0429833
0.0429828
0.0429765
0.0429765
0.0429675
0.0429685
0.0429565
0.042959
0.0429433
0.0429483
0.0429282
0.0429362
0.0429113
0.0429228
0.0428933
0.0429074
0.0428773
0.0435297
0.043534
0.0435344
0.0435339
0.0435331
0.0435307
0.0435293
0.0435246
0.0435231
0.0435159
0.0435147
0.0435045
0.0435041
0.0434906
0.0434917
0.0434742
0.0434777
0.0434552
0.0434621
0.043434
0.0434448
0.043411
0.0434257
0.0433907
0.0440889
0.044093
0.0440932
0.0440925
0.0440913
0.0440884
0.0440863
0.044081
0.0440786
0.0440705
0.0440682
0.0440569
0.0440553
0.0440404
0.0440401
0.0440207
0.0440229
0.043998
0.0440038
0.0439724
0.0439828
0.0439443
0.0439591
0.043919
0.0446605
0.0446646
0.0446646
0.0446636
0.0446619
0.0446586
0.0446558
0.0446498
0.0446465
0.0446375
0.044634
0.0446216
0.0446187
0.0446023
0.0446007
0.0445794
0.0445804
0.044553
0.044558
0.0445233
0.0445339
0.0444907
0.0445055
0.0444609
0.0452476
0.0452516
0.0452514
0.0452502
0.0452481
0.0452443
0.0452409
0.0452342
0.04523
0.0452201
0.0452155
0.045202
0.0451978
0.0451798
0.045177
0.0451536
0.0451535
0.0451233
0.0451277
0.0450888
0.0450998
0.0450521
0.0450664
0.0450172
0.0458469
0.0458508
0.0458504
0.045849
0.0458464
0.0458422
0.0458381
0.0458308
0.0458257
0.0458149
0.0458094
0.0457946
0.0457894
0.0457699
0.0457661
0.0457406
0.0457398
0.0457066
0.0457111
0.0456682
0.0456788
0.0456278
0.0456414
0.045588
0.0464613
0.0464651
0.0464646
0.0464629
0.0464599
0.0464552
0.0464504
0.0464425
0.0464365
0.0464248
0.0464183
0.0464022
0.046396
0.0463747
0.04637
0.046342
0.0463409
0.0463042
0.0463086
0.0462621
0.0462717
0.0462174
0.0462303
0.0461726
0.047088
0.0470918
0.0470911
0.0470892
0.0470857
0.0470808
0.0470753
0.0470668
0.0470601
0.0470475
0.0470401
0.0470227
0.0470159
0.0469926
0.0469878
0.0469567
0.0469561
0.0469156
0.0469197
0.0468708
0.046879
0.0468218
0.0468338
0.046772
0.0477288
0.0477326
0.0477316
0.0477296
0.0477257
0.0477204
0.0477142
0.0477051
0.0476976
0.047684
0.0476761
0.0476569
0.04765
0.047624
0.0476195
0.0475852
0.0475842
0.0475417
0.0475442
0.0474931
0.0474999
0.0474399
0.047451
0.0473854
0.0483823
0.0483861
0.048385
0.0483828
0.0483785
0.0483729
0.0483661
0.0483565
0.0483485
0.0483337
0.0483257
0.0483045
0.048298
0.0482691
0.0482646
0.0482285
0.048226
0.048182
0.0481829
0.0481298
0.0481352
0.0480724
0.0480825
0.048013
0.0490488
0.0490526
0.0490511
0.049049
0.0490441
0.0490385
0.049031
0.0490208
0.0490126
0.0489961
0.0489885
0.0489653
0.0489582
0.0489284
0.0489222
0.0488852
0.0488811
0.0488358
0.0488351
0.0487802
0.0487842
0.048719
0.0487283
0.0486553
0.0497282
0.049732
0.0497301
0.0497283
0.0497225
0.0497171
0.0497089
0.0496982
0.0496896
0.0496724
0.0496637
0.04964
0.0496316
0.0496011
0.0495936
0.0495556
0.0495499
0.0495033
0.0495009
0.0494443
0.0494469
0.0493791
0.0493875
0.0493109
0.0504197
0.0504236
0.0504215
0.0504195
0.0504135
0.0504079
0.0503988
0.0503886
0.0503787
0.0503614
0.0503517
0.0503275
0.050318
0.0502868
0.050278
0.0502392
0.0502321
0.0501844
0.0501806
0.0501225
0.0501238
0.0500538
0.0500614
0.0499816
0.0511235
0.0511274
0.0511254
0.0511231
0.051117
0.051111
0.0511014
0.0510915
0.0510796
0.0510632
0.0510521
0.0510275
0.051017
0.0509852
0.050975
0.0509355
0.0509269
0.0508783
0.050873
0.0508134
0.0508134
0.0507413
0.0507479
0.0506649
0.0518395
0.0518433
0.0518413
0.0518389
0.0518327
0.0518265
0.0518165
0.0518065
0.0517935
0.0517779
0.0517646
0.0517409
0.051729
0.0516967
0.0516855
0.0516454
0.0516354
0.051586
0.0515793
0.0515184
0.0515171
0.0514431
0.0514489
0.0513631
0.0525669
0.0525706
0.0525686
0.052566
0.0525597
0.0525534
0.052543
0.052533
0.052519
0.0525039
0.0524888
0.0524661
0.052452
0.0524199
0.0524075
0.0523669
0.0523555
0.0523053
0.0522973
0.0522354
0.0522329
0.0521572
0.0521621
0.0520736
0.0533066
0.0533103
0.0533082
0.0533056
0.0532991
0.0532928
0.0532821
0.053272
0.0532574
0.0532425
0.0532261
0.0532039
0.053188
0.0531568
0.0531426
0.0531017
0.0530891
0.0530382
0.053029
0.0529659
0.0529623
0.0528849
0.052889
0.052798
0.0540569
0.0540606
0.0540585
0.0540559
0.0540492
0.0540428
0.0540318
0.0540216
0.0540065
0.0539918
0.0539743
0.0539525
0.0539351
0.0539043
0.0538885
0.0538474
0.0538337
0.0537823
0.0537718
0.053708
0.0537032
0.0536245
0.0536278
0.0535346
0.0548197
0.0548234
0.0548213
0.0548187
0.0548118
0.0548054
0.054794
0.0547838
0.0547681
0.0547536
0.0547351
0.0547136
0.0546948
0.0546642
0.0546467
0.054606
0.0545909
0.0545389
0.0545273
0.0544625
0.0544566
0.0543765
0.054379
0.0542838
0.055593
0.0555967
0.0555945
0.0555919
0.0555849
0.0555784
0.0555667
0.0555565
0.0555402
0.0555258
0.0555063
0.055485
0.055465
0.0554345
0.0554161
0.0553747
0.0553587
0.0553062
0.0552936
0.055228
0.0552211
0.05514
0.0551417
0.0550447
0.0563786
0.0563823
0.05638
0.0563774
0.0563701
0.0563636
0.0563515
0.0563412
0.0563243
0.0563098
0.0562892
0.0562682
0.0562469
0.0562164
0.0561968
0.0561551
0.0561381
0.0560849
0.0560712
0.0560049
0.0559969
0.0559149
0.0559158
0.0558172
0.0571749
0.0571786
0.0571761
0.0571735
0.0571659
0.0571593
0.0571467
0.0571362
0.0571187
0.0571041
0.0570824
0.0570616
0.0570389
0.0570085
0.0569876
0.0569457
0.0569277
0.0568739
0.0568591
0.0567922
0.0567833
0.0567004
0.0567005
0.0566006
0.0579829
0.0579866
0.0579839
0.0579812
0.0579732
0.0579663
0.0579532
0.0579424
0.0579241
0.0579093
0.0578863
0.0578656
0.0578415
0.0578112
0.0577889
0.0577468
0.0577278
0.0576732
0.0576575
0.0575901
0.0575801
0.0574966
0.057496
0.057395
0.0588011
0.0588049
0.0588019
0.058799
0.0587907
0.0587834
0.0587697
0.0587584
0.0587393
0.058724
0.0587
0.0586794
0.0586534
0.0586236
0.0585994
0.0585575
0.0585372
0.0584821
0.0584655
0.0583977
0.0583867
0.0583026
0.0583012
0.0581993
0.0596295
0.0596332
0.0596301
0.0596269
0.0596181
0.0596104
0.0595961
0.0595843
0.0595643
0.0595486
0.0595234
0.0595028
0.0594751
0.0594458
0.0594195
0.0593782
0.0593558
0.0593014
0.0592838
0.0592155
0.0592036
0.0591192
0.0591171
0.0590146
0.0604657
0.0604693
0.0604661
0.0604626
0.0604536
0.0604455
0.0604306
0.0604184
0.0603977
0.0603816
0.0603554
0.0603347
0.0603052
0.0602766
0.0602481
0.0602078
0.0601835
0.0601294
0.0601107
0.0600423
0.0600296
0.059945
0.0599422
0.0598393
0.0613085
0.0613122
0.0613089
0.0613054
0.0612963
0.061288
0.0612729
0.0612605
0.0612393
0.061223
0.0611962
0.0611754
0.0611447
0.0611168
0.0610862
0.0610473
0.0610208
0.0609678
0.0609477
0.0608795
0.060866
0.0607815
0.0607783
0.0606752
0.0621549
0.0621585
0.0621554
0.062152
0.0621431
0.062135
0.06212
0.0621079
0.0620867
0.0620707
0.0620436
0.0620232
0.0619918
0.0619647
0.0619326
0.061895
0.0618664
0.0618149
0.0617929
0.0617261
0.0617118
0.0616275
0.061624
0.0615209
0.063004
0.0630077
0.063005
0.063002
0.0629936
0.0629862
0.0629719
0.0629605
0.0629401
0.0629249
0.0628984
0.0628789
0.0628476
0.0628216
0.0627887
0.0627529
0.0627226
0.0626728
0.0626496
0.0625828
0.0625686
0.0624845
0.0624809
0.0623781
0.0638535
0.0638574
0.0638551
0.0638528
0.0638452
0.0638389
0.0638257
0.0638158
0.0637966
0.063783
0.0637577
0.0637399
0.0637096
0.0636854
0.0636528
0.0636189
0.0635878
0.0635403
0.0635155
0.0634502
0.0634355
0.0633515
0.063348
0.0632454
0.0647056
0.0647096
0.064708
0.0647065
0.0647
0.0646951
0.0646833
0.0646752
0.0646577
0.0646462
0.0646228
0.0646073
0.0645788
0.0645568
0.0645257
0.0644943
0.0644636
0.0644187
0.0643934
0.0643298
0.0643146
0.0642304
0.064227
0.0641243
0.0655615
0.0655658
0.0655647
0.0655641
0.0655585
0.065555
0.0655447
0.0655384
0.0655227
0.0655135
0.0654921
0.0654793
0.0654529
0.0654338
0.065405
0.0653764
0.0653476
0.0653056
0.0652814
0.0652199
0.0652056
0.0651212
0.0651181
0.0650141
0.0664282
0.066433
0.0664318
0.0664322
0.0664269
0.0664248
0.0664151
0.0664105
0.0663959
0.0663888
0.066369
0.0663585
0.066334
0.0663175
0.0662916
0.0662649
0.0662403
0.0661992
0.0661797
0.0661189
0.0661087
0.066025
0.0660231
0.0659183
0.0673118
0.0673172
0.0673151
0.0673169
0.0673102
0.06731
0.0672987
0.0672963
0.0672806
0.0672754
0.0672554
0.0672468
0.0672231
0.067208
0.0671858
0.0671569
0.0671407
0.0670948
0.0670858
0.0670216
0.0670189
0.066937
0.0669388
0.0668394
0.0682225
0.0682275
0.0682261
0.0682261
0.0682204
0.0682176
0.0682073
0.0682021
0.068187
0.0681798
0.0681597
0.0681502
0.0681257
0.068112
0.0680883
0.0680603
0.0680458
0.0680003
0.0679931
0.0679307
0.0679316
0.0678513
0.0678578
0.0677659
0.0691676
0.0691722
0.0691703
0.0691693
0.0691622
0.0691576
0.0691453
0.0691378
0.0691202
0.0691102
0.0690875
0.0690751
0.0690481
0.0690327
0.0690038
0.0689795
0.0689576
0.0689147
0.0689064
0.068843
0.0688461
0.0687638
0.0687737
0.0686819
0.070155
0.0701593
0.0701564
0.0701542
0.070145
0.0701381
0.0701228
0.070112
0.0700904
0.0700763
0.0700491
0.0700319
0.0699999
0.0699796
0.069945
0.0699176
0.0698888
0.0698454
0.0698316
0.0697645
0.0697681
0.0696807
0.0696929
0.069597
0.0711869
0.0711915
0.0711871
0.0711838
0.0711722
0.071163
0.071144
0.0711297
0.0711032
0.0710844
0.071051
0.0710281
0.0709889
0.0709618
0.0709192
0.0708847
0.0708482
0.0707968
0.0707773
0.0707014
0.0707026
0.0706065
0.0706195
0.0705151
0.0722654
0.0722702
0.0722645
0.0722603
0.0722466
0.0722351
0.0722127
0.0721953
0.0721636
0.0721411
0.0721001
0.0720731
0.072024
0.0719907
0.0719388
0.0718939
0.0718496
0.0717837
0.0717567
0.0716674
0.0716614
0.0715519
0.0715626
0.0714444
0.0733859
0.07339
0.0733848
0.0733785
0.0733643
0.0733501
0.0733264
0.0733047
0.0732715
0.0732426
0.0731998
0.0731638
0.0731119
0.0730689
0.0730087
0.0729582
0.0728955
0.0728254
0.0727809
0.0726788
0.0726586
0.0725305
0.0725333
0.0723933
0.0745437
0.0745476
0.0745422
0.0745353
0.0745204
0.074505
0.07448
0.0744565
0.0744212
0.0743897
0.074344
0.0743044
0.0742484
0.0742002
0.0741345
0.0740766
0.0740034
0.0739318
0.0738602
0.07376
0.0737134
0.0735679
0.0735545
0.0733817
0.0757295
0.0757332
0.0757279
0.0757208
0.0757057
0.0756899
0.0756645
0.0756403
0.0756043
0.0755717
0.075525
0.0754837
0.0754263
0.0753755
0.0753077
0.0752461
0.0751693
0.0750929
0.0750113
0.0749123
0.0748369
0.0746941
0.0746538
0.0744438
0.0769362
0.0769399
0.0769349
0.0769279
0.0769131
0.0768975
0.0768725
0.0768485
0.076813
0.0767805
0.0767344
0.0766931
0.0766363
0.0765854
0.0765182
0.0764564
0.0763801
0.0763034
0.0762216
0.0761234
0.0760425
0.0759072
0.0758498
0.0756277
0.0781538
0.0781578
0.078153
0.0781466
0.0781323
0.0781174
0.0780932
0.0780701
0.0780358
0.0780045
0.0779598
0.0779199
0.077865
0.0778158
0.077751
0.0776912
0.0776178
0.0775435
0.0774669
0.0773694
0.0773005
0.0771634
0.0771225
0.0769272
0.079376
0.0793801
0.0793758
0.0793699
0.0793565
0.0793425
0.0793195
0.0792978
0.0792651
0.0792354
0.079193
0.0791551
0.079103
0.0790562
0.0789949
0.0789381
0.0788688
0.0787986
0.0787268
0.0786346
0.0785715
0.0784417
0.0784037
0.0782227
0.0805941
0.0805985
0.0805945
0.0805894
0.0805768
0.0805641
0.0805425
0.0805223
0.0804915
0.0804639
0.080424
0.0803886
0.0803397
0.0802959
0.0802385
0.0801852
0.0801205
0.080055
0.0799881
0.079902
0.0798437
0.0797232
0.0796878
0.0795202
0.0818032
0.0818081
0.0818044
0.0818002
0.0817884
0.0817771
0.0817568
0.0817385
0.0817096
0.0816845
0.0816469
0.0816146
0.0815686
0.0815285
0.0814748
0.0814256
0.0813655
0.081305
0.081243
0.0811627
0.0811101
0.0809986
0.0809655
0.0808114
0.0829975
0.0830028
0.0829988
0.0829962
0.0829845
0.0829754
0.0829557
0.0829402
0.0829123
0.0828908
0.0828545
0.0828266
0.0827824
0.0827473
0.0826962
0.0826522
0.0825962
0.0825409
0.082484
0.08241
0.0823615
0.0822597
0.082229
0.0820883
0.0841733
0.0841787
0.0841751
0.0841736
0.0841623
0.0841551
0.0841361
0.0841234
0.0840964
0.0840786
0.0840434
0.0840203
0.0839772
0.0839481
0.0838982
0.0838613
0.0838072
0.0837581
0.0837062
0.0836381
0.0835939
0.0835017
0.0834733
0.0833457
0.0853264
0.0853318
0.0853291
0.0853274
0.0853184
0.0853107
0.0852952
0.085282
0.0852596
0.0852414
0.0852115
0.0851887
0.0851513
0.0851234
0.0850793
0.085045
0.0849963
0.0849527
0.0849038
0.084843
0.0848027
0.08472
0.0846938
0.0845789
0.0864544
0.0864597
0.0864577
0.0864562
0.0864487
0.0864415
0.0864282
0.0864159
0.0863965
0.0863792
0.0863535
0.0863314
0.0862994
0.0862725
0.0862344
0.0862021
0.0861591
0.0861195
0.0860745
0.0860225
0.0859846
0.085911
0.0858868
0.0857842
0.0875547
0.08756
0.0875586
0.0875574
0.0875511
0.0875447
0.0875332
0.087522
0.0875051
0.0874893
0.0874669
0.0874466
0.0874186
0.0873939
0.0873605
0.087331
0.0872929
0.0872576
0.0872167
0.0871725
0.0871366
0.0870719
0.08705
0.0869593
0.0886252
0.0886305
0.0886295
0.0886287
0.0886234
0.0886179
0.088608
0.088598
0.0885833
0.0885691
0.0885496
0.0885313
0.0885069
0.0884846
0.0884553
0.088429
0.0883954
0.0883642
0.0883278
0.0882895
0.0882557
0.0882006
0.0881807
0.0881012
0.089665
0.0896702
0.0896697
0.0896693
0.0896649
0.0896602
0.0896518
0.0896431
0.0896304
0.0896178
0.0896009
0.0895846
0.0895635
0.0895437
0.0895182
0.0894949
0.0894656
0.0894384
0.0894063
0.0893735
0.0893421
0.0892958
0.089278
0.0892093
0.0906721
0.0906772
0.090677
0.090677
0.0906735
0.0906696
0.0906625
0.0906549
0.0906442
0.0906332
0.0906187
0.0906044
0.0905862
0.0905689
0.0905469
0.0905267
0.0905012
0.0904777
0.0904497
0.0904218
0.0903938
0.0903559
0.090339
0.0902807
0.0916468
0.0916517
0.0916519
0.0916523
0.0916495
0.0916464
0.0916405
0.0916341
0.0916251
0.0916156
0.0916034
0.0915911
0.0915756
0.0915607
0.0915419
0.0915246
0.0915026
0.0914828
0.0914585
0.0914352
0.0914109
0.0913803
0.0913648
0.0913159
0.0925871
0.0925919
0.0925924
0.092593
0.092591
0.0925886
0.0925838
0.0925786
0.0925711
0.0925632
0.0925529
0.0925426
0.0925295
0.092517
0.0925011
0.0924867
0.092468
0.0924517
0.092431
0.0924119
0.092391
0.0923668
0.092353
0.0923125
0.0934943
0.093499
0.0934997
0.0935007
0.0934993
0.0934976
0.0934939
0.0934897
0.0934836
0.0934772
0.0934687
0.0934603
0.0934494
0.0934392
0.0934259
0.0934143
0.0933986
0.0933857
0.0933682
0.0933532
0.0933358
0.0933166
0.0933043
0.0932724
0.0943666
0.0943712
0.0943721
0.0943734
0.0943725
0.0943715
0.0943687
0.0943655
0.0943607
0.0943557
0.0943489
0.0943423
0.0943334
0.0943255
0.0943145
0.0943056
0.0942925
0.0942828
0.0942683
0.0942572
0.0942428
0.0942285
0.0942178
0.0941938
0.095206
0.0952104
0.0952115
0.0952131
0.0952127
0.0952123
0.0952103
0.0952082
0.0952045
0.0952008
0.0951955
0.0951906
0.0951835
0.0951777
0.0951689
0.0951625
0.0951519
0.0951451
0.0951332
0.0951256
0.0951139
0.0951038
0.0950958
0.0950785
0.0960108
0.096015
0.0960163
0.0960181
0.0960181
0.0960183
0.096017
0.0960159
0.0960132
0.0960109
0.0960069
0.0960036
0.0959982
0.0959944
0.0959875
0.0959835
0.0959751
0.0959712
0.0959618
0.0959575
0.0959483
0.0959422
0.0959362
0.0959253
0.0967833
0.0967874
0.0967888
0.0967908
0.0967913
0.096792
0.0967913
0.0967911
0.0967893
0.0967882
0.0967854
0.0967837
0.0967798
0.0967778
0.0967727
0.0967709
0.0967647
0.0967633
0.0967562
0.096755
0.0967482
0.0967459
0.0967422
0.0967362
0.0975222
0.0975261
0.0975276
0.0975297
0.0975306
0.0975318
0.0975318
0.0975323
0.0975314
0.0975314
0.0975297
0.0975294
0.0975269
0.0975267
0.0975232
0.0975235
0.0975191
0.0975201
0.0975152
0.0975168
0.0975121
0.0975135
0.0975115
0.0975105
0.09823
0.0982337
0.0982353
0.0982377
0.0982388
0.0982405
0.098241
0.0982423
0.0982421
0.0982432
0.0982425
0.0982435
0.0982422
0.0982435
0.0982416
0.0982436
0.0982411
0.0982442
0.0982411
0.0982453
0.0982425
0.0982471
0.0982466
0.0982502
0.0989056
0.0989091
0.0989108
0.0989133
0.0989147
0.0989168
0.0989178
0.0989197
0.0989203
0.0989222
0.0989225
0.0989246
0.0989245
0.0989272
0.0989267
0.0989304
0.0989294
0.0989344
0.0989331
0.0989397
0.0989384
0.098946
0.0989467
0.0989545
0.0995518
0.0995551
0.0995568
0.0995594
0.0995611
0.0995635
0.099565
0.0995675
0.0995687
0.0995714
0.0995726
0.0995757
0.0995767
0.0995806
0.0995814
0.0995865
0.0995869
0.0995937
0.0995938
0.0996025
0.0996026
0.0996128
0.0996145
0.0996259
0.100167
0.100171
0.100172
0.100175
0.100177
0.10018
0.100182
0.100185
0.100186
0.10019
0.100192
0.100196
0.100198
0.100203
0.100205
0.100211
0.100213
0.100221
0.100223
0.100233
0.100234
0.100247
0.10025
0.100264
0.100755
0.100758
0.10076
0.100763
0.100765
0.100768
0.10077
0.100774
0.100776
0.10078
0.100783
0.100788
0.100791
0.100797
0.100799
0.100807
0.10081
0.10082
0.100822
0.100834
0.100837
0.100851
0.100855
0.100872
0.101315
0.101318
0.10132
0.101322
0.101325
0.101328
0.101331
0.101334
0.101337
0.101342
0.101345
0.101351
0.101354
0.101361
0.101365
0.101374
0.101377
0.101388
0.101392
0.101406
0.101409
0.101426
0.101429
0.10145
0.101849
0.101851
0.101853
0.101856
0.101859
0.101862
0.101865
0.101869
0.101872
0.101878
0.101881
0.101888
0.101892
0.1019
0.101904
0.101914
0.101918
0.101931
0.101935
0.10195
0.101954
0.101972
0.101977
0.101999
0.102356
0.102359
0.102361
0.102363
0.102366
0.10237
0.102373
0.102377
0.102381
0.102387
0.102391
0.102398
0.102403
0.102411
0.102416
0.102427
0.102432
0.102445
0.10245
0.102467
0.102471
0.102491
0.102496
0.102521
0.10284
0.102842
0.102844
0.102847
0.10285
0.102854
0.102857
0.102862
0.102866
0.102872
0.102876
0.102884
0.102889
0.102899
0.102904
0.102916
0.102921
0.102936
0.102941
0.102959
0.102963
0.102985
0.10299
0.103016
0.103299
0.103301
0.103303
0.103306
0.103309
0.103313
0.103316
0.103322
0.103326
0.103333
0.103337
0.103346
0.103351
0.103361
0.103367
0.10338
0.103385
0.103401
0.103406
0.103425
0.103431
0.103453
0.103458
0.103486
0.103737
0.103739
0.103741
0.103744
0.103746
0.103751
0.103754
0.10376
0.103764
0.103771
0.103776
0.103785
0.103791
0.103802
0.103808
0.103821
0.103827
0.103843
0.103849
0.103869
0.103875
0.103899
0.103904
0.103933
0.104152
0.104154
0.104156
0.104159
0.104162
0.104166
0.10417
0.104176
0.10418
0.104188
0.104193
0.104202
0.104208
0.104219
0.104226
0.10424
0.104246
0.104263
0.10427
0.10429
0.104296
0.104321
0.104326
0.104357
0.104547
0.104549
0.104551
0.104554
0.104557
0.104562
0.104565
0.104571
0.104576
0.104584
0.104589
0.104599
0.104605
0.104617
0.104623
0.104638
0.104645
0.104662
0.104669
0.10469
0.104696
0.104722
0.104728
0.104759
0.104923
0.104924
0.104926
0.104929
0.104932
0.104937
0.10494
0.104947
0.104951
0.10496
0.104965
0.104975
0.104981
0.104994
0.105
0.105015
0.105022
0.10504
0.105047
0.105069
0.105076
0.105102
0.105108
0.10514
0.10528
0.105281
0.105283
0.105286
0.105289
0.105294
0.105297
0.105304
0.105309
0.105317
0.105323
0.105333
0.105339
0.105352
0.105359
0.105374
0.105381
0.1054
0.105407
0.105429
0.105436
0.105462
0.105468
0.105501
0.105618
0.10562
0.105622
0.105625
0.105627
0.105632
0.105636
0.105643
0.105648
0.105656
0.105662
0.105672
0.105679
0.105692
0.105699
0.105714
0.105722
0.10574
0.105747
0.10577
0.105777