/*--------------------------------*- C++ -*----------------------------------*\
  =========                 |
  \\      /  F ield         | OpenFOAM: The Open Source CFD Toolbox
   \\    /   O peration     | Website:  https://openfoam.org
    \\  /    A nd           | Version:  10
     \\/     M anipulation  |
\*---------------------------------------------------------------------------*/
FoamFile
{
    format      ascii;
    class       volScalarField;
    location    "0.08";
    object      T;
}
// * * * * * * * * * * * * * * * * * * * * * * * * * * * * * * * * * * * * * //

dimensions      [0 0 0 1 0 0 0];

internalField   nonuniform List<scalar> 
4176
(
186.552
186.515
186.519
186.533
186.555
186.583
186.619
186.658
186.707
186.757
186.818
186.878
186.95
187.023
187.104
187.193
187.275
187.389
187.464
187.616
187.668
187.875
187.878
188.117
186.357
186.321
186.326
186.341
186.364
186.392
186.429
186.469
186.52
186.571
186.634
186.696
186.771
186.846
186.929
187.021
187.104
187.225
187.296
187.46
187.507
187.728
187.733
188.019
186.114
186.078
186.083
186.097
186.12
186.148
186.184
186.223
186.273
186.322
186.386
186.445
186.52
186.592
186.675
186.765
186.846
186.966
187.034
187.195
187.237
187.456
187.462
187.735
185.82
185.786
185.792
185.806
185.829
185.856
185.893
185.932
185.981
186.03
186.094
186.153
186.229
186.3
186.384
186.473
186.552
186.678
186.74
186.907
186.945
187.163
187.164
187.441
185.677
185.644
185.65
185.664
185.687
185.714
185.75
185.789
185.839
185.888
185.951
186.01
186.086
186.156
186.241
186.329
186.41
186.533
186.598
186.758
186.804
187.014
187.02
187.277
185.474
185.444
185.449
185.464
185.485
185.514
185.548
185.588
185.635
185.685
185.745
185.806
185.878
185.95
186.033
186.119
186.203
186.321
186.384
186.552
186.589
186.805
186.806
187.071
185.386
185.357
185.362
185.377
185.397
185.426
185.459
185.5
185.546
185.597
185.655
185.716
185.788
185.859
185.941
186.027
186.113
186.226
186.297
186.452
186.499
186.706
186.716
186.977
185.293
185.264
185.269
185.284
185.304
185.332
185.365
185.405
185.45
185.5
185.557
185.618
185.688
185.759
185.839
185.923
186.009
186.118
186.188
186.347
186.386
186.598
186.601
186.862
185.268
185.241
185.246
185.26
185.28
185.308
185.34
185.38
185.423
185.473
185.529
185.589
185.657
185.727
185.807
185.889
185.975
186.079
186.154
186.301
186.349
186.55
186.561
186.815
185.263
185.236
185.241
185.255
185.275
185.303
185.335
185.374
185.417
185.467
185.523
185.583
185.651
185.72
185.799
185.881
185.967
186.071
186.146
186.293
186.34
186.541
186.551
186.804
185.3
185.275
185.28
185.294
185.313
185.341
185.371
185.41
185.451
185.5
185.553
185.612
185.677
185.745
185.821
185.901
185.984
186.082
186.159
186.298
186.348
186.543
186.554
186.804
185.379
185.353
185.358
185.372
185.391
185.419
185.449
185.487
185.529
185.578
185.631
185.689
185.754
185.822
185.898
185.976
186.06
186.156
186.234
186.368
186.419
186.609
186.622
186.864
185.478
185.454
185.459
185.473
185.491
185.518
185.547
185.585
185.624
185.672
185.723
185.779
185.842
185.908
185.981
186.058
186.139
186.233
186.31
186.441
186.493
186.68
186.692
186.933
185.632
185.608
185.612
185.626
185.644
185.671
185.699
185.737
185.776
185.823
185.873
185.929
185.99
186.055
186.127
186.202
186.282
186.372
186.449
186.572
186.626
186.804
186.818
187.05
185.791
185.768
185.773
185.787
185.804
185.83
185.857
185.893
185.931
185.977
186.026
186.081
186.14
186.204
186.274
186.348
186.426
186.515
186.592
186.714
186.767
186.943
186.956
187.187
186.012
185.989
185.994
186.007
186.024
186.049
186.076
186.111
186.148
186.193
186.24
186.293
186.351
186.412
186.48
186.55
186.627
186.71
186.787
186.9
186.954
187.12
187.134
187.356
186.233
186.211
186.216
186.229
186.245
186.27
186.296
186.331
186.366
186.41
186.456
186.509
186.565
186.626
186.693
186.762
186.837
186.921
186.996
187.109
187.162
187.326
187.339
187.559
186.513
186.492
186.496
186.508
186.524
186.548
186.573
186.606
186.64
186.682
186.726
186.776
186.83
186.888
186.951
187.017
187.089
187.167
187.241
187.344
187.399
187.554
187.567
187.778
186.799
186.778
186.782
186.794
186.81
186.833
186.857
186.89
186.924
186.965
187.008
187.057
187.11
187.167
187.23
187.295
187.366
187.443
187.515
187.618
187.671
187.822
187.836
188.042
187.131
187.111
187.115
187.127
187.141
187.163
187.186
187.217
187.249
187.288
187.328
187.375
187.425
187.478
187.538
187.599
187.666
187.738
187.809
187.903
187.957
188.101
188.115
188.313
187.484
187.463
187.467
187.478
187.492
187.514
187.536
187.567
187.597
187.636
187.675
187.721
187.77
187.822
187.88
187.94
188.006
188.076
188.144
188.236
188.289
188.426
188.441
188.632
187.865
187.846
187.849
187.86
187.873
187.894
187.914
187.943
187.971
188.008
188.044
188.087
188.133
188.182
188.237
188.293
188.356
188.422
188.488
188.575
188.627
188.759
188.773
188.959
188.281
188.262
188.265
188.275
188.288
188.308
188.328
188.355
188.383
188.418
188.453
188.494
188.539
188.586
188.639
188.692
188.753
188.816
188.879
188.96
189.011
189.134
189.149
189.325
188.713
188.694
188.697
188.707
188.718
188.737
188.755
188.781
188.807
188.839
188.873
188.911
188.953
188.997
189.048
189.098
189.157
189.216
189.277
189.355
189.405
189.524
189.538
189.709
189.188
189.17
189.172
189.181
189.192
189.21
189.227
189.252
189.276
189.307
189.338
189.375
189.414
189.455
189.503
189.55
189.605
189.659
189.718
189.788
189.837
189.946
189.959
190.12
189.672
189.654
189.656
189.665
189.674
189.691
189.707
189.73
189.753
189.782
189.812
189.845
189.883
189.922
189.968
190.012
190.065
190.117
190.173
190.242
190.288
190.394
190.406
190.562
190.201
190.183
190.184
190.193
190.202
190.217
190.232
190.253
190.274
190.3
190.327
190.358
190.393
190.428
190.471
190.51
190.56
190.606
190.659
190.719
190.765
190.861
190.872
191.018
190.74
190.722
190.723
190.731
190.739
190.753
190.767
190.787
190.806
190.831
190.857
190.886
190.919
190.952
190.993
191.029
191.078
191.121
191.171
191.23
191.273
191.364
191.374
191.514
191.316
191.299
191.3
191.307
191.314
191.327
191.339
191.357
191.374
191.396
191.419
191.445
191.475
191.503
191.541
191.573
191.617
191.655
191.702
191.754
191.794
191.877
191.886
192.018
191.912
191.894
191.895
191.901
191.908
191.92
191.931
191.948
191.964
191.984
192.006
192.029
192.058
192.084
192.12
192.149
192.191
192.226
192.27
192.318
192.356
192.432
192.44
192.563
192.533
192.516
192.516
192.522
192.527
192.538
192.547
192.562
192.576
192.594
192.613
192.633
192.658
192.68
192.713
192.737
192.776
192.806
192.847
192.889
192.924
192.994
193.001
193.117
193.184
193.167
193.167
193.172
193.177
193.187
193.195
193.209
193.221
193.237
193.255
193.272
193.296
193.315
193.345
193.366
193.402
193.428
193.466
193.503
193.535
193.597
193.603
193.709
193.849
193.833
193.832
193.837
193.84
193.849
193.856
193.867
193.878
193.891
193.907
193.921
193.943
193.958
193.986
194.002
194.036
194.057
194.092
194.125
194.154
194.212
194.216
194.316
194.552
194.536
194.535
194.539
194.542
194.55
194.555
194.565
194.574
194.586
194.599
194.611
194.63
194.642
194.667
194.679
194.71
194.726
194.758
194.784
194.81
194.858
194.862
194.95
195.263
195.247
195.246
195.249
195.251
195.258
195.262
195.271
195.278
195.287
195.299
195.308
195.326
195.334
195.358
195.366
195.395
195.407
195.436
195.459
195.482
195.526
195.528
195.61
196.014
195.998
195.996
195.999
196
196.006
196.009
196.015
196.021
196.028
196.037
196.043
196.058
196.063
196.083
196.087
196.112
196.119
196.145
196.16
196.18
196.217
196.217
196.288
196.773
196.757
196.755
196.757
196.758
196.762
196.764
196.77
196.774
196.779
196.787
196.791
196.804
196.806
196.825
196.825
196.849
196.852
196.876
196.888
196.905
196.937
196.934
196.997
197.566
197.55
197.548
197.55
197.549
197.552
197.553
197.557
197.559
197.562
197.568
197.568
197.579
197.576
197.592
197.588
197.609
197.606
197.627
197.633
197.647
197.672
197.666
197.722
198.374
198.358
198.356
198.357
198.356
198.359
198.358
198.361
198.362
198.363
198.368
198.366
198.375
198.37
198.385
198.377
198.396
198.389
198.408
198.408
198.42
198.439
198.431
198.477
199.207
199.192
199.189
199.189
199.187
199.189
199.187
199.188
199.188
199.186
199.189
199.184
199.191
199.182
199.194
199.182
199.198
199.186
199.203
199.198
199.207
199.221
199.211
199.25
200.063
200.048
200.044
200.045
200.042
200.043
200.041
200.04
200.039
200.035
200.037
200.029
200.035
200.023
200.033
200.017
200.031
200.014
200.029
200.018
200.025
200.031
200.018
200.049
200.936
200.921
200.917
200.917
200.914
200.914
200.91
200.908
200.905
200.9
200.899
200.889
200.893
200.878
200.886
200.866
200.879
200.858
200.87
200.854
200.859
200.861
200.845
200.87
201.837
201.822
201.818
201.817
201.814
201.812
201.808
201.804
201.8
201.793
201.791
201.778
201.78
201.762
201.768
201.744
201.754
201.727
201.738
201.715
201.718
201.711
201.694
201.71
202.751
202.737
202.733
202.732
202.727
202.725
202.72
202.714
202.709
202.7
202.697
202.682
202.683
202.661
202.666
202.639
202.648
202.617
202.626
202.599
202.601
202.588
202.569
202.578
203.693
203.679
203.674
203.672
203.667
203.664
203.658
203.651
203.644
203.633
203.628
203.611
203.609
203.584
203.587
203.555
203.563
203.526
203.534
203.499
203.5
203.479
203.46
203.46
204.65
204.636
204.632
204.63
204.624
204.62
204.613
204.605
204.597
204.584
204.578
204.558
204.556
204.528
204.53
204.495
204.501
204.46
204.467
204.428
204.427
204.4
204.38
204.372
205.629
205.615
205.611
205.608
205.601
205.596
205.588
205.579
205.57
205.555
205.547
205.524
205.52
205.489
205.489
205.449
205.454
205.408
205.414
205.367
205.367
205.332
205.313
205.296
206.629
206.616
206.611
206.607
206.601
206.595
206.586
206.575
206.565
206.548
206.54
206.515
206.509
206.475
206.474
206.431
206.435
206.384
206.389
206.336
206.336
206.293
206.274
206.248
207.644
207.631
207.625
207.622
207.614
207.607
207.597
207.585
207.574
207.555
207.545
207.518
207.511
207.473
207.471
207.424
207.426
207.37
207.375
207.317
207.316
207.266
207.249
207.214
208.684
208.67
208.665
208.661
208.653
208.645
208.634
208.621
208.609
208.588
208.577
208.547
208.539
208.499
208.496
208.444
208.446
208.384
208.389
208.323
208.324
208.263
208.247
208.204
209.734
209.721
209.715
209.711
209.702
209.694
209.682
209.667
209.654
209.632
209.62
209.587
209.579
209.535
209.531
209.475
209.477
209.41
209.416
209.343
209.346
209.278
209.262
209.212
210.809
210.796
210.791
210.786
210.776
210.767
210.755
210.739
210.725
210.7
210.687
210.652
210.643
210.595
210.591
210.53
210.532
210.458
210.465
210.384
210.388
210.312
210.297
210.239
211.894
211.882
211.876
211.871
211.861
211.851
211.838
211.821
211.806
211.78
211.767
211.729
211.719
211.668
211.664
211.599
211.602
211.522
211.531
211.443
211.448
211.367
211.35
211.286
213.001
212.989
212.983
212.977
212.967
212.956
212.942
212.924
212.909
212.88
212.866
212.825
212.816
212.76
212.757
212.686
212.691
212.604
212.614
212.52
212.524
212.437
212.42
212.349
214.12
214.108
214.102
214.096
214.085
214.074
214.06
214.04
214.025
213.994
213.98
213.937
213.928
213.868
213.867
213.789
213.797
213.704
213.715
213.616
213.62
213.527
213.51
213.432
215.255
215.244
215.237
215.231
215.22
215.208
215.193
215.172
215.156
215.124
215.11
215.063
215.056
214.99
214.991
214.909
214.917
214.82
214.83
214.727
214.73
214.633
214.615
214.532
216.404
216.393
216.386
216.38
216.369
216.356
216.341
216.319
216.303
216.268
216.256
216.205
216.199
216.13
216.132
216.045
216.053
215.953
215.962
215.855
215.857
215.755
215.737
215.647
217.566
217.555
217.548
217.542
217.53
217.517
217.501
217.478
217.463
217.426
217.415
217.36
217.355
217.284
217.285
217.196
217.203
217.101
217.109
216.999
217.001
216.895
216.877
216.782
218.741
218.73
218.723
218.717
218.704
218.692
218.675
218.652
218.636
218.598
218.586
218.53
218.525
218.451
218.452
218.361
218.367
218.262
218.27
218.157
218.158
218.047
218.029
217.928
219.927
219.917
219.909
219.903
219.891
219.878
219.861
219.838
219.821
219.783
219.771
219.714
219.708
219.633
219.634
219.541
219.547
219.44
219.447
219.332
219.332
219.219
219.2
219.095
221.123
221.113
221.106
221.1
221.087
221.074
221.057
221.034
221.016
220.978
220.964
220.908
220.901
220.825
220.825
220.731
220.736
220.627
220.634
220.516
220.516
220.399
220.38
220.271
222.332
222.323
222.316
222.309
222.297
222.283
222.266
222.244
222.224
222.188
222.172
222.116
222.109
222.032
222.032
221.937
221.942
221.831
221.838
221.717
221.717
221.597
221.578
221.465
223.548
223.538
223.532
223.525
223.513
223.499
223.482
223.459
223.439
223.403
223.387
223.332
223.323
223.246
223.246
223.15
223.154
223.042
223.049
222.927
222.926
222.804
222.785
222.668
224.777
224.768
224.761
224.754
224.743
224.729
224.712
224.689
224.669
224.633
224.616
224.561
224.551
224.475
224.474
224.377
224.382
224.268
224.275
224.151
224.15
224.025
224.007
223.886
226.01
226.001
225.995
225.988
225.977
225.963
225.946
225.923
225.903
225.868
225.85
225.796
225.785
225.709
225.708
225.61
225.615
225.501
225.507
225.382
225.382
225.255
225.237
225.114
227.256
227.248
227.242
227.235
227.224
227.209
227.193
227.169
227.15
227.114
227.096
227.043
227.031
226.956
226.953
226.856
226.861
226.745
226.751
226.625
226.624
226.496
226.478
226.352
228.507
228.499
228.493
228.486
228.475
228.461
228.445
228.421
228.402
228.366
228.348
228.294
228.283
228.207
228.205
228.107
228.112
227.996
228.002
227.874
227.874
227.745
227.727
227.599
229.768
229.761
229.755
229.748
229.737
229.723
229.707
229.683
229.664
229.628
229.609
229.556
229.543
229.468
229.465
229.367
229.372
229.254
229.261
229.133
229.132
229.002
228.984
228.855
231.036
231.028
231.022
231.016
231.005
230.99
230.974
230.949
230.931
230.894
230.875
230.822
230.809
230.734
230.73
230.631
230.637
230.519
230.525
230.397
230.396
230.265
230.247
230.116
232.311
232.304
232.298
232.291
232.28
232.265
232.249
232.224
232.205
232.168
232.148
232.095
232.081
232.006
232.002
231.904
231.909
231.79
231.797
231.668
231.667
231.536
231.519
231.387
233.591
233.584
233.578
233.571
233.56
233.544
233.528
233.502
233.483
233.445
233.425
233.372
233.357
233.283
233.277
233.179
233.184
233.065
233.072
232.942
232.942
232.81
232.793
232.661
234.876
234.87
234.864
234.856
234.845
234.828
234.812
234.785
234.766
234.728
234.708
234.654
234.638
234.565
234.558
234.461
234.465
234.347
234.354
234.225
234.224
234.093
234.076
233.944
236.16
236.154
236.149
236.14
236.13
236.112
236.097
236.069
236.05
236.011
235.991
235.938
235.92
235.848
235.84
235.745
235.746
235.631
235.637
235.508
235.508
235.377
235.361
235.229
237.445
237.439
237.434
237.426
237.416
237.398
237.383
237.356
237.338
237.298
237.279
237.226
237.208
237.138
237.127
237.036
237.035
236.922
236.927
236.799
236.799
236.67
236.654
236.522
238.722
238.717
238.712
238.704
238.695
238.678
238.664
238.637
238.621
238.582
238.564
238.512
238.495
238.426
238.415
238.326
238.324
238.214
238.217
238.093
238.093
237.965
237.95
237.819
239.995
239.99
239.986
239.979
239.971
239.956
239.944
239.918
239.904
239.867
239.851
239.801
239.786
239.72
239.709
239.624
239.62
239.514
239.516
239.394
239.394
239.267
239.253
239.124
241.256
241.252
241.249
241.243
241.237
241.224
241.215
241.191
241.18
241.146
241.133
241.086
241.074
241.011
241.003
240.921
240.918
240.817
240.818
240.699
240.7
240.574
240.561
240.432
242.516
242.512
242.511
242.506
242.502
242.49
242.484
242.463
242.455
242.424
242.415
242.372
242.364
242.305
242.3
242.223
242.221
242.125
242.127
242.013
242.014
241.889
241.877
241.748
243.773
243.77
243.769
243.765
243.763
243.753
243.749
243.731
243.726
243.699
243.693
243.654
243.649
243.595
243.594
243.522
243.525
243.433
243.439
243.328
243.333
243.209
243.2
243.07
245.04
245.038
245.037
245.036
245.033
245.026
245.022
245.007
245.003
244.979
244.975
244.94
244.938
244.888
244.892
244.821
244.833
244.74
244.756
244.646
244.658
244.537
244.532
244.406
246.325
246.324
246.323
246.321
246.319
246.311
246.308
246.293
246.289
246.266
246.263
246.23
246.228
246.182
246.188
246.118
246.137
246.044
246.068
245.958
245.978
245.861
245.862
245.744
247.644
247.642
247.642
247.638
247.636
247.626
247.622
247.605
247.601
247.575
247.571
247.536
247.533
247.488
247.491
247.425
247.442
247.352
247.378
247.27
247.295
247.179
247.186
247.075
249.001
249
248.998
248.993
248.989
248.977
248.971
248.95
248.942
248.912
248.904
248.866
248.858
248.811
248.806
248.743
248.75
248.664
248.686
248.578
248.604
248.486
248.497
248.386
250.409
250.408
250.405
250.399
250.392
250.377
250.366
250.342
250.328
250.294
250.279
250.235
250.219
250.166
250.152
250.085
250.082
249.993
250.007
249.894
249.919
249.794
249.808
249.69
251.865
251.864
251.859
251.852
251.842
251.824
251.81
251.781
251.761
251.722
251.698
251.649
251.622
251.562
251.536
251.461
251.446
251.346
251.35
251.225
251.244
251.107
251.12
250.989
253.371
253.37
253.365
253.356
253.345
253.324
253.306
253.273
253.249
253.204
253.173
253.117
253.081
253.013
252.974
252.891
252.858
252.749
252.735
252.596
252.601
252.445
252.453
252.299
254.916
254.915
254.91
254.899
254.887
254.864
254.844
254.808
254.781
254.732
254.697
254.635
254.592
254.517
254.467
254.378
254.325
254.214
254.172
254.027
254.006
253.828
253.822
253.634
256.494
256.493
256.489
256.478
256.465
256.441
256.421
256.383
256.354
256.304
256.266
256.201
256.154
256.076
256.019
255.926
255.86
255.749
255.68
255.539
255.482
255.294
255.262
255.03
258.09
258.089
258.085
258.074
258.062
258.038
258.017
257.981
257.951
257.901
257.862
257.799
257.75
257.672
257.612
257.52
257.449
257.338
257.258
257.121
257.039
256.858
256.798
256.531
259.696
259.696
259.692
259.682
259.67
259.648
259.628
259.593
259.564
259.516
259.478
259.417
259.368
259.295
259.234
259.147
259.075
258.969
258.888
258.757
258.674
258.498
258.435
258.171
261.297
261.297
261.293
261.284
261.273
261.253
261.234
261.202
261.174
261.13
261.093
261.037
260.99
260.922
260.863
260.782
260.713
260.615
260.538
260.414
260.34
260.17
260.118
259.878
262.886
262.887
262.884
262.876
262.866
262.848
262.83
262.801
262.775
262.736
262.701
262.65
262.605
262.544
262.488
262.416
262.349
262.261
262.188
262.075
262.006
261.85
261.802
261.582
264.452
264.454
264.451
264.445
264.436
264.42
264.404
264.378
264.354
264.32
264.286
264.243
264.2
264.146
264.093
264.029
263.966
263.889
263.82
263.718
263.655
263.513
263.468
263.268
265.992
265.994
265.992
265.987
265.979
265.966
265.951
265.93
265.907
265.878
265.846
265.809
265.768
265.723
265.672
265.618
265.558
265.491
265.427
265.335
265.278
265.15
265.108
264.927
267.497
267.5
267.498
267.495
267.487
267.478
267.463
267.447
267.424
267.402
267.371
267.342
267.301
267.266
267.216
267.173
267.115
267.058
266.998
266.919
266.865
266.752
266.712
266.55
268.966
268.969
268.967
268.966
268.959
268.952
268.939
268.926
268.905
268.887
268.858
268.836
268.797
268.77
268.722
268.688
268.633
268.587
268.53
268.462
268.411
268.313
268.275
268.131
270.393
270.397
270.396
270.395
270.39
270.384
270.374
270.362
270.346
270.33
270.306
270.287
270.253
270.231
270.187
270.16
270.109
270.072
270.018
269.962
269.914
269.83
269.794
269.667
271.777
271.781
271.781
271.781
271.777
271.772
271.764
271.755
271.742
271.729
271.708
271.693
271.663
271.645
271.607
271.585
271.539
271.51
271.459
271.416
271.37
271.298
271.264
271.154
273.117
273.121
273.121
273.122
273.12
273.117
273.111
273.104
273.092
273.083
273.065
273.054
273.028
273.014
272.981
272.964
272.923
272.901
272.854
272.821
272.776
272.718
272.686
272.592
274.41
274.414
274.415
274.417
274.415
274.414
274.409
274.405
274.395
274.389
274.373
274.366
274.343
274.334
274.304
274.293
274.256
274.241
274.198
274.174
274.131
274.086
274.054
273.975
275.658
275.662
275.663
275.666
275.665
275.665
275.662
275.66
275.652
275.649
275.636
275.632
275.612
275.607
275.581
275.575
275.542
275.532
275.494
275.477
275.437
275.403
275.373
275.309
276.857
276.861
276.863
276.866
276.866
276.868
276.865
276.865
276.859
276.859
276.848
276.847
276.831
276.829
276.807
276.805
276.776
276.771
276.737
276.727
276.69
276.667
276.638
276.586
278.011
278.016
278.018
278.021
278.023
278.025
278.024
278.026
278.021
278.023
278.015
278.016
278.003
278.005
277.986
277.987
277.962
277.962
277.932
277.928
277.895
277.881
277.852
277.813
279.117
279.121
279.124
279.128
279.13
279.133
279.133
279.136
279.134
279.137
279.131
279.135
279.125
279.129
279.113
279.118
279.097
279.101
279.075
279.076
279.046
279.04
279.013
278.984
280.179
280.184
280.186
280.191
280.193
280.198
280.199
280.203
280.202
280.207
280.203
280.209
280.201
280.208
280.196
280.203
280.186
280.193
280.171
280.176
280.15
280.15
280.124
280.107
281.194
281.198
281.201
281.206
281.209
281.214
281.216
281.222
281.222
281.229
281.227
281.234
281.229
281.238
281.228
281.238
281.224
281.234
281.216
281.225
281.203
281.208
281.184
281.176
282.168
282.172
282.175
282.18
282.184
282.189
282.192
282.199
282.2
282.208
282.208
282.216
282.214
282.224
282.218
282.229
282.219
282.231
282.216
282.229
282.209
282.219
282.198
282.197
283.095
283.099
283.102
283.108
283.112
283.118
283.122
283.129
283.132
283.14
283.142
283.152
283.151
283.163
283.159
283.172
283.164
283.179
283.167
283.183
283.167
283.181
283.162
283.169
283.983
283.987
283.991
283.996
284.001
284.007
284.012
284.019
284.024
284.033
284.036
284.047
284.048
284.061
284.059
284.074
284.069
284.086
284.076
284.095
284.081
284.1
284.082
284.095
284.828
284.832
284.835
284.841
284.846
284.852
284.858
284.866
284.871
284.881
284.885
284.897
284.9
284.914
284.914
284.93
284.927
284.946
284.939
284.96
284.949
284.971
284.956
284.974
285.636
285.64
285.643
285.649
285.654
285.661
285.667
285.675
285.681
285.691
285.697
285.709
285.714
285.728
285.731
285.748
285.747
285.767
285.762
285.786
285.776
285.802
285.788
285.811
286.403
286.407
286.41
286.416
286.421
286.428
286.434
286.443
286.45
286.461
286.467
286.48
286.485
286.501
286.504
286.523
286.524
286.546
286.542
286.568
286.56
286.588
286.576
286.603
287.136
287.14
287.143
287.149
287.154
287.161
287.168
287.177
287.184
287.195
287.202
287.216
287.222
287.238
287.243
287.262
287.264
287.288
287.285
287.313
287.306
287.337
287.325
287.356
287.831
287.834
287.838
287.843
287.849
287.856
287.863
287.872
287.879
287.891
287.898
287.913
287.919
287.937
287.942
287.962
287.965
287.989
287.989
288.017
288.012
288.045
288.034
288.069
288.494
288.497
288.501
288.506
288.512
288.519
288.526
288.535
288.543
288.555
288.563
288.577
288.585
288.602
288.608
288.629
288.633
288.658
288.659
288.688
288.684
288.719
288.709
288.745
289.122
289.125
289.128
289.134
289.139
289.146
289.153
289.163
289.171
289.182
289.191
289.205
289.214
289.231
289.238
289.259
289.265
289.29
289.292
289.322
289.319
289.355
289.346
289.385
289.721
289.724
289.727
289.732
289.738
289.745
289.752
289.761
289.769
289.781
289.79
289.804
289.813
289.83
289.839
289.859
289.866
289.891
289.894
289.924
289.923
289.96
289.952
289.991
290.287
290.29
290.293
290.298
290.304
290.31
290.318
290.327
290.336
290.347
290.356
290.37
290.38
290.397
290.406
290.426
290.434
290.459
290.463
290.494
290.494
290.531
290.523
290.565
290.827
290.83
290.833
290.838
290.843
290.85
290.857
290.866
290.875
290.885
290.896
290.909
290.92
290.936
290.946
290.966
290.975
290.999
291.004
291.035
291.036
291.073
291.066
291.109
291.338
291.34
291.343
291.347
291.353
291.359
291.367
291.375
291.384
291.395
291.405
291.418
291.429
291.445
291.456
291.475
291.485
291.509
291.515
291.546
291.547
291.585
291.579
291.623
291.824
291.826
291.829
291.833
291.838
291.844
291.852
291.86
291.869
291.879
291.89
291.902
291.914
291.929
291.941
291.959
291.97
291.994
292.001
292.031
292.033
292.071
292.065
292.11
292.283
292.285
292.288
292.292
292.297
292.303
292.31
292.318
292.328
292.337
292.348
292.36
292.372
292.386
292.399
292.417
292.428
292.451
292.459
292.489
292.492
292.53
292.525
292.57
292.72
292.722
292.724
292.728
292.734
292.739
292.746
292.754
292.763
292.772
292.784
292.795
292.807
292.821
292.834
292.852
292.863
292.886
292.894
292.924
292.928
292.965
292.961
293.006
293.133
293.134
293.137
293.141
293.146
293.151
293.158
293.165
293.175
293.184
293.195
293.206
293.218
293.232
293.245
293.262
293.274
293.297
293.305
293.335
293.339
293.376
293.372
293.418
293.525
293.527
293.529
293.533
293.538
293.543
293.55
293.557
293.566
293.575
293.585
293.597
293.609
293.622
293.635
293.653
293.664
293.687
293.695
293.725
293.729
293.766
293.762
293.808
293.896
293.897
293.9
293.903
293.908
293.913
293.92
293.926
293.935
293.944
293.955
293.966
293.977
293.991
294.003
294.021
294.032
294.055
294.064
294.094
294.097
294.134
294.131
294.176
294.248
294.249
294.251
294.255
294.259
294.264
294.271
294.278
294.286
294.295
294.305
294.316
294.328
294.341
294.353
294.371
294.382
294.405
294.413
294.443
294.446
294.484
294.48
294.526
294.58
294.582
294.584
294.587
294.591
294.596
294.603
294.609
294.618
294.626
294.636
294.647
294.659
294.672
294.684
294.701
294.713
294.735
294.743
294.773
294.776
294.814
294.811
294.856
294.896
294.897
294.9
294.903
294.907
294.912
294.918
294.924
294.933
294.941
294.951
294.961
294.973
294.986
294.998
295.015
295.026
295.048
295.057
295.086
295.09
295.127
295.124
295.169
295.195
295.196
295.198
295.201
295.205
295.21
295.216
295.222
295.23
295.239
295.248
295.259
295.27
295.283
295.295
295.312
295.323
295.345
295.353
295.382
295.386
295.422
295.42
295.465
295.479
295.48
295.482
295.485
295.489
295.493
295.499
295.506
295.513
295.522
295.531
295.541
295.552
295.565
295.576
295.594
295.604
295.626
295.634
295.663
295.667
295.703
295.701
295.745
295.747
295.748
295.75
295.753
295.757
295.761
295.767
295.773
295.781
295.789
295.798
295.809
295.819
295.832
295.843
295.86
295.87
295.892
295.9
295.928
295.932
295.968
295.966
296.01
296.002
296.003
296.005
296.007
296.011
296.016
296.021
296.028
296.035
296.043
296.052
296.062
296.072
296.086
296.096
296.113
296.122
296.144
296.152
296.18
296.184
296.219
296.217
296.261
296.243
296.244
296.245
296.248
296.252
296.256
296.261
296.268
296.275
296.283
296.291
296.302
296.311
296.325
296.335
296.352
296.361
296.382
296.39
296.417
296.421
296.456
296.455
296.497
296.472
296.472
296.474
296.476
296.48
296.484
296.489
296.496
296.502
296.511
296.519
296.529
296.538
296.552
296.561
296.578
296.587
296.608
296.615
296.642
296.646
296.681
296.679
296.721
296.688
296.688
296.69
296.692
296.696
296.7
296.705
296.711
296.718
296.726
296.734
296.744
296.753
296.766
296.775
296.792
296.801
296.822
296.828
296.855
296.859
296.893
296.891
296.932
296.892
296.892
296.894
296.896
296.9
296.904
296.909
296.915
296.921
296.93
296.937
296.948
296.956
296.969
296.978
296.995
297.003
297.024
297.03
297.057
297.06
297.094
297.092
297.132
297.085
297.085
297.087
297.089
297.092
297.097
297.101
297.108
297.114
297.122
297.129
297.14
297.147
297.161
297.169
297.186
297.193
297.214
297.22
297.247
297.249
297.283
297.281
297.321
297.268
297.268
297.27
297.272
297.275
297.28
297.284
297.29
297.296
297.304
297.311
297.322
297.329
297.343
297.35
297.367
297.374
297.395
297.4
297.427
297.429
297.462
297.46
297.499
297.441
297.441
297.442
297.445
297.448
297.452
297.456
297.463
297.468
297.477
297.483
297.494
297.501
297.514
297.521
297.538
297.545
297.566
297.571
297.597
297.599
297.631
297.629
297.667
297.604
297.604
297.605
297.608
297.61
297.615
297.619
297.625
297.63
297.639
297.645
297.656
297.662
297.676
297.682
297.7
297.705
297.727
297.731
297.758
297.759
297.791
297.789
297.826
297.759
297.759
297.76
297.763
297.765
297.77
297.773
297.78
297.784
297.793
297.799
297.809
297.815
297.829
297.835
297.852
297.858
297.878
297.883
297.909
297.91
297.941
297.939
297.976
297.904
297.904
297.906
297.908
297.911
297.915
297.919
297.925
297.93
297.939
297.944
297.955
297.961
297.975
297.981
297.998
298.003
298.024
298.027
298.053
298.053
298.084
298.082
298.117
298.042
298.042
298.044
298.046
298.048
298.053
298.056
298.062
298.067
298.075
298.08
298.091
298.097
298.111
298.116
298.133
298.138
298.159
298.162
298.188
298.189
298.22
298.218
298.253
298.175
298.175
298.176
298.179
298.181
298.186
298.189
298.195
298.199
298.208
298.212
298.223
298.228
298.242
298.247
298.264
298.267
298.289
298.291
298.316
298.316
298.346
298.344
298.378
298.299
298.299
298.3
298.302
298.304
298.309
298.312
298.319
298.322
298.331
298.336
298.347
298.352
298.366
298.37
298.388
298.392
298.413
298.415
298.44
298.44
298.468
298.466
298.498
298.417
298.417
298.418
298.421
298.423
298.427
298.429
298.436
298.439
298.447
298.451
298.462
298.466
298.48
298.483
298.501
298.504
298.526
298.528
298.553
298.554
298.583
298.581
298.615
298.53
298.53
298.531
298.533
298.535
298.54
298.542
298.549
298.552
298.562
298.565
298.577
298.581
298.595
298.599
298.616
298.619
298.639
298.64
298.664
298.664
298.69
298.688
298.718
298.637
298.637
298.638
298.64
298.642
298.646
298.648
298.654
298.657
298.665
298.668
298.679
298.682
298.696
298.699
298.717
298.72
298.741
298.742
298.767
298.767
298.795
298.793
298.825
298.736
298.736
298.737
298.74
298.741
298.746
298.748
298.755
298.758
298.767
298.77
298.782
298.785
298.799
298.802
298.818
298.821
298.841
298.843
298.866
298.866
298.891
298.889
298.918
298.833
298.834
298.834
298.837
298.838
298.842
298.844
298.851
298.853
298.861
298.864
298.874
298.877
298.891
298.893
298.91
298.913
298.933
298.934
298.957
298.957
298.983
298.982
299.012
298.921
298.921
298.922
298.924
298.926
298.93
298.933
298.939
298.942
298.951
298.954
298.965
298.968
298.981
298.983
298.999
299.001
299.02
299.022
299.044
299.044
299.069
299.068
299.095
299.006
299.006
299.007
299.01
299.011
299.015
299.017
299.024
299.026
299.034
299.037
299.047
299.05
299.063
299.066
299.082
299.085
299.104
299.106
299.129
299.129
299.155
299.154
299.182
299.09
299.09
299.091
299.094
299.095
299.099
299.102
299.108
299.11
299.119
299.122
299.132
299.134
299.147
299.148
299.163
299.164
299.182
299.183
299.204
299.203
299.227
299.226
299.252
299.157
299.157
299.158
299.16
299.161
299.165
299.168
299.174
299.176
299.185
299.188
299.198
299.201
299.215
299.218
299.234