/*--------------------------------*- C++ -*----------------------------------*\
  =========                 |
  \\      /  F ield         | OpenFOAM: The Open Source CFD Toolbox
   \\    /   O peration     | Website:  https://openfoam.org
    \\  /    A nd           | Version:  10
     \\/     M anipulation  |
\*---------------------------------------------------------------------------*/
FoamFile
{
    format      ascii;
    class       volVectorField;
    location    "0.08";
    object      U;
}
// * * * * * * * * * * * * * * * * * * * * * * * * * * * * * * * * * * * * * //

dimensions      [0 1 -1 0 0 0 0];

internalField   nonuniform List<vector> 
4176
(
(484.948 -0.0157949 -1.49171e-10)
(484.938 0.0432052 9.92059e-11)
(484.906 -0.00496868 -3.50886e-12)
(484.865 0.0563533 -7.00832e-12)
(484.797 0.0365521 -1.51093e-11)
(484.731 0.0443785 -5.81345e-12)
(484.626 0.10331 -2.21344e-11)
(484.538 0.00745694 -2.27687e-11)
(484.395 0.193917 -7.72892e-12)
(484.286 -0.0511436 -2.20536e-11)
(484.105 0.302593 -2.69315e-11)
(483.976 -0.120929 -2.22884e-11)
(483.761 0.415496 5.35065e-12)
(483.607 -0.179319 -6.25708e-12)
(483.367 0.497688 -6.77544e-12)
(483.176 -0.1591 -1.17587e-12)
(482.931 0.454381 1.1051e-11)
(482.68 -0.00337282 1.20291e-11)
(482.455 0.279451 1.49893e-11)
(482.113 0.282677 2.37194e-11)
(481.949 -0.0397174 9.72106e-12)
(481.469 0.729923 -2.88266e-12)
(481.442 -0.513272 6.59331e-12)
(480.814 1.39515 9.7843e-12)
(485.088 0.00363652 -1.56885e-10)
(485.078 0.092701 1.01446e-10)
(485.045 0.0695815 -3.42515e-12)
(485.003 0.166667 -7.17406e-12)
(484.933 0.170526 -1.48017e-11)
(484.867 0.215365 -5.44068e-12)
(484.758 0.296762 -2.2819e-11)
(484.669 0.23759 -2.27261e-11)
(484.52 0.446898 -7.44321e-12)
(484.411 0.235624 -2.19004e-11)
(484.222 0.615171 -2.74742e-11)
(484.092 0.219029 -2.24619e-11)
(483.869 0.787569 4.00161e-12)
(483.712 0.209743 -6.02629e-12)
(483.465 0.932731 -6.55976e-12)
(483.269 0.273487 -6.46997e-13)
(483.019 0.952407 9.99407e-12)
(482.757 0.473857 1.19817e-11)
(482.534 0.84327 1.42691e-11)
(482.172 0.801835 2.34309e-11)
(482.016 0.590213 9.65055e-12)
(481.507 1.26841 -5.09958e-12)
(481.475 0.104304 7.39769e-12)
(480.779 1.92397 9.29143e-12)
(485.671 0.0208915 -1.67669e-10)
(485.661 0.139305 1.02544e-10)
(485.628 0.139381 -4.79795e-12)
(485.587 0.271314 -6.09643e-12)
(485.518 0.296284 -1.48315e-11)
(485.453 0.377533 -5.82763e-12)
(485.345 0.478392 -2.055e-11)
(485.259 0.455943 -2.15671e-11)
(485.111 0.684793 -6.06572e-12)
(485.006 0.507817 -2.19868e-11)
(484.818 0.910258 -2.84631e-11)
(484.694 0.541405 -2.3122e-11)
(484.47 1.14066 5.67144e-12)
(484.32 0.577323 -5.69803e-12)
(484.072 1.34537 -6.63908e-12)
(483.882 0.67813 3.77176e-13)
(483.636 1.42842 7.40019e-12)
(483.376 0.916534 1.03381e-11)
(483.163 1.38246 1.48777e-11)
(482.8 1.28693 2.32485e-11)
(482.659 1.19453 8.77527e-12)
(482.152 1.81567 -2.69169e-12)
(482.12 0.805843 7.55941e-12)
(481.393 2.53174 1.00672e-11)
(486.042 0.0396506 -1.74935e-10)
(486.032 0.187282 1.07159e-10)
(485.999 0.211032 -5.11909e-12)
(485.958 0.377465 -3.13766e-12)
(485.888 0.424362 -1.52664e-11)
(485.823 0.542016 -9.30302e-12)
(485.715 0.662951 -2.0639e-11)
(485.63 0.677778 -2.41397e-11)
(485.481 0.926152 -1.30096e-11)
(485.377 0.784906 -1.92747e-11)
(485.186 1.20939 -2.77448e-11)
(485.065 0.87029 -2.46912e-11)
(484.836 1.49928 7.27208e-12)
(484.69 0.952713 -6.80675e-12)
(484.436 1.7653 -1.31771e-11)
(484.249 1.08875 -8.54717e-13)
(484.001 1.91501 9.58342e-12)
(483.736 1.36753 9.84213e-12)
(483.527 1.92577 1.70035e-11)
(483.162 1.77508 2.28618e-11)
(483.02 1.78978 6.11624e-12)
(482.522 2.34679 -3.58568e-12)
(482.495 1.48194 5.72772e-12)
(481.798 3.12023 6.71847e-13)
(486.405 0.057661 -1.84065e-10)
(486.395 0.234297 1.14263e-10)
(486.362 0.281177 -8.66725e-13)
(486.321 0.481903 -2.8662e-12)
(486.253 0.549795 -1.18427e-11)
(486.188 0.704147 -3.92728e-12)
(486.081 0.843773 -2.25951e-11)
(485.996 0.89685 -2.25062e-11)
(485.848 1.16263 -8.30643e-12)
(485.745 1.05893 -2.15166e-11)
(485.556 1.50259 -2.77722e-11)
(485.436 1.1956 -2.21251e-11)
(485.207 1.85197 4.12345e-12)
(485.064 1.32347 -7.46642e-12)
(484.808 2.18321 -1.11626e-11)
(484.627 1.48868 -3.28627e-12)
(484.374 2.40316 8.49178e-12)
(484.112 1.81288 1.04782e-11)
(483.904 2.45911 1.17933e-11)
(483.541 2.26403 2.85907e-11)
(483.396 2.37667 1.35125e-11)
(482.903 2.86476 -8.19767e-13)
(482.875 2.11237 9.15159e-12)
(482.198 3.66942 1.10162e-11)
(486.651 0.0766431 -2.02601e-10)
(486.64 0.28117 1.13539e-10)
(486.608 0.351544 1.25865e-12)
(486.567 0.585128 -7.02321e-12)
(486.5 0.675271 -2.22965e-11)
(486.434 0.864614 -8.14675e-12)
(486.33 1.02469 -2.03499e-11)
(486.243 1.11399 -2.64906e-11)
(486.099 1.39909 -8.33585e-12)
(485.993 1.33115 -1.68412e-11)
(485.808 1.79517 -2.7726e-11)
(485.685 1.52 -2.76619e-11)
(485.46 2.20228 1.60975e-12)
(485.316 1.69525 -4.90429e-12)
(485.06 2.59536 -1.38585e-11)
(484.884 1.89635 -8.15407e-13)
(484.621 2.89067 1.85382e-11)
(484.373 2.25305 1.3135e-11)
(484.155 2.99403 2.12404e-11)
(483.799 2.75413 3.0817e-11)
(483.648 2.96558 9.3651e-12)
(483.16 3.38454 -1.13543e-11)
(483.127 2.74771 5.93145e-12)
(482.447 4.21834 1.10839e-11)
(486.832 0.094585 -2.08381e-10)
(486.821 0.326276 1.11887e-10)
(486.79 0.420785 -1.35113e-11)
(486.749 0.686545 -6.79836e-12)
(486.683 0.799556 -7.78149e-12)
(486.617 1.02277 -6.80502e-12)
(486.515 1.20407 -3.14042e-11)
(486.427 1.32824 -2.25541e-11)
(486.285 1.63356 -2.63924e-12)
(486.179 1.60011 -2.17521e-11)
(485.996 2.08512 -3.065e-11)
(485.873 1.84127 -1.73858e-11)
(485.651 2.54884 1.69468e-11)
(485.508 2.06495 -2.73636e-12)
(485.253 3.0011 -9.30798e-12)
(485.081 2.30629 2.36292e-12)
(484.812 3.36846 9.40905e-12)
(484.577 2.68952 7.49543e-12)
(484.347 3.53167 1.5829e-11)
(484.002 3.23743 2.8582e-11)
(483.847 3.55195 7.99024e-12)
(483.365 3.90338 -1.15365e-11)
(483.327 3.3922 8.08944e-12)
(482.648 4.77312 1.5831e-11)
(486.927 0.111605 -2.29231e-10)
(486.917 0.370179 1.22323e-10)
(486.885 0.489231 7.09874e-12)
(486.845 0.786753 -3.26924e-12)
(486.779 0.922653 -1.99599e-11)
(486.714 1.17907 -3.4555e-12)
(486.612 1.38166 -1.53874e-11)
(486.525 1.54003 -2.4122e-11)
(486.385 1.86564 -2.09507e-11)
(486.279 1.86618 -2.45555e-11)
(486.098 2.372 -2.03623e-11)
(485.976 2.15948 -2.30407e-11)
(485.755 2.89147 -7.82426e-12)
(485.614 2.43176 -1.0703e-11)
(485.359 3.40178 -2.16531e-12)
(485.191 2.71526 -5.42069e-12)
(484.919 3.83951 1.29416e-11)
(484.694 3.12445 2.34994e-11)
(484.456 4.06722 1.94011e-11)
(484.121 3.71451 1.43946e-11)
(483.962 4.13412 7.83412e-12)
(483.487 4.41847 4.11105e-12)
(483.444 4.03264 5.51835e-12)
(482.772 5.32088 -7.046e-12)
(486.943 0.129676 -2.45952e-10)
(486.932 0.414691 1.10166e-10)
(486.901 0.557552 -1.35353e-11)
(486.86 0.886013 -1.47444e-11)
(486.796 1.04453 -1.97858e-11)
(486.731 1.33349 -1.08128e-11)
(486.63 1.55726 -3.02653e-11)
(486.544 1.7492 -2.75796e-11)
(486.405 2.09499 -1.52062e-11)
(486.3 2.12905 -2.79847e-11)
(486.121 2.65539 -3.21393e-11)
(486 2.47411 -2.47943e-11)
(485.78 3.22977 3.68974e-13)
(485.642 2.79489 -9.10415e-12)
(485.388 3.797 -8.34785e-12)
(485.225 3.12098 -2.38805e-12)
(484.951 4.30181 8.82694e-12)
(484.736 3.55635 1.2577e-11)
(484.49 4.5986 1.58656e-11)
(484.167 4.18474 2.12497e-11)
(484.002 4.71323 5.94977e-12)
(483.535 4.92969 -6.76706e-12)
(483.489 4.67103 7.12018e-12)
(482.824 5.86485 8.76099e-12)
(486.886 0.14742 -2.34885e-10)
(486.875 0.458378 1.38039e-10)
(486.844 0.624845 5.67675e-12)
(486.803 0.98379 7.57398e-12)
(486.739 1.16476 -1.41764e-12)
(486.675 1.48574 6.20724e-12)
(486.575 1.73047 -1.36622e-11)
(486.49 1.95545 -1.12766e-11)
(486.352 2.32116 2.00762e-12)
(486.249 2.3883 -1.2361e-11)
(486.07 2.93478 -1.45792e-11)
(485.951 2.78459 -9.79029e-12)
(485.733 3.56316 1.84463e-11)
(485.597 3.15361 3.54896e-12)
(485.344 4.18623 5.33788e-12)
(485.184 3.52245 8.0857e-12)
(484.909 4.75455 2.23783e-11)
(484.703 3.98499 2.31453e-11)
(484.45 5.12201 2.91278e-11)
(484.141 4.64764 3.27126e-11)
(483.968 5.28858 1.78487e-11)
(483.511 5.43412 5.07728e-12)
(483.46 5.30241 1.62543e-11)
(482.805 6.39962 1.7528e-11)
(486.756 0.164792 -2.59346e-10)
(486.744 0.501387 1.27669e-10)
(486.714 0.691383 -2.92724e-12)
(486.674 1.08045 5.04886e-13)
(486.61 1.28369 -7.84096e-12)
(486.547 1.63626 -8.59522e-13)
(486.448 1.90176 -1.85208e-11)
(486.363 2.15934 -1.33736e-11)
(486.226 2.54473 -3.75762e-13)
(486.125 2.64459 -1.45235e-11)
(485.948 3.21084 -1.45718e-11)
(485.831 3.09164 -7.6997e-12)
(485.614 3.89247 2.09967e-11)
(485.481 3.50866 5.61799e-12)
(485.228 4.57054 1.03082e-11)
(485.073 3.92049 1.40343e-11)
(484.797 5.19993 2.98162e-11)
(484.599 4.41063 2.90859e-11)
(484.341 5.63889 3.90384e-11)
(484.043 5.10457 4.33685e-11)
(483.864 5.86053 6.50179e-12)
(483.417 5.93355 -2.81261e-11)
(483.361 5.92791 -1.24971e-11)
(482.716 6.92631 -1.32116e-11)
(486.557 0.182028 -2.71066e-10)
(486.546 0.543804 1.30633e-10)
(486.516 0.756963 -5.23889e-12)
(486.476 1.17561 -4.62632e-12)
(486.413 1.40079 -1.26213e-11)
(486.35 1.78442 -5.92409e-12)
(486.252 2.07035 -2.62806e-11)
(486.169 2.36001 -2.33611e-11)
(486.034 2.7647 -1.07234e-11)
(485.933 2.89681 -2.42129e-11)
(485.758 3.48232 -2.52029e-11)
(485.643 3.39383 -1.70353e-11)
(485.428 4.21616 1.02147e-11)
(485.298 3.85829 -3.41857e-12)
(485.046 4.94815 -3.5003e-12)
(484.896 4.31305 8.01443e-13)
(484.62 5.63634 1.32521e-11)
(484.429 4.83163 1.58747e-11)
(484.167 6.14689 2.07116e-11)
(483.882 5.55466 2.53602e-11)
(483.696 6.42598 1.14063e-11)
(483.262 6.42481 5.74517e-13)
(483.201 6.54725 1.28532e-11)
(482.566 7.44455 1.25769e-11)
(486.29 0.199 -2.82792e-10)
(486.278 0.585525 1.30464e-10)
(486.248 0.821536 -1.04251e-11)
(486.209 1.26929 -1.02535e-11)
(486.147 1.51611 -2.05822e-11)
(486.084 1.93032 -1.71431e-11)
(485.988 2.23637 -4.03263e-11)
(485.905 2.55763 -3.98177e-11)
(485.771 2.98123 -2.78718e-11)
(485.673 3.14517 -4.29238e-11)
(485.499 3.74943 -5.12694e-11)
(485.386 3.69138 -4.28567e-11)
(485.173 4.53446 -2.20809e-11)
(485.046 4.20263 -8.41232e-12)
(484.796 5.31926 2.03485e-11)
(484.65 4.70006 1.78799e-11)
(484.374 6.06454 3.11962e-11)
(484.191 5.24807 2.78802e-11)
(483.925 6.64547 3.26247e-11)
(483.652 5.99764 3.5593e-11)
(483.46 6.98306 1.94775e-11)
(483.039 6.90643 5.65652e-12)
(482.975 7.15855 1.79813e-11)
(482.352 7.95268 1.54615e-11)
(485.956 0.215694 -2.87652e-10)
(485.944 0.626502 1.54003e-10)
(485.915 0.884994 -1.0631e-11)
(485.876 1.36134 -2.88469e-11)
(485.814 1.62943 -2.33396e-11)
(485.753 2.07371 -7.81775e-12)
(485.657 2.3995 -1.94531e-11)
(485.577 2.75187 -3.76771e-12)
(485.444 3.19398 -9.45596e-12)
(485.347 3.38927 -4.29252e-11)
(485.175 4.01175 -3.88294e-11)
(485.065 3.98378 -2.04314e-11)
(484.853 4.84681 1.92321e-11)
(484.73 4.54096 1.07354e-11)
(484.481 5.68312 -1.16409e-11)
(484.34 5.08046 -2.19348e-11)
(484.065 6.48394 -4.19957e-12)
(483.889 5.65918 9.49891e-12)
(483.62 7.1339 2.66333e-11)
(483.359 6.43254 4.12749e-11)
(483.162 7.531 7.4819e-12)
(482.755 7.37791 -2.2638e-11)
(482.686 7.76108 1.34465e-12)
(482.076 8.45061 1.25487e-11)
(485.557 0.23209 -3.13663e-10)
(485.545 0.66669 1.1686e-10)
(485.516 0.947252 -1.26922e-12)
(485.478 1.45165 2.61352e-11)
(485.417 1.7406 2.07025e-12)
(485.357 2.21442 -4.37531e-12)
(485.262 2.55956 -3.89474e-11)
(485.183 2.94254 -4.87038e-11)
(485.052 3.40272 -1.26769e-11)
(484.957 3.62894 -2.37406e-12)
(484.787 4.2691 -1.87567e-11)
(484.679 4.2709 -2.65155e-11)
(484.47 5.15311 -1.46316e-11)
(484.349 4.87318 -9.91189e-12)
(484.103 6.03968 1.2498e-11)
(483.966 5.4541 6.77858e-12)
(483.692 6.89442 6.10804e-12)
(483.523 6.06449 -1.76104e-12)
(483.252 7.6119 -1.36074e-11)
(483.004 6.85891 1.27361e-11)
(482.802 8.06907 2.03072e-11)
(482.408 7.83826 1.23927e-12)
(482.336 8.35334 1.4046e-12)
(481.738 8.93772 -1.25732e-11)
(485.095 0.248159 -3.10084e-10)
(485.083 0.706037 1.66257e-10)
(485.054 1.00822 -7.53471e-12)
(485.016 1.54011 -3.17907e-11)
(484.957 1.84946 -2.46806e-11)
(484.897 2.35226 -4.24013e-12)
(484.804 2.71628 -1.12779e-11)
(484.726 3.12934 3.04752e-12)
(484.597 3.60712 -9.15622e-12)
(484.504 3.86378 -4.25775e-11)
(484.336 4.52107 -3.30382e-11)
(484.231 4.55227 -1.34485e-11)
(484.024 5.45292 2.88424e-11)
(483.907 5.19878 -1.29373e-11)
(483.663 6.38845 -4.23823e-11)
(483.53 5.82035 -1.78896e-11)
(483.259 7.29543 6.07379e-12)
(483.097 6.46317 2.2565e-11)
(482.824 8.07885 4.08728e-11)
(482.587 7.27641 1.92077e-11)
(482.381 8.5969 -1.78096e-11)
(482.001 8.28672 -1.17144e-11)
(481.926 8.9341 1.44623e-11)
(481.342 9.41354 2.41723e-11)
(484.57 0.26388 -3.36022e-10)
(484.558 0.744498 1.31608e-10)
(484.53 1.06782 -2.48935e-11)
(484.493 1.62659 -3.54349e-11)
(484.434 1.95584 -1.39551e-11)
(484.375 2.48704 2.2231e-11)
(484.284 2.86943 -7.57459e-12)
(484.208 3.31201 -1.51795e-11)
(484.08 3.80687 -1.2796e-11)
(483.989 4.0935 -3.18762e-11)
(483.824 4.76734 -4.43473e-11)
(483.722 4.8276 -4.47576e-11)
(483.517 5.74594 9.64946e-12)
(483.404 5.51747 1.74866e-11)
(483.161 6.72919 7.85264e-12)
(483.034 6.17887 5.23916e-12)
(482.764 7.68676 9.94082e-12)
(482.609 6.85439 6.35097e-12)
(482.336 8.53395 -9.36964e-13)
(482.111 7.6849 -3.5159e-12)
(481.901 9.11402 -2.90806e-11)
(481.535 8.72276 -8.4869e-12)
(481.457 9.50253 3.20086e-11)
(480.887 9.87746 2.07682e-11)
(483.983 0.279228 -3.3977e-10)
(483.971 0.782023 1.57047e-10)
(483.943 1.12595 9.0022e-12)
(483.907 1.71098 1.78281e-11)
(483.849 2.05958 9.22901e-12)
(483.792 2.61854 1.84691e-11)
(483.702 3.01874 1.5372e-13)
(483.628 3.49024 8.22453e-12)
(483.502 4.0016 2.66329e-11)
(483.414 4.31765 -2.04928e-11)
(483.251 5.00745 -6.03935e-11)
(483.151 5.09636 -4.85784e-11)
(482.949 6.03169 -2.27085e-11)
(482.84 5.82873 -3.27916e-11)
(482.601 7.06147 -3.30134e-11)
(482.478 6.52922 -1.93106e-11)
(482.21 8.06811 -6.48597e-12)
(482.062 7.23724 2.87263e-12)
(481.789 8.97634 1.15475e-11)
(481.576 8.08415 2.45158e-11)
(481.362 9.61932 1.38281e-11)
(481.011 9.14677 5.66667e-12)
(480.928 10.0587 2.09529e-11)
(480.375 10.3284 2.45488e-11)
(483.336 0.294176 -3.57685e-10)
(483.324 0.818553 1.45929e-10)
(483.296 1.18253 -1.07601e-11)
(483.261 1.79315 -7.71184e-12)
(483.204 2.16052 -2.27985e-11)
(483.148 2.74657 -2.31899e-11)
(483.06 3.16397 -4.49394e-11)
(482.987 3.66374 -4.09185e-11)
(482.864 4.19098 -3.13297e-11)
(482.778 4.53589 -4.45009e-11)
(482.618 5.24099 -4.78919e-11)
(482.522 5.35811 -4.47195e-11)
(482.322 6.30969 -2.69334e-11)
(482.217 6.13205 -4.04017e-11)
(481.981 7.38482 -5.02651e-11)
(481.864 6.87092 -4.16027e-11)
(481.598 8.43919 6.26185e-12)
(481.457 7.61106 4.29941e-11)
(481.185 9.40541 5.03868e-11)
(480.984 8.47384 5.05011e-11)
(480.766 10.1121 3.44267e-11)
(480.43 9.55879 1.67881e-11)
(480.343 10.6024 2.89446e-11)
(479.805 10.7656 2.8514e-11)
(482.628 0.308694 -3.85668e-10)
(482.616 0.85402 1.58789e-10)
(482.589 1.23744 1.85575e-11)
(482.554 1.87295 -2.90457e-12)
(482.498 2.25845 2.85427e-12)
(482.444 2.8709 2.54752e-11)
(482.357 3.30485 -2.3554e-11)
(482.287 3.83222 -4.52062e-11)
(482.166 4.37465 -1.40594e-11)
(482.083 4.74781 -6.54918e-12)
(481.925 5.46751 -3.46811e-11)
(481.832 5.61235 -1.58988e-11)
(481.636 6.57941 2.22118e-11)
(481.536 6.42685 -2.0335e-11)
(481.302 7.69868 -5.39692e-12)
(481.191 7.20333 1.71449e-11)
(480.928 8.79941 1.69037e-12)
(480.794 7.97532 -1.84889e-11)
(480.523 9.82073 1.22878e-12)
(480.334 8.85351 2.40153e-11)
(480.112 10.5917 -1.79145e-11)
(479.793 9.95847 -1.08358e-11)
(479.7 11.1329 1.66268e-11)
(479.18 11.1886 -7.79981e-12)
(481.86 0.322746 -3.77517e-10)
(481.848 0.888343 1.7216e-10)
(481.821 1.29055 1.86684e-11)
(481.787 1.95021 3.07429e-11)
(481.733 2.35316 2.10644e-11)
(481.68 2.9913 -1.12252e-11)
(481.595 3.44111 -6.87375e-11)
(481.527 3.99539 -5.42616e-11)
(481.409 4.55231 -3.23895e-11)
(481.328 4.95306 -3.73783e-11)
(481.174 5.68661 -3.47087e-11)
(481.085 5.85864 -2.02832e-11)
(480.892 6.84038 1.30841e-11)
(480.796 6.71258 5.0025e-12)
(480.566 8.0025 1.33054e-11)
(480.46 7.52583 2.12943e-11)
(480.201 9.14827 3.94724e-11)
(480.074 8.32938 5.57392e-12)
(479.805 10.2219 -2.68291e-11)
(479.627 9.22274 -7.81046e-12)
(479.403 11.0576 -1.80964e-11)
(479.099 10.3455 -2.33155e-11)
(479.002 11.6498 -9.54788e-12)
(478.499 11.597 6.91431e-13)
(481.032 0.336293 -4.08549e-10)
(481.021 0.921435 1.28258e-10)
(480.995 1.34171 -4.14602e-12)
(480.962 2.02473 3.11183e-11)
(480.909 2.44443 -1.82074e-12)
(480.857 3.1075 -1.10745e-11)
(480.775 3.57244 -4.54362e-11)
(480.708 4.15294 -1.1777e-11)
(480.593 4.7236 2.94346e-11)
(480.515 5.15129 -2.89113e-13)
(480.364 5.89791 -2.02923e-11)
(480.279 6.09655 -3.38226e-11)
(480.09 7.09209 -3.0457e-11)
(479.998 6.98868 -1.69748e-11)
(479.772 8.29567 8.49309e-12)
(479.672 7.83773 -1.63698e-13)
(479.416 9.48511 -4.65559e-12)
(479.297 8.67244 -1.57161e-11)
(479.03 10.6087 1.73081e-11)
(478.864 9.58115 4.70565e-11)
(478.637 11.5089 1.52366e-11)
(478.35 10.7196 -1.49888e-11)
(478.248 12.1525 -2.3285e-11)
(477.763 11.9905 5.14703e-12)
(480.146 0.349296 -4.24248e-10)
(480.134 0.953211 1.31587e-10)
(480.109 1.39079 -4.12037e-12)
(480.077 2.09634 3.66591e-11)
(480.025 2.53201 8.28231e-12)
(479.976 3.21923 -5.63255e-12)
(479.895 3.69857 -4.55357e-11)
(479.832 4.30454 -6.09474e-11)
(479.719 4.88819 -1.98947e-11)
(479.645 5.34215 4.68415e-12)
(479.497 6.10102 -1.02651e-11)
(479.415 6.32569 -2.4421e-11)
(479.23 7.33416 -2.02977e-11)
(479.143 7.2547 -7.76491e-12)
(478.922 8.57771 1.88223e-11)
(478.828 8.13843 4.40205e-12)
(478.576 9.80934 4.76791e-13)
(478.464 9.00367 -7.00815e-12)
(478.2 10.9807 2.7516e-11)
(478.045 9.92835 5.62256e-11)
(477.817 11.9445 2.51713e-11)
(477.546 11.08 -6.35064e-12)
(477.44 12.6405 -8.8649e-12)
(476.973 12.3685 -2.192e-11)
(479.201 0.361722 -4.44804e-10)
(479.189 0.983595 1.74055e-10)
(479.165 1.43766 2.10233e-11)
(479.134 2.16486 -5.87438e-12)
(479.084 2.6157 -4.65719e-11)
(479.036 3.32623 -2.11856e-11)
(478.958 3.81916 -2.02725e-11)
(478.897 4.44985 -4.56294e-11)
(478.787 5.0457 -1.49043e-11)
(478.716 5.52525 -5.09201e-12)
(478.571 6.29557 -3.60022e-11)
(478.494 6.54566 -9.74732e-12)
(478.313 7.56614 3.72744e-11)
(478.232 7.51018 -1.2461e-11)
(478.014 8.84815 -4.94175e-11)
(477.926 8.42737 -1.90049e-11)
(477.679 10.1204 1.6415e-11)
(477.575 9.32229 -2.51534e-12)
(477.314 11.3376 2.22778e-11)
(477.17 10.2639 4.30259e-11)
(476.941 12.3634 -7.96669e-13)
(476.686 11.4261 7.27661e-12)
(476.577 13.1127 4.13137e-11)
(476.129 12.7305 1.09367e-11)
(478.198 0.373546 -4.27089e-10)
(478.186 1.01253 2.00479e-10)
(478.163 1.48222 3.65549e-11)
(478.133 2.23015 5.36596e-12)
(478.084 2.69529 -4.12179e-11)
(478.038 3.42827 -2.12718e-11)
(477.962 3.93394 -2.55335e-11)
(477.904 4.58857 -3.24877e-12)
(477.797 5.19578 2.22182e-11)
(477.73 5.70024 -2.54858e-11)
(477.589 6.48114 -6.28286e-11)
(477.516 6.75608 -4.02172e-11)
(477.339 7.78765 -3.17143e-13)
(477.263 7.75472 -2.50936e-12)
(477.05 9.10654 1.04814e-11)
(476.969 8.70408 2.96327e-11)
(476.726 10.4177 5.7674e-12)
(476.63 9.62774 -2.16334e-11)
(476.373 11.6789 -4.95781e-12)
(476.239 10.587 1.52207e-11)
(476.01 12.765 1.51972e-11)
(475.773 11.7569 1.67069e-11)
(475.659 13.5678 4.67207e-11)
(475.231 13.0758 1.09497e-11)
(477.137 0.384749 -4.35075e-10)
(477.125 1.03996 1.73857e-10)
(477.103 1.5244 -2.1952e-11)
(477.074 2.2921 1.70929e-11)
(477.027 2.77063 -1.43918e-11)
(476.983 3.52515 -2.67778e-11)
(476.91 4.04266 -9.32852e-12)
(476.854 4.7204 -2.50023e-11)
(476.75 5.33808 -3.79064e-11)
(476.687 5.86672 -9.18829e-12)
(476.55 6.65734 -2.42132e-11)
(476.482 6.95653 -4.02354e-11)
(476.309 7.99826 2.20476e-11)
(476.238 7.98792 -1.26418e-11)
(476.03 9.3525 -4.01543e-11)
(475.955 8.96814 -3.84126e-13)
(475.717 10.701 -5.20016e-12)
(475.63 9.9195 -1.19192e-11)
(475.376 12.0041 2.35096e-11)
(475.254 10.8972 1.06772e-11)
(475.025 13.1489 -2.40958e-11)
(474.804 12.0719 -2.96252e-12)
(474.688 14.0042 -1.24013e-11)
(474.28 13.4037 -2.38759e-11)
(476.018 0.395317 -5.06531e-10)
(476.007 1.06588 1.52486e-10)
(475.985 1.56415 -2.19593e-11)
(475.957 2.35064 -1.17934e-11)
(475.912 2.84161 -1.39768e-11)
(475.87 3.61672 -3.89281e-12)
(475.799 4.14511 -2.04441e-11)
(475.747 4.84507 -7.92061e-12)
(475.647 5.47229 7.1441e-12)
(475.587 6.02435 2.11841e-12)
(475.454 6.82376 1.00808e-11)
(475.391 7.14658 -3.47799e-11)
(475.222 8.19752 -6.51902e-12)
(475.157 8.20933 -1.80201e-11)
(474.954 9.5856 -1.7212e-11)
(474.886 9.21913 -5.47685e-12)
(474.652 10.9697 1.22478e-11)
(474.573 10.197 2.363e-11)
(474.325 12.3126 3.53751e-11)
(474.213 11.1936 4.10018e-11)
(473.985 13.5144 -2.43672e-11)
(473.781 12.3705 -2.82228e-11)
(473.662 14.4214 -1.21321e-11)
(473.275 13.714 -8.4287e-12)
(474.843 0.40524 -4.79094e-10)
(474.832 1.09024 2.07102e-10)
(474.81 1.60141 3.46159e-11)
(474.784 2.40569 5.66822e-13)
(474.74 2.90815 -4.76175e-11)
(474.7 3.70286 -3.32384e-11)
(474.632 4.24115 -3.75767e-11)
(474.583 4.96241 -1.38006e-11)
(474.486 5.59817 7.08041e-12)
(474.43 6.17282 1.3767e-11)
(474.301 6.98004 -2.47174e-11)
(474.243 7.32584 -5.72843e-11)
(474.08 8.38502 -1.82612e-11)
(474.02 8.41851 -2.34388e-11)
(473.822 9.80543 -1.14139e-11)
(473.761 9.45662 1.05798e-11)
(473.533 11.2236 4.20211e-11)
(473.462 10.4599 6.03352e-11)
(473.218 12.6044 2.39829e-11)
(473.117 11.4753 -1.02223e-11)
(472.891 13.8603 -1.26305e-11)
(472.704 12.6529 -7.63691e-12)
(472.583 14.8208 2.26137e-11)
(472.215 14.0075 3.89655e-11)
(473.61 0.414505 -4.79791e-10)
(473.599 1.11303 1.78569e-10)
(473.579 1.63616 -4.03823e-11)
(473.553 2.4572 -5.54782e-12)
(473.512 2.97017 2.2528e-11)
(473.474 3.78348 3.3327e-12)
(473.408 4.33066 -4.94396e-11)
(473.362 5.07227 -1.37425e-11)
(473.269 5.71552 -2.84372e-11)
(473.217 6.3119 -6.21533e-11)
(473.093 7.12587 -2.46861e-11)
(473.039 7.49393 1.15685e-11)
(472.881 8.56032 6.15501e-12)
(472.827 8.615 -3.4656e-11)
(472.635 10.0115 -5.38487e-12)
(472.581 9.68014 3.27319e-11)
(472.358 11.4622 1.78278e-11)
(472.296 10.7078 -4.25837e-12)
(472.057 12.879 3.68543e-11)
(471.966 11.7414 1.65334e-11)
(471.743 14.1852 -3.12433e-11)
(471.573 12.9188 -1.30905e-11)
(471.449 15.2015 3.45478e-11)
(471.102 14.2836 1.21996e-11)
(472.321 0.423096 -5.5365e-10)
(472.31 1.1342 1.55373e-10)
(472.291 1.66833 -2.82954e-11)
(472.266 2.50511 -1.80051e-11)
(472.227 3.02759 -2.47305e-11)
(472.191 3.8585 -2.12465e-11)
(472.128 4.41354 -3.76322e-11)
(472.085 5.17454 -2.59468e-11)
(471.995 5.82421 -1.62182e-11)
(471.947 6.44145 -2.61431e-11)
(471.827 7.26106 -1.85155e-11)
(471.779 7.65062 -5.97982e-12)
(471.626 8.72308 1.8873e-11)
(471.578 8.79841 -5.44782e-14)
(471.391 10.2033 9.71148e-13)
(471.345 9.88921 1.03543e-11)
(471.128 11.6851 2.45016e-11)
(471.074 10.9402 2.90092e-11)
(470.84 13.1362 4.37127e-11)
(470.761 11.9915 4.96039e-11)
(470.541 14.4886 3.74462e-11)
(470.388 13.1678 -3.50326e-11)
(470.261 15.562 -2.66738e-11)
(469.936 14.5406 -1.53468e-11)
(470.976 0.430995 -4.92727e-10)
(470.965 1.15372 2.20737e-10)
(470.946 1.69786 1.37434e-11)
(470.923 2.54932 2.12215e-11)
(470.885 3.08031 6.02856e-12)
(470.852 3.92782 4.31633e-12)
(470.792 4.48969 -1.92269e-11)
(470.751 5.26913 -1.33829e-11)
(470.665 5.92415 -9.889e-12)
(470.621 6.56134 -2.60079e-11)
(470.506 7.38545 -2.47519e-11)
(470.463 7.79573 -2.40499e-11)
(470.315 8.87304 -6.19602e-12)
(470.274 8.96841 -2.36726e-11)
(470.093 10.3805 -3.72218e-11)
(470.053 10.0833 -3.5864e-11)
(469.842 11.8917 -2.68839e-11)
(469.797 11.1566 4.04495e-11)
(469.569 13.3755 4.45746e-11)
(469.5 12.2252 3.91173e-11)
(469.285 14.7702 2.49135e-11)
(469.148 13.3992 3.50204e-12)
(469.019 15.9017 1.10096e-11)
(468.716 14.7787 1.2801e-11)
(469.574 0.438186 -5.24206e-10)
(469.564 1.17156 1.96662e-10)
(469.546 1.72471 -2.32486e-11)
(469.524 2.58978 2.11592e-11)
(469.488 3.12826 -5.92912e-12)
(469.457 3.99134 -2.16305e-11)
(469.399 4.55902 -6.71586e-12)
(469.362 5.35594 -1.96017e-11)
(469.28 6.01525 -2.89498e-11)
(469.24 6.67153 -6.32671e-13)
(469.129 7.49897 -1.83134e-11)
(469.091 7.92919 -3.0231e-11)
(468.948 9.01008 3.25371e-11)
(468.913 9.12485 -5.42533e-12)
(468.738 10.5428 -3.09435e-11)
(468.706 10.2621 1.14616e-11)
(468.501 12.0816 5.8068e-12)
(468.465 11.3564 -5.75749e-12)
(468.244 13.5964 4.51672e-11)
(468.185 12.4419 2.81214e-11)
(467.974 15.03 -1.45094e-11)
(467.854 13.6134 1.48258e-11)
(467.723 16.2193 1.14924e-11)
(467.442 14.9966 -9.80014e-12)
(468.117 0.444658 -5.89803e-10)
(468.107 1.18768 1.99942e-10)
(468.09 1.74883 1.45274e-11)
(468.069 2.62641 -1.87587e-11)
(468.035 3.17136 7.06257e-13)
(468.006 4.04897 2.49684e-11)
(467.951 4.62142 -4.50719e-11)
(467.917 5.43488 -1.30502e-11)
(467.839 6.0974 1.62323e-11)
(467.803 6.77191 -3.88221e-11)
(467.697 7.60156 -1.18607e-11)
(467.663 8.05095 2.00611e-11)
(467.526 9.13414 2.34329e-14)
(467.497 9.26766 8.05238e-13)
(467.328 10.6899 2.20829e-11)
(467.303 10.4254 -1.85987e-11)
(467.105 12.2543 1.24594e-11)
(467.078 11.539 4.15668e-11)
(466.863 13.7984 1.21727e-11)
(466.815 12.6407 3.43444e-11)
(466.609 15.2682 3.87748e-11)
(466.504 13.8108 -1.41704e-11)
(466.372 16.5139 1.82387e-11)
(466.114 15.1942 3.68688e-11)
(466.604 0.450408 -5.67081e-10)
(466.594 1.20209 2.40007e-10)
(466.577 1.77021 4.66825e-11)
(466.558 2.6592 1.58736e-11)
(466.526 3.20957 -3.73329e-11)
(466.499 4.10066 -1.53361e-11)
(466.447 4.67682 -1.26526e-11)
(466.416 5.50585 1.35243e-11)
(466.342 6.17051 4.26663e-11)
(466.31 6.86242 -5.96138e-12)
(466.208 7.69312 -5.17084e-11)
(466.18 8.16097 -2.44361e-11)
(466.048 9.24518 2.69082e-11)
(466.026 9.39686 2.60778e-11)
(465.862 10.822 4.2424e-11)
(465.845 10.5731 -2.22076e-13)
(465.653 12.4098 -3.53506e-11)
(465.635 11.7041 -5.87492e-13)
(465.426 13.9808 2.63351e-11)
(465.39 12.8207 4.68396e-11)
(465.19 15.4848 5.91919e-11)
(465.099 13.9916 -2.93932e-12)
(464.966 16.785 -3.56855e-11)
(464.732 15.3707 -1.03421e-11)
(465.035 0.45544 -6.41399e-10)
(465.025 1.21479 1.70419e-10)
(465.01 1.78886 -3.72987e-11)
(464.991 2.68817 -3.2399e-11)
(464.961 3.24291 -3.71387e-11)
(464.936 4.14642 -3.5814e-11)
(464.888 4.72521 -5.88599e-11)
(464.86 5.56883 -5.37549e-11)
(464.789 6.23452 -4.37415e-11)
(464.761 6.94294 -5.22823e-11)
(464.665 7.77355 -5.17796e-11)
(464.641 8.25917 -4.39407e-11)
(464.515 9.34313 -2.02485e-11)
(464.499 9.51244 -3.77518e-11)
(464.341 10.9389 -4.63692e-11)
(464.332 10.7053 -3.7815e-11)
(464.146 12.5479 -2.85301e-11)
(464.137 11.8516 -1.89798e-11)
(463.935 14.1436 -1.4613e-11)
(463.91 12.9816 -6.8577e-12)
(463.715 15.6789 -3.08907e-11)
(463.64 14.1554 -3.91414e-11)
(463.506 17.0321 -2.87999e-11)
(463.295 15.5258 -2.21873e-11)
(463.411 0.459764 -5.91103e-10)
(463.401 1.2258 2.12068e-10)
(463.387 1.80483 -2.44893e-11)
(463.37 2.71334 3.11491e-11)
(463.341 3.27141 2.9336e-12)
(463.319 4.18626 -1.50202e-11)
(463.273 4.7666 7.97949e-12)
(463.248 5.6238 -5.8123e-12)
(463.181 6.28939 -1.67679e-11)
(463.157 7.01344 2.18633e-11)
(463.065 7.84277 2.86679e-12)
(463.047 8.34542 -1.74459e-11)
(462.926 9.42787 5.55387e-11)
(462.916 9.61432 1.41273e-11)
(462.765 11.0407 -1.16801e-11)
(462.763 10.822 -2.50778e-11)
(462.583 12.6688 -3.5609e-11)
(462.584 11.9818 1.84198e-11)
(462.388 14.2869 7.27711e-12)
(462.374 13.123 -6.34557e-12)
(462.185 15.8502 1.81746e-11)
(462.124 14.301 -1.52728e-11)
(461.992 17.2542 -2.87568e-11)
(461.804 15.6596 2.06966e-11)
(461.731 0.463392 -5.99403e-10)
(461.722 1.23516 2.23686e-10)
(461.708 1.81815 -1.81674e-11)
(461.692 2.73477 3.86663e-11)
(461.666 3.29514 1.00106e-11)
(461.645 4.22027 -8.09747e-12)
(461.602 4.80107 1.48381e-11)
(461.581 5.67082 1.32424e-12)
(461.518 6.33516 -1.00752e-11)
(461.498 7.0739 -3.9149e-11)
(461.411 7.90073 -5.91274e-11)
(461.398 8.41966 -3.93381e-12)
(461.282 9.49926 2.12444e-13)
(461.278 9.70235 -3.8331e-11)
(461.133 11.1272 2.21808e-12)
(461.139 10.9233 -1.22717e-11)
(460.966 12.7726 -2.18727e-11)
(460.975 12.0948 3.1229e-11)
(460.785 14.4107 2.24639e-11)
(460.782 13.2452 6.56024e-12)
(460.6 15.9991 3.19711e-11)
(460.553 14.4271 -3.61142e-12)
(460.424 17.4498 -7.80358e-12)
(460.258 15.7719 3.9584e-11)
(459.997 0.466334 -6.33606e-10)
(459.988 1.24288 2.73592e-10)
(459.975 1.82888 8.79579e-12)
(459.96 2.75253 -1.89165e-11)
(459.935 3.31419 1.0203e-11)
(459.917 4.24852 4.88925e-11)
(459.877 4.8287 -1.24165e-11)
(459.858 5.70998 -4.74979e-11)
(459.799 6.3719 -3.19177e-12)
(459.783 7.1244 2.31335e-11)
(459.701 7.94743 -1.02824e-11)
(459.693 8.48186 -3.77777e-11)
(459.583 9.55721 2.14767e-11)
(459.585 9.77639 3.49564e-11)
(459.446 11.1982 -1.17232e-11)
(459.459 11.0088 -3.84177e-11)
(459.293 12.8589 6.55314e-12)
(459.311 12.1905 4.42389e-11)
(459.128 14.5153 2.35165e-11)
(459.136 13.3486 -5.48688e-12)
(458.959 16.1263 2.69678e-12)
(458.926 14.5325 1.46918e-11)
(458.8 17.6171 -4.49589e-13)
(458.658 15.8628 -2.85113e-11)
(458.207 0.468597 -6.7701e-10)
(458.198 1.24899 2.085e-10)
(458.186 1.83703 -2.4811e-11)
(458.173 2.76665 -3.36886e-11)
(458.15 3.32859 -5.1075e-11)
(458.133 4.27109 -5.85683e-11)
(458.096 4.84958 -1.94868e-11)
(458.08 5.74139 4.45943e-11)
(458.024 6.39972 4.5802e-11)
(458.013 7.16503 3.04824e-11)
(457.935 7.98297 1.8021e-11)
(457.932 8.53207 1.02459e-11)
(457.828 9.60171 2.88872e-11)
(457.836 9.8364 1.55908e-12)
(457.704 11.2535 -1.87665e-11)
(457.724 11.0784 -2.52689e-11)
(457.565 12.9276 -2.24533e-11)
(457.592 12.2688 -2.04708e-11)
(457.416 14.6005 -2.67341e-11)
(457.435 13.4331 -2.41972e-11)
(457.263 16.2321 9.30693e-12)
(457.244 14.6181 4.60721e-11)
(457.122 17.7562 5.82631e-11)
(457.002 15.9314 4.69652e-11)
(456.362 0.470184 -7.2111e-10)
(456.353 1.25349 2.20297e-10)
(456.342 1.84264 9.00749e-12)
(456.33 2.77715 -4.09392e-11)
(456.309 3.3384 -3.06076e-11)
(456.294 4.28801 -7.70269e-12)
(456.26 4.86377 -1.26861e-11)
(456.247 5.7651 9.34125e-12)
(456.195 6.4187 -3.828e-11)
(456.187 7.1959 -2.5517e-11)
(456.114 8.00746 -3.04773e-12)
(456.116 8.57042 -5.18849e-11)
(456.018 9.63283 -6.81219e-12)
(456.032 9.88242 -5.11196e-12)
(455.906 11.2931 2.85609e-12)
(455.934 11.132 2.13914e-11)
(455.781 12.9782 -1.51425e-11)
(455.818 12.3292 1.22094e-11)
(455.648 14.6658 4.00804e-11)
(455.678 13.4985 -1.11228e-11)
(455.513 16.3164 -2.10926e-11)
(455.508 14.6841 -1.12828e-11)
(455.389 17.8679 2.14269e-11)
(455.29 15.9782 3.4406e-11)
(454.462 0.471094 -6.657e-10)
(454.453 1.25639 2.47903e-10)
(454.443 1.84569 -1.16473e-11)