/*--------------------------------*- C++ -*----------------------------------*\
  =========                 |
  \\      /  F ield         | OpenFOAM: The Open Source CFD Toolbox
   \\    /   O peration     | Website:  https://openfoam.org
    \\  /    A nd           | Version:  10
     \\/     M anipulation  |
\*---------------------------------------------------------------------------*/
FoamFile
{
    format      ascii;
    class       volScalarField;
    location    "0.12";
    object      Ma;
}
// * * * * * * * * * * * * * * * * * * * * * * * * * * * * * * * * * * * * * //

dimensions      [0 0 0 0 0 0 0];

internalField   nonuniform List<scalar> 
4176
(
1.84411
1.84405
1.84385
1.84361
1.8432
1.84282
1.84218
1.84167
1.84079
1.84016
1.83906
1.8383
1.83699
1.83608
1.83463
1.83349
1.83203
1.83049
1.82918
1.82707
1.82612
1.82319
1.82301
1.81922
1.84402
1.84396
1.84376
1.84351
1.8431
1.84269
1.84205
1.84151
1.84064
1.83997
1.83886
1.83807
1.83674
1.83579
1.83431
1.83314
1.83164
1.83007
1.82872
1.82657
1.82562
1.82256
1.82234
1.81817
1.84373
1.84366
1.84347
1.84322
1.84283
1.84242
1.84181
1.84127
1.84043
1.83977
1.83869
1.83791
1.83662
1.8357
1.83423
1.83311
1.83162
1.83009
1.82878
1.82668
1.82578
1.82278
1.82256
1.81826
1.84313
1.84307
1.84288
1.84263
1.84224
1.84184
1.84122
1.84068
1.83984
1.83918
1.8381
1.83733
1.83602
1.83511
1.83363
1.83252
1.83101
1.82946
1.82821
1.82605
1.82518
1.82223
1.82204
1.81794
1.84223
1.84216
1.84198
1.84173
1.84134
1.84095
1.84034
1.83981
1.83898
1.83833
1.83726
1.8365
1.83521
1.83432
1.83284
1.83176
1.83024
1.82871
1.82749
1.82531
1.82446
1.82155
1.82135
1.81738
1.84104
1.84098
1.84079
1.84055
1.84016
1.83977
1.83917
1.83864
1.83782
1.83717
1.83612
1.83536
1.83407
1.83319
1.83172
1.83066
1.82912
1.82767
1.82637
1.82426
1.82339
1.8205
1.82027
1.8163
1.83953
1.83946
1.83928
1.83904
1.83866
1.83827
1.83768
1.83716
1.83635
1.8357
1.83467
1.83391
1.83266
1.83178
1.83033
1.82929
1.82774
1.82635
1.82499
1.82297
1.82206
1.81922
1.81896
1.81501
1.83774
1.83767
1.83749
1.83725
1.83688
1.83649
1.83591
1.83539
1.83459
1.83396
1.83293
1.83219
1.83094
1.83008
1.82864
1.82762
1.82607
1.82474
1.82336
1.8214
1.82046
1.81767
1.81739
1.8135
1.83562
1.83555
1.83538
1.83514
1.83477
1.83439
1.83382
1.83331
1.83252
1.83189
1.83088
1.83015
1.82892
1.82808
1.82665
1.82566
1.82412
1.82283
1.82142
1.81953
1.81857
1.81584
1.81554
1.81171
1.83323
1.83316
1.83299
1.83276
1.83239
1.83202
1.83145
1.83095
1.83017
1.82956
1.82856
1.82784
1.82662
1.82579
1.82439
1.82341
1.82188
1.82064
1.81923
1.81741
1.81642
1.81375
1.81344
1.80967
1.83051
1.83045
1.83028
1.83005
1.82969
1.82932
1.82876
1.82827
1.82751
1.8269
1.82592
1.82522
1.82403
1.82321
1.82183
1.82087
1.81936
1.81816
1.81673
1.81498
1.81397
1.81138
1.81105
1.80735
1.82753
1.82746
1.8273
1.82707
1.82672
1.82635
1.82581
1.82532
1.82457
1.82398
1.82302
1.82232
1.82114
1.82035
1.81898
1.81806
1.81656
1.8154
1.81398
1.81229
1.81127
1.80875
1.80841
1.80479
1.82422
1.82416
1.82399
1.82377
1.82342
1.82307
1.82253
1.82206
1.82132
1.82074
1.81979
1.81912
1.81797
1.81719
1.81585
1.81495
1.81347
1.81235
1.81092
1.8093
1.80827
1.80583
1.80548
1.80193
1.82064
1.82058
1.82042
1.8202
1.81986
1.81951
1.81899
1.81852
1.8178
1.81723
1.81631
1.81565
1.81451
1.81376
1.81244
1.81156
1.81011
1.80903
1.80761
1.80606
1.80502
1.80265
1.8023
1.79883
1.81675
1.81668
1.81653
1.81631
1.81598
1.81564
1.81513
1.81467
1.81397
1.81342
1.81251
1.81187
1.81076
1.81003
1.80874
1.80789
1.80646
1.80541
1.80401
1.80252
1.80148
1.79918
1.79884
1.79545
1.81258
1.81252
1.81237
1.81216
1.81184
1.81151
1.811
1.81056
1.80987
1.80934
1.80845
1.80783
1.80673
1.80603
1.80476
1.80394
1.80254
1.80154
1.80015
1.79872
1.79768
1.79547
1.79512
1.79182
1.8081
1.80804
1.80789
1.80769
1.80738
1.80705
1.80656
1.80614
1.80546
1.80494
1.80408
1.80348
1.80242
1.80174
1.8005
1.79971
1.79834
1.79737
1.796
1.79464
1.7936
1.79147
1.79111
1.7879
1.80336
1.8033
1.80315
1.80296
1.80265
1.80234
1.80186
1.80145
1.80079
1.80029
1.79945
1.79887
1.79783
1.79717
1.79596
1.79521
1.79387
1.79294
1.7916
1.7903
1.78926
1.78722
1.78686
1.78374
1.7983
1.79824
1.7981
1.79791
1.79761
1.79731
1.79685
1.79645
1.79581
1.79533
1.79451
1.79396
1.79295
1.79233
1.79115
1.79042
1.78911
1.78822
1.78691
1.78567
1.78464
1.78268
1.78232
1.7793
1.79298
1.79292
1.79279
1.7926
1.79231
1.79202
1.79158
1.79119
1.79058
1.79012
1.78932
1.78879
1.78781
1.78721
1.78606
1.78537
1.7841
1.78325
1.78197
1.78079
1.77977
1.7779
1.77754
1.77461
1.78735
1.78729
1.78716
1.78698
1.7867
1.78642
1.78599
1.78563
1.78503
1.78459
1.78382
1.78332
1.78238
1.78181
1.7807
1.78004
1.7788
1.778
1.77674
1.77563
1.77462
1.77283
1.77247
1.76965
1.78146
1.7814
1.78128
1.78111
1.78084
1.78057
1.78016
1.77981
1.77923
1.77882
1.77807
1.7776
1.77668
1.77614
1.77506
1.77445
1.77325
1.77249
1.77127
1.77022
1.76923
1.76752
1.76717
1.76444
1.77526
1.77521
1.77509
1.77492
1.77467
1.77441
1.77402
1.77369
1.77313
1.77274
1.77202
1.77157
1.7707
1.77019
1.76915
1.76857
1.76741
1.7667
1.76552
1.76452
1.76355
1.76194
1.76158
1.75896
1.76881
1.76876
1.76865
1.76849
1.76825
1.76801
1.76763
1.76731
1.76678
1.76641
1.76573
1.76531
1.76445
1.76398
1.76298
1.76244
1.76133
1.76066
1.75952
1.75858
1.75764
1.75611
1.75577
1.75324
1.76206
1.76201
1.7619
1.76175
1.76152
1.76129
1.76093
1.76064
1.76013
1.75979
1.75913
1.75874
1.75793
1.75749
1.75653
1.75603
1.75496
1.75433
1.75323
1.75236
1.75144
1.75
1.74967
1.74725
1.75506
1.75502
1.75491
1.75477
1.75455
1.75434
1.754
1.75373
1.75324
1.75292
1.75229
1.75193
1.75115
1.75075
1.74983
1.74937
1.74834
1.74776
1.74671
1.7459
1.74501
1.74365
1.74334
1.74102
1.74777
1.74772
1.74763
1.74749
1.74729
1.74709
1.74676
1.74651
1.74606
1.74576
1.74516
1.74484
1.7441
1.74373
1.74285
1.74243
1.74144
1.74091
1.73991
1.73915
1.73829
1.73702
1.73673
1.73452
1.74024
1.7402
1.7401
1.73998
1.73978
1.7396
1.73929
1.73906
1.73863
1.73837
1.7378
1.7375
1.73679
1.73646
1.73562
1.73524
1.7343
1.73382
1.73286
1.73217
1.73135
1.73017
1.72988
1.72778
1.73242
1.73238
1.73229
1.73217
1.73199
1.73182
1.73153
1.73132
1.73092
1.73068
1.73014
1.72988
1.72921
1.72892
1.72812
1.72779
1.72689
1.72646
1.72554
1.7249
1.72413
1.72303
1.72277
1.72077
1.72437
1.72433
1.72425
1.72414
1.72397
1.72382
1.72355
1.72336
1.72297
1.72276
1.72225
1.72202
1.72138
1.72113
1.72038
1.72009
1.71924
1.71886
1.71799
1.71741
1.71668
1.71567
1.71542
1.71353
1.71604
1.716
1.71592
1.71582
1.71566
1.71553
1.71527
1.71511
1.71475
1.71456
1.71408
1.71389
1.71329
1.71308
1.71237
1.71212
1.71131
1.71098
1.71016
1.70964
1.70895
1.70803
1.7078
1.70602
1.70748
1.70744
1.70737
1.70728
1.70714
1.70701
1.70678
1.70663
1.7063
1.70614
1.70569
1.70552
1.70496
1.70479
1.70411
1.70391
1.70316
1.70288
1.70211
1.70165
1.701
1.70016
1.69995
1.69829
1.69865
1.69862
1.69855
1.69847
1.69834
1.69823
1.69801
1.69788
1.69757
1.69744
1.69702
1.69689
1.69637
1.69623
1.6956
1.69544
1.69473
1.6945
1.69378
1.69338
1.69278
1.69202
1.69183
1.69028
1.68961
1.68957
1.68952
1.68944
1.68932
1.68922
1.68903
1.68892
1.68863
1.68852
1.68814
1.68803
1.68754
1.68744
1.68685
1.68674
1.68607
1.6859
1.68523
1.68489
1.68434
1.68365
1.68348
1.68205
1.6803
1.68026
1.68021
1.68015
1.68004
1.67995
1.67977
1.67969
1.67942
1.67934
1.67898
1.67892
1.67846
1.6784
1.67785
1.67778
1.67715
1.67703
1.6764
1.67612
1.67562
1.67501
1.67487
1.67355
1.67078
1.67075
1.6707
1.67064
1.67055
1.67048
1.67031
1.67024
1.67001
1.66995
1.66962
1.66958
1.66915
1.66913
1.66861
1.66859
1.66801
1.66794
1.66736
1.66714
1.66669
1.66615
1.66604
1.66483
1.66101
1.66098
1.66093
1.66088
1.66079
1.66074
1.66059
1.66054
1.66033
1.66029
1.65999
1.65999
1.6596
1.65962
1.65914
1.65915
1.65861
1.65859
1.65805
1.65789
1.65749
1.65702
1.65695
1.65585
1.65104
1.65101
1.65097
1.65092
1.65085
1.6508
1.65067
1.65064
1.65045
1.65044
1.65017
1.65018
1.64982
1.64988
1.64943
1.6495
1.649
1.64903
1.64854
1.64844
1.64807
1.64768
1.64764
1.64666
1.64081
1.64078
1.64075
1.64071
1.64065
1.64061
1.6405
1.64049
1.64031
1.64033
1.64008
1.64014
1.63981
1.6399
1.63949
1.6396
1.63914
1.63922
1.63877
1.63873
1.6384
1.63808
1.63808
1.63721
1.6304
1.63037
1.63034
1.63031
1.63025
1.63023
1.63014
1.63014
1.62999
1.63002
1.6298
1.62988
1.62958
1.62971
1.62934
1.62949
1.62907
1.6292
1.62879
1.62881
1.62853
1.62828
1.62831
1.62754
1.61974
1.61971
1.61969
1.61966
1.61962
1.61961
1.61953
1.61954
1.61941
1.61947
1.61928
1.61939
1.61912
1.61928
1.61895
1.61914
1.61875
1.61894
1.61856
1.61865
1.6184
1.61822
1.61829
1.61761
1.6089
1.60887
1.60885
1.60883
1.6088
1.6088
1.60873
1.60876
1.60865
1.60873
1.60856
1.60869
1.60846
1.60865
1.60835
1.60859
1.60824
1.60847
1.60814
1.60828
1.60808
1.60797
1.60807
1.60748
1.59781
1.59779
1.59777
1.59776
1.59774
1.59775
1.5977
1.59775
1.59766
1.59776
1.59761
1.59778
1.59757
1.5978
1.59752
1.5978
1.59748
1.59777
1.59747
1.59767
1.5975
1.59748
1.59761
1.59711
1.58655
1.58653
1.58652
1.58652
1.5865
1.58652
1.58648
1.58655
1.58648
1.5866
1.58648
1.58666
1.58648
1.58674
1.5865
1.58682
1.58654
1.58687
1.58661
1.58688
1.58673
1.58679
1.58694
1.58655
1.57506
1.57504
1.57504
1.57504
1.57503
1.57506
1.57504
1.57512
1.57507
1.57521
1.57512
1.57533
1.57518
1.57547
1.57526
1.57562
1.57536
1.57575
1.57551
1.57584
1.57572
1.57586
1.57603
1.57574
1.5634
1.56338
1.56338
1.56339
1.56339
1.56343
1.56343
1.56352
1.56349
1.56365
1.56358
1.56381
1.56369
1.56401
1.56383
1.56423
1.56401
1.56445
1.56424
1.56463
1.56453
1.56474
1.56494
1.56474
1.55152
1.5515
1.55151
1.55152
1.55153
1.55158
1.55159
1.5517
1.55169
1.55187
1.55182
1.55209
1.55199
1.55235
1.55219
1.55263
1.55244
1.55292
1.55274
1.55319
1.55312
1.55341
1.5536
1.55352
1.53948
1.53946
1.53947
1.53948
1.5395
1.53957
1.53959
1.53972
1.53972
1.53992
1.5399
1.54018
1.54011
1.54049
1.54037
1.54085
1.54069
1.54122
1.54106
1.54158
1.54152
1.5419
1.54209
1.54212
1.52722
1.52721
1.52722
1.52724
1.52727
1.52734
1.52738
1.52752
1.52754
1.52776
1.52776
1.52808
1.52803
1.52845
1.52835
1.52886
1.52873
1.52931
1.52917
1.52976
1.52971
1.53018
1.53036
1.53049
1.51482
1.5148
1.51481
1.51484
1.51488
1.51497
1.51501
1.51517
1.51521
1.51545
1.51546
1.5158
1.51578
1.51622
1.51616
1.51671
1.5166
1.51723
1.51711
1.51777
1.51773
1.51829
1.51846
1.51869
1.50221
1.5022
1.50221
1.50225
1.50229
1.50239
1.50245
1.50262
1.50268
1.50293
1.50298
1.50334
1.50334
1.50381
1.50377
1.50436
1.50426
1.50495
1.50485
1.50557
1.50552
1.50618
1.50636
1.50668
1.48946
1.48945
1.48947
1.48951
1.48957
1.48967
1.48974
1.48992
1.49
1.49027
1.49033
1.49071
1.49073
1.49124
1.49122
1.49185
1.49178
1.49252
1.49242
1.49322
1.49317
1.49391
1.49409
1.4945
1.47653
1.47652
1.47654
1.47659
1.47665
1.47676
1.47685
1.47704
1.47713
1.47742
1.4775
1.47791
1.47795
1.47849
1.47848
1.47915
1.47909
1.47989
1.47979
1.48067
1.48061
1.48143
1.48162
1.48212
1.46347
1.46346
1.46349
1.46353
1.46361
1.46372
1.46382
1.46403
1.46413
1.46444
1.46453
1.46496
1.46501
1.46559
1.46559
1.46632
1.46625
1.46712
1.46701
1.46797
1.46792
1.4688
1.469
1.46958
1.45024
1.45023
1.45026
1.45031
1.45039
1.45051
1.45062
1.45084
1.45095
1.45128
1.45139
1.45185
1.45191
1.45252
1.45252
1.4533
1.45322
1.45417
1.45405
1.45507
1.45503
1.45597
1.45618
1.45684
1.4369
1.43688
1.43692
1.43697
1.43706
1.43719
1.43731
1.43753
1.43766
1.43801
1.43811
1.4386
1.43866
1.43932
1.43931
1.44016
1.44007
1.44106
1.44097
1.44202
1.44201
1.443
1.44322
1.44395
1.4234
1.42338
1.42342
1.42348
1.42357
1.4237
1.42383
1.42407
1.4242
1.42457
1.42468
1.42521
1.42526
1.42597
1.42595
1.42683
1.42676
1.42778
1.4277
1.42879
1.4288
1.42984
1.43008
1.43087
1.4098
1.40978
1.40983
1.40988
1.40998
1.41012
1.41026
1.4105
1.41064
1.41103
1.41112
1.41169
1.41173
1.41247
1.41247
1.41337
1.41333
1.41437
1.41432
1.41544
1.41547
1.41655
1.41679
1.41766
1.39606
1.39604
1.39609
1.39614
1.39625
1.39638
1.39653
1.39679
1.39692
1.39733
1.39744
1.39802
1.39808
1.39883
1.39884
1.39976
1.39973
1.4008
1.40077
1.40192
1.40196
1.40309
1.40334
1.40427
1.38223
1.38221
1.38226
1.38232
1.38243
1.38256
1.38273
1.38297
1.38313
1.38354
1.38365
1.38424
1.38431
1.38507
1.38511
1.38604
1.38603
1.38711
1.3871
1.38828
1.38834
1.3895
1.38976
1.39075
1.36828
1.36826
1.36831
1.36836
1.36848
1.36861
1.36878
1.36902
1.3692
1.3696
1.36974
1.37033
1.37042
1.37118
1.37123
1.37217
1.37218
1.37327
1.37328
1.37448
1.37455
1.37575
1.37602
1.37706
1.35424
1.35423
1.35427
1.35433
1.35445
1.35459
1.35476
1.355
1.3552
1.35558
1.35574
1.35631
1.35642
1.35719
1.35726
1.3582
1.35823
1.35934
1.35936
1.36058
1.36067
1.3619
1.36217
1.36326
1.34009
1.34008
1.34012
1.34018
1.3403
1.34044
1.34062
1.34085
1.34106
1.34143
1.34163
1.34219
1.34232
1.34308
1.34316
1.34411
1.34415
1.34527
1.34531
1.34654
1.34664
1.3479
1.34817
1.34931
1.32587
1.32585
1.3259
1.32596
1.32608
1.32622
1.3264
1.32663
1.32685
1.32721
1.32742
1.32796
1.32812
1.32888
1.32898
1.32993
1.32999
1.33111
1.33116
1.33241
1.33252
1.33381
1.33408
1.33526
1.31154
1.31152
1.31157
1.31162
1.31174
1.31188
1.31206
1.31229
1.31253
1.31288
1.31311
1.31364
1.31382
1.31457
1.31468
1.31563
1.3157
1.31683
1.3169
1.31816
1.31828
1.31958
1.31986
1.32108
1.29713
1.29711
1.29716
1.29722
1.29734
1.29748
1.29766
1.29789
1.29813
1.29848
1.29872
1.29924
1.29944
1.30018
1.30031
1.30127
1.30135
1.30249
1.30256
1.30383
1.30396
1.30529
1.30557
1.30681
1.28262
1.2826
1.28265
1.2827
1.28282
1.28296
1.28315
1.28338
1.28363
1.28397
1.28423
1.28475
1.28496
1.2857
1.28584
1.2868
1.28689
1.28803
1.28812
1.2894
1.28953
1.29087
1.29116
1.29243
1.26803
1.26801
1.26806
1.26812
1.26824
1.26838
1.26858
1.26881
1.26906
1.2694
1.26967
1.27018
1.27042
1.27115
1.27131
1.27227
1.27237
1.27352
1.27362
1.2749
1.27505
1.2764
1.27669
1.27799
1.25334
1.25332
1.25337
1.25343
1.25356
1.2537
1.2539
1.25413
1.25439
1.25474
1.25503
1.25554
1.25579
1.25651
1.25668
1.25765
1.25776
1.25892
1.25902
1.26032
1.26047
1.26183
1.26212
1.26344
1.23858
1.23856
1.23861
1.23868
1.23881
1.23896
1.23917
1.23941
1.23968
1.24002
1.24033
1.24083
1.24111
1.24183
1.24202
1.24299
1.2431
1.24427
1.24438
1.24568
1.24584
1.24721
1.2475
1.24884
1.22374
1.22372
1.22377
1.22384
1.22398
1.22413
1.22434
1.22459
1.22487
1.22523
1.22556
1.22605
1.22635
1.22706
1.22728
1.22823
1.22837
1.22954
1.22966
1.23096
1.23113
1.2325
1.23279
1.23414
1.20886
1.20884
1.2089
1.20897
1.20911
1.20927
1.20949
1.20975
1.21004
1.21039
1.21073
1.21122
1.21156
1.21225
1.21251
1.21344
1.2136
1.21477
1.21489
1.21619
1.21637
1.21774
1.21803
1.21939
1.19394
1.19392
1.19398
1.19405
1.19419
1.19436
1.19458
1.19484
1.19514
1.19551
1.19586
1.19634
1.1967
1.19737
1.19766
1.19857
1.19876
1.19991
1.20004
1.20134
1.20152
1.20289
1.20318
1.20454
1.17905
1.17903
1.17909
1.17916
1.1793
1.17947
1.17969
1.17995
1.18024
1.1806
1.18095
1.18143
1.18181
1.18246
1.18278
1.18365
1.18388
1.185
1.18515
1.18644
1.18662
1.18799
1.18827
1.18963
1.16419
1.16417
1.16422
1.16428
1.16442
1.16457
1.16478
1.16503
1.16532
1.16567
1.16602
1.16648
1.16686
1.16748
1.16782
1.16866
1.16892
1.17
1.17017
1.17145
1.17162
1.17298
1.17325
1.17462
1.1494
1.14938
1.14942
1.14948
1.1496
1.14974
1.14994
1.15017
1.15043
1.15075
1.15108
1.15152
1.15188
1.15248
1.15282
1.15362
1.1539
1.15494
1.15513
1.15638
1.15655
1.15791
1.15817
1.15953
1.13467
1.13464
1.13467
1.13471
1.13481
1.13493
1.1351
1.1353
1.13554
1.13584
1.13613
1.13654
1.13687
1.13742
1.13775
1.13851
1.13878
1.13977
1.13998
1.1412
1.14137
1.14272
1.14297
1.14433
1.11997
1.11994
1.11996
1.11999
1.12007
1.12017
1.12031
1.12048
1.12068
1.12093
1.12119
1.12155
1.12185
1.12236
1.12265
1.12336
1.12361
1.12455
1.12475
1.12593
1.12609
1.12744
1.12767
1.12904
1.10522
1.10518
1.1052
1.10521
1.10528
1.10535
1.10547
1.1056
1.10578
1.106
1.10622
1.10653
1.10679
1.10725
1.10749
1.10815
1.10835
1.10925
1.1094
1.11055
1.11067
1.11201
1.11222
1.11361
1.09033
1.09028
1.0903
1.0903
1.09037
1.09042
1.09054
1.09064
1.09081
1.09098
1.09119
1.09146
1.0917
1.09211
1.0923
1.09295
1.09305
1.09397
1.094
1.09516
1.09518
1.0965
1.09666
1.09802
1.07515
1.07509
1.07512
1.07511
1.07518
1.07523
1.07535
1.07545
1.07563
1.0758
1.076
1.07626
1.07648
1.07687
1.07703
1.07768
1.07769
1.07864
1.07856
1.07973
1.07965
1.08095
1.08103
1.0823
1.05954
1.05949
1.05951
1.05953
1.0596
1.05968
1.05981
1.05995
1.06013
1.06034
1.06056
1.06084
1.06109
1.06146
1.06168
1.06228
1.06233
1.06324
1.06315
1.0643
1.06417
1.06546
1.06547
1.06667
1.04337
1.04333
1.04336
1.04339
1.04349
1.0436
1.04376
1.04395
1.04418
1.04443
1.04471
1.04504
1.04534
1.04576
1.04606
1.04665
1.04681
1.04768
1.04765
1.04882
1.04866
1.05
1.04995
1.05116
1.02657
1.02653
1.02657
1.02663
1.02676
1.02691
1.02713
1.02736
1.02765
1.02798
1.02834
1.02875
1.02915
1.02965
1.03006
1.03072
1.031
1.03192
1.03197
1.03322
1.03308
1.03451
1.03443
1.03574
1.00908
1.00903
1.0091
1.00917
1.00934
1.00952
1.0098
1.01008
1.01046
1.01085
1.01132
1.0118
1.01233
1.01294
1.01348
1.01426
1.01467
1.01575
1.01591
1.01733
1.01725
1.01885
1.01877
1.02025
0.990937
0.99089
0.99097
0.991059
0.991255
0.991475
0.991792
0.992132
0.99257
0.993028
0.993583
0.994165
0.99481
0.995531
0.996222
0.99712
0.997735
0.998966
0.999309
1.00093
1.00101
1.00285
1.00283
1.0046
0.972191
0.97215
0.972227
0.972338
0.972542
0.972794
0.973132
0.973523
0.973994
0.974525
0.975121
0.975795
0.97651
0.977338
0.978153
0.979149
0.979997
0.981282
0.981962
0.983683
0.984058
0.986192
0.98634
0.988532
0.95296
0.952923
0.952999
0.95312
0.953332
0.953599
0.953952
0.954363
0.954856
0.955418
0.956053
0.956771
0.95754
0.958425
0.95932
0.960392
0.961385
0.962703
0.963697
0.965403
0.966199
0.968482
0.968933
0.97169
0.933353
0.933317
0.93339
0.93351
0.933722
0.933989
0.934345
0.934761
0.935261
0.935828
0.936472
0.937199
0.937987
0.938888
0.939814
0.940909
0.941958
0.943298
0.944423
0.946099
0.947198
0.949437
0.950216
0.953419
0.913511
0.913473
0.913541
0.913658
0.913864
0.914125
0.914473
0.914876
0.915369
0.915923
0.916561
0.917272
0.918053
0.918933
0.919855
0.920925
0.921972
0.923285
0.924409
0.926057
0.927168
0.929359
0.930187
0.933385
0.893543
0.8935
0.893563
0.893669
0.893866
0.894109
0.894445
0.894829
0.895304
0.89583
0.896445
0.89712
0.897877
0.898714
0.899606
0.900623
0.901638
0.902885
0.903956
0.905546
0.906545
0.908689
0.909387
0.912322
0.873564
0.873516
0.873574
0.873669
0.873854
0.87408
0.874397
0.874753
0.875206
0.875696
0.876285
0.876915
0.877637
0.878418
0.879269
0.880218
0.881185
0.882346
0.883358
0.884849
0.885769
0.887789
0.888427
0.891144
0.853657
0.853602
0.853654
0.853733
0.853906
0.854108
0.854407
0.854732
0.855159
0.855606
0.856163
0.856738
0.857424
0.858139
0.858945
0.859817
0.86073
0.861796
0.862751
0.864131
0.864981
0.866852
0.86745
0.869959
0.833903
0.83384
0.833892
0.833951
0.834118
0.834291
0.834576
0.834859
0.835269
0.835663
0.836199
0.836707
0.837365
0.838
0.838771
0.839554
0.840416
0.841382
0.842277
0.843548
0.844333
0.846048
0.846613
0.848914
0.814354
0.814286
0.814337
0.814373
0.814535
0.814673
0.81495
0.815186
0.815583
0.815913
0.816435
0.816861
0.817507
0.818042
0.818797
0.819468
0.820299
0.821158
0.821992
0.823151
0.823885
0.825437
0.825974
0.828067
0.795071
0.794999
0.795042
0.795069
0.795213
0.795334
0.795584
0.795792
0.796158
0.796448
0.796936
0.797306
0.797915
0.798374
0.799094
0.799668
0.800462
0.801211
0.802
0.803037
0.803725
0.805114
0.805626
0.807514
0.776083
0.77601
0.776041
0.776063
0.776181
0.776295
0.776506
0.776704
0.777016
0.77729
0.777714
0.77806
0.778599
0.77902
0.779668
0.780183
0.780914
0.781567
0.782321
0.783216
0.78387
0.7851
0.78559
0.787276
0.757431
0.757356
0.757378
0.757395
0.757492
0.757594
0.757775
0.757954
0.758226
0.758477
0.758848
0.759165
0.759639
0.760024
0.7606
0.761062
0.761725
0.762295
0.763006
0.763756
0.764388
0.765463
0.765934
0.767422
0.739132
0.739056
0.739068
0.739077
0.739158
0.739243
0.739399
0.739555
0.739792
0.740012
0.740338
0.74062
0.741039
0.741379
0.741894
0.742298
0.7429
0.743388
0.74405
0.744671
0.745289
0.746205
0.746656
0.747952
0.721213
0.721137
0.721142
0.721144
0.721209
0.721279
0.721413
0.721545
0.721753
0.721943
0.72223
0.722472
0.722844
0.723137
0.723597
0.723942
0.724485
0.724896
0.725504
0.726015
0.726617
0.72737
0.727807
0.728916
0.703683
0.703607
0.703605
0.703598
0.703649
0.703703
0.703815
0.703924
0.704102
0.704261
0.704511
0.704715
0.705043
0.705289
0.705698
0.705985
0.706474
0.70681
0.707365
0.707777
0.708352
0.708952
0.709378
0.710306
0.686561
0.686485
0.686478
0.686464
0.686503
0.686542
0.686636
0.686722
0.686875
0.687003
0.68722
0.687387
0.687673
0.687873
0.688235
0.688465
0.688903
0.68917
0.689673
0.689996
0.690531
0.690989
0.691409
0.692164
0.669849
0.669773
0.66976
0.669738
0.669765
0.66979
0.669864
0.669929
0.670055
0.670156
0.67034
0.670471
0.670719
0.670874
0.671192
0.671368
0.671757
0.671957
0.67241
0.67265
0.673142
0.673472
0.673882
0.674477
0.653561
0.653485
0.653467
0.65344
0.653456
0.653468
0.653526
0.65357
0.653674
0.653747
0.653902
0.653998
0.65421
0.654322
0.654598
0.654723
0.655065
0.655202
0.655608
0.655768
0.656216
0.656436
0.656835
0.657275
0.637691
0.637616
0.637594
0.63756
0.637565
0.637564
0.637605
0.63763
0.637711
0.637758
0.637885
0.637948
0.638126
0.638199
0.638435
0.638511
0.63881
0.638886
0.639246
0.639332
0.639736
0.639859
0.640246
0.640536
0.622253
0.622178
0.622153
0.622113
0.622111
0.622097
0.622124
0.622131
0.622192
0.622215
0.622315
0.622347
0.622493
0.622528
0.622726
0.622756
0.623014
0.623035
0.623352
0.623368
0.623732
0.623765
0.624132
0.624283
0.607235
0.607162
0.607132
0.607088
0.607076
0.607051
0.607063
0.607053
0.607095
0.607094
0.607169
0.607173
0.607288
0.607287
0.607451
0.607437
0.607656
0.607624
0.607901
0.607851
0.608178
0.60813
0.608469
0.608492
0.59265
0.592577
0.592545
0.592496
0.592477
0.592442
0.592442
0.592416
0.592439
0.592417
0.592469
0.592445
0.592532
0.592497
0.592628
0.592573
0.592756
0.592673
0.592913
0.592801
0.593091
0.592965
0.593276
0.593185
0.578481
0.57841
0.578375
0.578322
0.578294
0.57825
0.578237
0.578197
0.578203
0.578161
0.578191
0.578141
0.578201
0.578135
0.578234
0.578141
0.578289
0.57816
0.578363
0.578193
0.578448
0.578247
0.57853
0.578337
0.56474
0.564671
0.564633
0.564576
0.564543
0.56449
0.564466
0.564412
0.564402
0.564342
0.564351
0.564278
0.564313
0.564218
0.564288
0.564159
0.564275
0.564102
0.564272
0.564046
0.56427
0.563998
0.564257
0.563967
0.551407
0.55134
0.5513
0.55124
0.5512
0.551139
0.551105
0.551038
0.551014
0.550936
0.550927
0.550831
0.550844
0.550721
0.550765
0.550602
0.550689
0.550474
0.550613
0.550337
0.550532
0.550194
0.550433
0.550052
0.538493
0.538428
0.538387
0.538324
0.538278
0.53821
0.538167
0.538089
0.538051
0.537957
0.537931
0.537815
0.537806
0.537658
0.537677
0.537484
0.537544
0.537291
0.537403
0.537079
0.537249
0.536849
0.537071
0.536607
0.525976
0.525913
0.52587
0.525805
0.525755
0.52568
0.525628
0.525539
0.525489
0.525381
0.525338
0.525203
0.525175
0.525004
0.525001
0.524779
0.524814
0.524527
0.524613
0.524246
0.524393
0.523937
0.524144
0.523604
0.513866
0.513805
0.513761
0.513693
0.513639
0.513558
0.513499
0.5134
0.513339
0.513217
0.51316
0.513008
0.512963
0.512769
0.512746
0.512498
0.512511
0.512191
0.512255
0.511848
0.511974
0.511467
0.511661
0.511051
0.502139
0.50208
0.502035
0.501966
0.501907
0.501821
0.501755
0.501647
0.501576
0.501442
0.501372
0.501204
0.501142
0.500929
0.500887
0.500615
0.500607
0.500259
0.500301
0.499857
0.499965
0.499411
0.499593
0.498921
0.490803
0.490746
0.490701
0.49063
0.490568
0.490477
0.490404
0.490289
0.490209
0.490063
0.489981
0.489799
0.489722
0.489491
0.489432
0.489138
0.489111
0.488736
0.488759
0.488283
0.488373
0.487776
0.487948
0.487217
0.479836
0.479781
0.479735
0.479663
0.479598
0.479503
0.479424
0.479301
0.479213
0.479057
0.478964
0.478768
0.478678
0.478431
0.478355
0.478042
0.477997
0.477598
0.477603
0.477096
0.477171
0.476535
0.476696
0.475915
0.469243
0.46919
0.469144
0.469071
0.469003
0.468904
0.46882
0.468691
0.468595
0.46843
0.468326
0.468119
0.468016
0.467754
0.467664
0.467333
0.467271
0.466851
0.466839
0.466305
0.466365
0.465694
0.465844
0.465015
0.459002
0.458952
0.458905
0.458832
0.458762
0.458659
0.45857
0.458435
0.458332
0.458159
0.458046
0.457827
0.457713
0.457438
0.457333
0.456987
0.456909
0.45647
0.456441
0.455883
0.455928
0.455225
0.455366
0.454496
0.449119
0.44907
0.449024
0.448949
0.448877
0.448772
0.448679
0.448538
0.448429
0.448248
0.448127
0.447898
0.447773
0.447486
0.447369
0.447008
0.446916
0.446459
0.446415
0.445835
0.445866
0.445135
0.445266
0.444355
0.439571
0.439525
0.439478
0.439403
0.43933
0.439221
0.439125
0.438979
0.438864
0.438676
0.438547
0.43831
0.438175
0.437877
0.437748
0.437373
0.437268
0.436795
0.436737
0.436138
0.436155
0.435398
0.435519
0.434575
0.430363
0.430318
0.430272
0.430196
0.430121
0.43001
0.429911
0.429761
0.429641
0.429447
0.429311
0.429065
0.428922
0.428613
0.428475
0.428088
0.427971
0.427484
0.427412
0.426796
0.426799
0.42602
0.426131
0.42515
0.421474
0.421432
0.421385
0.421309
0.421233
0.42112
0.421017
0.420864
0.420739
0.420539
0.420397
0.420144
0.419993
0.419675
0.419528
0.41913
0.419002
0.418502
0.418417
0.417786
0.417776
0.416978
0.417078
0.416072
0.412905
0.412865
0.412819
0.412743
0.412665
0.412551
0.412446
0.412289
0.41216
0.411955
0.411808
0.411548
0.411391
0.411065
0.410909
0.410501
0.410365
0.409853
0.409759
0.409114
0.409092
0.408278
0.408367
0.407334
0.40464
0.404602
0.404556
0.40448
0.404402
0.404286
0.404178
0.404018
0.403886
0.403677
0.403525
0.403259
0.403096
0.402762
0.402601
0.402183
0.40204
0.401516
0.401415
0.400756
0.400728
0.399897
0.39998
0.398932
0.396678
0.396641
0.396595
0.396519
0.39644
0.396323
0.396214
0.396051
0.395917
0.395703
0.395548
0.395277
0.395109
0.394769
0.394602
0.394175
0.394027
0.393492
0.393387
0.392714
0.392683
0.391837
0.391916
0.390851
0.389002
0.388967
0.388922
0.388846
0.388767
0.388648
0.388538
0.388373
0.388236
0.388019
0.38786
0.387584
0.387412
0.387065
0.386894
0.38646
0.386307
0.385763
0.385653
0.38497
0.384935
0.384077
0.384152
0.38308
0.381611
0.381578
0.381533
0.381458
0.381378
0.381258
0.381147
0.38098
0.380841
0.380621
0.380459
0.380179
0.380004
0.379652
0.379477
0.379037
0.378879
0.378328
0.378214
0.377522
0.377483
0.376615
0.376686
0.375601
0.374492
0.37446
0.374416
0.374341
0.374261
0.37414
0.374028
0.373859
0.373718
0.373495
0.373331
0.373047
0.372869
0.372513
0.372333
0.371888
0.371726
0.371169
0.37105
0.370352
0.370307
0.369432
0.369498
0.368409
0.36764
0.367609
0.367565
0.36749
0.36741
0.367289
0.367176
0.367006
0.366864
0.366639
0.366473
0.366186
0.366005
0.365646
0.365462
0.365014
0.364847
0.364286
0.364161
0.363459
0.363408
0.362528
0.362588
0.361488
0.361044
0.361015
0.360972
0.360897
0.360817
0.360695
0.360582
0.36041
0.360267
0.360039
0.359872
0.359582
0.359399
0.359036
0.358849
0.358397
0.358226
0.357662
0.357531
0.356825
0.356768
0.355884
0.355939
0.354836
0.3547
0.354672
0.354629
0.354555
0.354475
0.354353
0.354239
0.354066
0.353922
0.353693
0.353524
0.353232
0.353047
0.352681
0.352492
0.352037
0.351862
0.351295
0.35116
0.350451
0.350389
0.349501
0.349551
0.34844
0.348597
0.34857
0.348528
0.348454
0.348374
0.348252
0.348138
0.347963
0.347819
0.347588
0.347419
0.347124
0.346938
0.346569
0.346378
0.34592
0.345742
0.345172
0.345033
0.344322
0.344255
0.343363
0.343409
0.342298
0.342731
0.342705
0.342663
0.342589
0.34251
0.342387
0.342273
0.342098
0.341953
0.341721
0.341551
0.341254
0.341067
0.340696
0.340504
0.340044
0.339864
0.339292
0.33915
0.338436
0.338365
0.337471
0.337513
0.336397
0.337092
0.337067
0.337026
0.336952
0.336873
0.33675
0.336636
0.33646
0.336316
0.336081
0.335912
0.335613
0.335426
0.335052
0.33486
0.334396
0.334216
0.33364
0.333497
0.332781
0.332708
0.331812
0.331849
0.330735
0.331675
0.331651
0.33161
0.331537
0.331458
0.331334
0.331222
0.331044
0.330901
0.330664
0.330496
0.330194
0.330009
0.329632
0.329441
0.328973
0.328795
0.328216
0.328073
0.327354
0.32728
0.326382
0.326417
0.325302
0.326472
0.326449
0.326409
0.326336
0.326258
0.326134
0.326022
0.325843
0.325701
0.325462
0.325296
0.324991
0.324808
0.324427
0.324239
0.323766
0.323591
0.323007
0.322868
0.322143
0.322072
0.32117
0.321205
0.320092
0.321478
0.321456
0.321416
0.321343
0.321266
0.321141
0.321031
0.32085
0.32071
0.320469
0.320305
0.319997
0.319818
0.319431
0.319249
0.31877
0.3186
0.31801
0.317877
0.317145
0.317081
0.316173
0.316209
0.315099
0.316687
0.316665
0.316626
0.316553
0.316477
0.316351
0.316242
0.31606
0.315922
0.315679
0.315518
0.315206
0.315031
0.314639
0.314462
0.313977
0.313815
0.313216
0.313091
0.312351
0.312295
0.311384
0.31142
0.310315
0.312091
0.312069
0.312031
0.311958
0.311883
0.311756
0.311649
0.311465
0.31133
0.311084
0.310927
0.310611
0.310441
0.310044
0.309874
0.309381
0.309227
0.30862
0.308504
0.307758
0.307708
0.306795
0.306832
0.305733
0.307686
0.307665
0.307627
0.307554
0.307481
0.307353
0.307248
0.307062
0.30693
0.30668
0.306527
0.306207
0.306042
0.30564
0.305476
0.304977
0.304831
0.304216
0.30411
0.303356
0.303312
0.302399
0.302435
0.301342
0.303466
0.303445
0.303408
0.303334
0.303262
0.303134
0.30303
0.302843
0.302714
0.302462
0.302313
0.301989
0.301829
0.301423
0.301264
0.300761
0.300621
0.3
0.299902
0.299142
0.299103
0.298189
0.298225
0.297136
0.299424
0.299404
0.299367
0.299293
0.299223
0.299093
0.298992
0.298803
0.298676
0.298422
0.298277
0.297949
0.297794
0.297383
0.297232
0.296722
0.296591
0.295963
0.295873
0.295109
0.295073
0.294161
0.294195
0.293111
0.295559
0.295538
0.295503
0.295428
0.295359
0.295228
0.29513
0.294938
0.294816
0.294557
0.294418
0.294085
0.293939
0.293519
0.293378
0.292858
0.29274
0.292102
0.292021
0.291253
0.29122
0.290309
0.290342
0.289265
0.29186
0.291839
0.291805
0.291729
0.291663
0.291529
0.291435
0.291239
0.291123
0.290858
0.290728
0.290386
0.290251
0.28982
0.289694
0.289162
0.289056
0.288411
0.288336
0.287568
0.287536
0.286629
0.28666
0.28559
0.288328
0.288308
0.288274
0.288197
0.288134
0.287997
0.287908
0.287707
0.287598
0.287326
0.287206
0.286853
0.286732
0.286289
0.286175
0.285634
0.285537
0.284888
0.284817
0.284049
0.284018
0.283115
0.283144
0.282082
0.284954
0.284934
0.284902
0.284823
0.284763
0.284622
0.284539
0.284332
0.284232
0.283951
0.283842
0.28348
0.283369
0.282919
0.282814
0.282268
0.282176
0.281526
0.281457
0.280692
0.280661
0.279763