/*--------------------------------*- C++ -*----------------------------------*\
  =========                 |
  \\      /  F ield         | OpenFOAM: The Open Source CFD Toolbox
   \\    /   O peration     | Website:  https://openfoam.org
    \\  /    A nd           | Version:  10
     \\/     M anipulation  |
\*---------------------------------------------------------------------------*/
FoamFile
{
    format      ascii;
    class       volScalarField;
    location    "0.12";
    object      p;
}
// * * * * * * * * * * * * * * * * * * * * * * * * * * * * * * * * * * * * * //

dimensions      [1 -1 -2 0 0 0 0];

internalField   nonuniform List<scalar> 
4176
(
1603.08
1603.27
1603.78
1604.41
1605.48
1606.5
1608.13
1609.53
1611.72
1613.5
1616.21
1618.43
1621.55
1624.32
1627.69
1631.2
1634.49
1639.12
1642.08
1648.07
1650.42
1658.05
1659.23
1667.97
1603.37
1603.55
1604.02
1604.63
1605.59
1606.59
1608.06
1609.43
1611.41
1613.15
1615.62
1617.76
1620.66
1623.27
1626.46
1629.71
1632.85
1637.13
1639.96
1645.52
1647.63
1655.08
1656.32
1666.1
1604.59
1604.79
1605.26
1605.88
1606.86
1607.88
1609.38
1610.77
1612.8
1614.56
1617.09
1619.25
1622.24
1624.87
1628.17
1631.44
1634.71
1639.09
1641.9
1647.62
1649.7
1657.05
1658.2
1667.66
1606.44
1606.62
1607.09
1607.7
1608.66
1609.65
1611.13
1612.49
1614.48
1616.2
1618.71
1620.79
1623.77
1626.3
1629.6
1632.77
1636.03
1640.43
1642.95
1648.84
1650.78
1658.02
1659.09
1667.95
1609.09
1609.28
1609.73
1610.35
1611.3
1612.3
1613.76
1615.13
1617.1
1618.83
1621.32
1623.41
1626.36
1628.89
1632.2
1635.32
1638.69
1642.92
1645.61
1651.41
1653.42
1660.62
1661.77
1670.62
1612.46
1612.65
1613.1
1613.71
1614.65
1615.64
1617.08
1618.44
1620.38
1622.1
1624.54
1626.63
1629.54
1632.05
1635.32
1638.38
1641.8
1645.81
1648.74
1654.28
1656.37
1663.48
1664.7
1673.64
1616.61
1616.8
1617.24
1617.85
1618.78
1619.76
1621.18
1622.54
1624.46
1626.17
1628.58
1630.66
1633.54
1636.02
1639.28
1642.29
1645.72
1649.61
1652.63
1658.02
1660.19
1667.2
1668.45
1677.28
1621.51
1621.69
1622.14
1622.73
1623.65
1624.63
1626.03
1627.37
1629.27
1630.96
1633.35
1635.4
1638.25
1640.7
1643.94
1646.89
1650.33
1654.09
1657.19
1662.4
1664.65
1671.55
1672.84
1681.57
1627.17
1627.35
1627.79
1628.39
1629.29
1630.26
1631.65
1632.97
1634.85
1636.52
1638.88
1640.91
1643.73
1646.14
1649.36
1652.25
1655.69
1659.33
1662.5
1667.54
1669.86
1676.63
1677.96
1686.57
1633.59
1633.78
1634.21
1634.8
1635.7
1636.65
1638.02
1639.33
1641.19
1642.84
1645.17
1647.16
1649.96
1652.32
1655.52
1658.35
1661.78
1665.31
1668.53
1673.4
1675.81
1682.39
1683.77
1692.25
1640.79
1640.98
1641.4
1641.99
1642.87
1643.82
1645.17
1646.46
1648.29
1649.92
1652.22
1654.18
1656.95
1659.27
1662.43
1665.2
1668.62
1672.05
1675.3
1680
1682.47
1688.89
1690.31
1698.64
1648.77
1648.95
1649.37
1649.95
1650.82
1651.75
1653.09
1654.36
1656.17
1657.77
1660.04
1661.97
1664.7
1666.97
1670.1
1672.81
1676.2
1679.53
1682.82
1687.35
1689.87
1696.12
1697.56
1705.74
1657.53
1657.71
1658.13
1658.7
1659.55
1660.47
1661.79
1663.04
1664.82
1666.4
1668.64
1670.53
1673.22
1675.45
1678.54
1681.18
1684.55
1687.78
1691.08
1695.45
1698.01
1704.08
1705.54
1713.57
1667.09
1667.27
1667.68
1668.24
1669.08
1669.99
1671.28
1672.51
1674.26
1675.81
1678.01
1679.87
1682.52
1684.7
1687.75
1690.32
1693.66
1696.79
1700.1
1704.31
1706.91
1712.8
1714.26
1722.12
1677.45
1677.63
1678.03
1678.58
1679.41
1680.3
1681.57
1682.78
1684.5
1686.01
1688.18
1689.99
1692.61
1694.73
1697.74
1700.24
1703.54
1706.57
1709.88
1713.93
1716.56
1722.27
1723.73
1731.42
1688.63
1688.81
1689.2
1689.74
1690.55
1691.43
1692.67
1693.85
1695.54
1697.02
1699.15
1700.92
1703.49
1705.56
1708.52
1710.95
1714.2
1717.13
1720.43
1724.31
1726.97
1732.48
1733.97
1741.47
1700.63
1700.81
1701.2
1701.72
1702.52
1703.37
1704.59
1705.74
1707.39
1708.84
1710.92
1712.65
1715.17
1717.18
1720.09
1722.45
1725.66
1728.49
1731.76
1735.47
1738.16
1743.47
1744.99
1752.28
1713.47
1713.65
1714.03
1714.54
1715.32
1716.15
1717.34
1718.47
1720.08
1721.48
1723.52
1725.19
1727.66
1729.61
1732.47
1734.75
1737.91
1740.63
1743.88
1747.43
1750.14
1755.24
1756.78
1763.86
1727.17
1727.34
1727.71
1728.21
1728.97
1729.78
1730.94
1732.03
1733.61
1734.96
1736.96
1738.57
1740.99
1742.87
1745.67
1747.86
1750.97
1753.59
1756.79
1760.18
1762.9
1767.79
1769.36
1776.23
1741.72
1741.89
1742.25
1742.75
1743.48
1744.27
1745.39
1746.45
1747.98
1749.3
1751.24
1752.8
1755.15
1756.96
1759.7
1761.8
1764.85
1767.36
1770.52
1773.74
1776.47
1781.15
1782.74
1789.38
1757.16
1757.33
1757.68
1758.15
1758.87
1759.63
1760.72
1761.74
1763.23
1764.49
1766.38
1767.88
1770.16
1771.9
1774.57
1776.58
1779.56
1781.96
1785.07
1788.13
1790.86
1795.32
1796.93
1803.34
1773.49
1773.65
1773.99
1774.45
1775.14
1775.87
1776.93
1777.91
1779.35
1780.56
1782.39
1783.82
1786.05
1787.71
1790.3
1792.22
1795.12
1797.41
1800.45
1803.35
1806.08
1810.31
1811.94
1818.11
1790.72
1790.88
1791.21
1791.65
1792.31
1793.01
1794.03
1794.97
1796.36
1797.52
1799.29
1800.66
1802.81
1804.39
1806.91
1808.73
1811.55
1813.72
1816.69
1819.43
1822.14
1826.14
1827.78
1833.71
1808.87
1809.03
1809.34
1809.77
1810.41
1811.07
1812.05
1812.94
1814.28
1815.38
1817.09
1818.38
1820.47
1821.96
1824.4
1826.12
1828.86
1830.9
1833.8
1836.38
1839.06
1842.83
1844.46
1850.14
1827.96
1828.11
1828.41
1828.82
1829.43
1830.06
1831
1831.84
1833.13
1834.16
1835.81
1837.03
1839.03
1840.44
1842.8
1844.41
1847.07
1848.98
1851.8
1854.22
1856.86
1860.4
1862.02
1867.43
1847.99
1848.14
1848.42
1848.81
1849.39
1849.99
1850.89
1851.68
1852.91
1853.88
1855.46
1856.6
1858.53
1859.84
1862.11
1863.62
1866.19
1867.97
1870.7
1872.95
1875.55
1878.85
1880.45
1885.6
1868.98
1869.12
1869.4
1869.77
1870.32
1870.89
1871.73
1872.48
1873.65
1874.56
1876.06
1877.12
1878.96
1880.18
1882.36
1883.76
1886.23
1887.88
1890.53
1892.61
1895.15
1898.2
1899.8
1904.68
1890.94
1891.09
1891.35
1891.7
1892.22
1892.75
1893.55
1894.25
1895.35
1896.19
1897.62
1898.6
1900.36
1901.47
1903.56
1904.84
1907.22
1908.73
1911.29
1913.2
1915.67
1918.47
1920.07
1924.66
1913.9
1914.04
1914.29
1914.62
1915.11
1915.6
1916.36
1917
1918.05
1918.82
1920.17
1921.06
1922.74
1923.75
1925.74
1926.9
1929.17
1930.54
1933
1934.74
1937.14
1939.69
1941.28
1945.56
1937.87
1938
1938.23
1938.54
1939
1939.46
1940.17
1940.76
1941.74
1942.45
1943.72
1944.52
1946.11
1947.01
1948.91
1949.94
1952.11
1953.33
1955.69
1957.26
1959.57
1961.87
1963.43
1967.42
1962.85
1962.99
1963.2
1963.49
1963.92
1964.34
1965
1965.54
1966.46
1967.09
1968.29
1969
1970.5
1971.29
1973.09
1973.99
1976.05
1977.12
1979.37
1980.77
1982.99
1985.04
1986.58
1990.26
1988.88
1989.01
1989.21
1989.48
1989.87
1990.26
1990.87
1991.35
1992.21
1992.77
1993.89
1994.51
1995.92
1996.6
1998.3
1999.07
2001.02
2001.94
2004.07
2005.28
2007.4
2009.22
2010.74
2014.08
2015.97
2016.09
2016.28
2016.52
2016.89
2017.23
2017.79
2018.22
2019.01
2019.5
2020.54
2021.07
2022.39
2022.96
2024.56
2025.19
2027.04
2027.8
2029.82
2030.84
2032.85
2034.43
2035.92
2038.93
2044.12
2044.25
2044.41
2044.64
2044.97
2045.27
2045.79
2046.16
2046.89
2047.3
2048.26
2048.7
2049.93
2050.39
2051.89
2052.39
2054.12
2054.72
2056.62
2057.45
2059.35
2060.7
2062.15
2064.82
2073.37
2073.49
2073.64
2073.85
2074.15
2074.41
2074.88
2075.19
2075.85
2076.19
2077.08
2077.42
2078.56
2078.91
2080.3
2080.66
2082.29
2082.73
2084.52
2085.15
2086.94
2088.04
2089.44
2091.76
2103.73
2103.84
2103.98
2104.16
2104.43
2104.66
2105.08
2105.33
2105.93
2106.19
2107
2107.25
2108.29
2108.52
2109.81
2110.04
2111.56
2111.83
2113.51
2113.95
2115.63
2116.48
2117.81
2119.78
2135.21
2135.32
2135.45
2135.61
2135.85
2136.04
2136.41
2136.61
2137.14
2137.33
2138.05
2138.21
2139.16
2139.27
2140.46
2140.54
2141.96
2142.06
2143.63
2143.88
2145.44
2146.06
2147.29
2148.91
2167.84
2167.95
2168.06
2168.2
2168.41
2168.56
2168.88
2169.03
2169.5
2169.61
2170.26
2170.32
2171.17
2171.17
2172.25
2172.19
2173.49
2173.43
2174.88
2174.93
2176.39
2176.77
2177.92
2179.17
2201.65
2201.75
2201.85
2201.97
2202.14
2202.26
2202.53
2202.63
2203.03
2203.07
2203.63
2203.6
2204.36
2204.24
2205.21
2205.01
2206.2
2205.96
2207.3
2207.14
2208.49
2208.64
2209.7
2210.59
2236.64
2236.74
2236.83
2236.93
2237.07
2237.15
2237.37
2237.41
2237.75
2237.72
2238.2
2238.08
2238.74
2238.5
2239.37
2239.02
2240.09
2239.67
2240.9
2240.53
2241.77
2241.67
2242.64
2243.21
2272.85
2272.95
2273.02
2273.1
2273.21
2273.25
2273.43
2273.41
2273.68
2273.58
2273.98
2273.76
2274.33
2273.97
2274.74
2274.24
2275.21
2274.6
2275.72
2275.12
2276.25
2275.89
2276.76
2277.04
2310.3
2310.4
2310.45
2310.51
2310.59
2310.59
2310.72
2310.65
2310.85
2310.67
2311
2310.68
2311.16
2310.68
2311.34
2310.69
2311.55
2310.76
2311.77
2310.94
2311.97
2311.33
2312.11
2312.06
2349.01
2349.11
2349.14
2349.18
2349.23
2349.2
2349.27
2349.14
2349.28
2349.02
2349.26
2348.85
2349.23
2348.63
2349.2
2348.4
2349.15
2348.17
2349.08
2348.02
2348.95
2348.02
2348.72
2348.3
2389.01
2389.1
2389.12
2389.14
2389.15
2389.08
2389.1
2388.91
2388.99
2388.65
2388.81
2388.3
2388.59
2387.86
2388.32
2387.37
2388.02
2386.85
2387.66
2386.36
2387.21
2385.99
2386.62
2385.83
2430.31
2430.4
2430.41
2430.4
2430.38
2430.27
2430.24
2429.99
2429.99
2429.58
2429.66
2429.04
2429.23
2428.38
2428.74
2427.63
2428.18
2426.81
2427.53
2425.99
2426.77
2425.24
2425.82
2424.67
2472.94
2473.03
2473.02
2472.99
2472.93
2472.78
2472.7
2472.4
2472.33
2471.83
2471.82
2471.11
2471.2
2470.22
2470.47
2469.2
2469.64
2468.08
2468.71
2466.92
2467.63
2465.79
2466.34
2464.79
2516.92
2517
2516.98
2516.93
2516.84
2516.65
2516.51
2516.14
2516
2515.43
2515.33
2514.51
2514.5
2513.4
2513.54
2512.11
2512.45
2510.68
2511.21
2509.17
2509.82
2507.64
2508.21
2506.22
2562.27
2562.35
2562.31
2562.24
2562.1
2561.87
2561.68
2561.25
2561.04
2560.38
2560.2
2559.27
2559.17
2557.93
2557.97
2556.37
2556.61
2554.63
2555.08
2552.76
2553.35
2550.82
2551.43
2549
2608.99
2609.07
2609.02
2608.92
2608.76
2608.48
2608.23
2607.75
2607.46
2606.72
2606.45
2605.41
2605.21
2603.84
2603.77
2602.01
2602.14
2599.95
2600.32
2597.71
2598.28
2595.37
2596
2593.16
2657.12
2657.19
2657.12
2657.01
2656.8
2656.49
2656.18
2655.63
2655.27
2654.45
2654.09
2652.95
2652.65
2651.14
2650.97
2649.03
2649.08
2646.65
2646.96
2644.05
2644.62
2641.3
2641.95
2638.69
2706.65
2706.72
2706.64
2706.5
2706.26
2705.9
2705.54
2704.93
2704.5
2703.59
2703.15
2701.89
2701.5
2699.84
2699.59
2697.45
2697.43
2694.75
2695.02
2691.77
2692.41
2688.64
2689.3
2685.64
2757.6
2757.67
2757.57
2757.41
2757.13
2756.73
2756.32
2755.65
2755.14
2754.15
2753.63
2752.26
2751.78
2749.97
2749.64
2747.3
2747.22
2744.27
2744.53
2740.92
2741.57
2737.45
2738.07
2734.03
2809.97
2810.04
2809.92
2809.74
2809.43
2809
2808.52
2807.79
2807.22
2806.14
2805.54
2804.05
2803.5
2801.53
2801.13
2798.57
2798.47
2795.22
2795.53
2791.52
2792.16
2787.71
2788.29
2783.87
2863.77
2863.84
2863.71
2863.51
2863.15
2862.69
2862.16
2861.37
2860.74
2859.57
2858.9
2857.29
2856.68
2854.52
2854.1
2851.28
2851.2
2847.6
2847.94
2843.62
2844.2
2839.45
2839.97
2835.18
2919.01
2919.07
2918.92
2918.7
2918.32
2917.82
2917.24
2916.39
2915.7
2914.44
2913.72
2911.96
2911.33
2908.95
2908.56
2905.44
2905.4
2901.49
2901.79
2897.23
2897.71
2892.68
2893.14
2887.98
2975.66
2975.73
2975.57
2975.33
2974.91
2974.38
2973.75
2972.85
2972.11
2970.74
2970
2968.06
2967.46
2964.82
2964.49
2961.08
2961.03
2956.91
2957.11
2952.33
2952.72
2947.42
2947.81
2942.3
3033.74
3033.82
3033.64
3033.4
3032.94
3032.38
3031.7
3030.74
3029.98
3028.48
3027.77
3025.61
3025.06
3022.2
3021.82
3018.26
3018.11
3013.83
3013.91
3008.93
3009.23
3003.66
3004
2998.13
3093.25
3093.33
3093.12
3092.89
3092.38
3091.82
3091.09
3090.06
3089.3
3087.66
3086.95
3084.67
3084.05
3081.09
3080.62
3076.94
3076.68
3072.24
3072.22
3067.05
3067.25
3061.43
3061.7
3055.5
3154.18
3154.27
3154.03
3153.81
3153.25
3152.7
3151.9
3150.85
3150.03
3148.34
3147.57
3145.21
3144.51
3141.46
3140.9
3137.1
3136.74
3132.16
3132.04
3126.68
3126.79
3120.72
3120.94
3114.41
3216.52
3216.61
3216.37
3216.13
3215.56
3214.98
3214.13
3213.11
3212.18
3210.47
3209.62
3207.2
3206.43
3203.3
3202.65
3198.75
3198.29
3193.58
3193.36
3187.82
3187.85
3181.55
3181.71
3174.86
3280.28
3280.37
3280.13
3279.88
3279.3
3278.69
3277.8
3276.8
3275.73
3274.08
3273.11
3270.66
3269.81
3266.61
3265.87
3261.89
3261.33
3256.5
3256.19
3250.49
3250.43
3243.91
3244.01
3236.86
3345.45
3345.55
3345.31
3345.04
3344.45
3343.83
3342.91
3341.89
3340.74
3339.14
3338.01
3335.6
3334.65
3331.38
3330.57
3326.5
3325.86
3320.91
3320.51
3314.66
3314.51
3307.79
3307.83
3300.4
3412.05
3412.15
3411.91
3411.63
3411.03
3410.4
3409.45
3408.42
3407.2
3405.62
3404.37
3402
3400.91
3397.63
3396.73
3392.59
3391.86
3386.81
3386.33
3380.33
3380.1
3373.19
3373.18
3365.47
3480.07
3480.17
3479.93
3479.65
3479.04
3478.4
3477.42
3476.39
3475.1
3473.54
3472.19
3469.84
3468.62
3465.35
3464.35
3460.13
3459.33
3454.17
3453.61
3447.47
3447.18
3440.08
3440.01
3432.05
3549.53
3549.63
3549.39
3549.11
3548.49
3547.84
3546.83
3545.79
3544.46
3542.9
3541.46
3539.12
3537.8
3534.51
3533.41
3529.13
3528.25
3522.99
3522.36
3516.09
3515.72
3508.45
3508.33
3500.13
3620.44
3620.56
3620.31
3620.03
3619.38
3618.73
3617.69
3616.63
3615.26
3613.7
3612.17
3609.83
3608.41
3605.09
3603.9
3599.55
3598.61
3593.24
3592.54
3586.15
3585.71
3578.28
3578.11
3569.69
3692.83
3692.95
3692.69
3692.41
3691.75
3691.08
3690.01
3688.93
3687.5
3685.93
3684.31
3681.96
3680.44
3677.08
3675.82
3671.39
3670.38
3664.91
3664.13
3657.63
3657.11
3649.54
3649.32
3640.7
3766.69
3766.82
3766.55
3766.27
3765.57
3764.88
3763.78
3762.67
3761.18
3759.59
3757.86
3755.51
3753.88
3750.48
3749.14
3744.62
3743.55
3737.97
3737.12
3730.51
3729.92
3722.21
3721.94
3713.13
3842.04
3842.17
3841.88
3841.59
3840.86
3840.14
3838.98
3837.83
3836.28
3834.65
3832.8
3830.46
3828.68
3825.27
3823.82
3819.22
3818.09
3812.41
3811.49
3804.77
3804.1
3796.28
3795.95
3786.99
3918.82
3918.96
3918.65
3918.33
3917.57
3916.81
3915.6
3914.39
3912.77
3911.08
3909.12
3906.77
3904.83
3901.43
3899.83
3895.19
3893.98
3888.2
3887.2
3880.39
3879.66
3871.73
3871.35
3862.24
3996.98
3997.12
3996.79
3996.44
3995.65
3994.83
3993.57
3992.3
3990.6
3988.85
3986.79
3984.42
3982.3
3978.95
3977.14
3972.53
3971.18
3965.33
3964.28
3957.39
3956.59
3948.57
3948.14
3938.9
4076.37
4076.51
4076.18
4075.79
4074.98
4074.11
4072.81
4071.48
4069.71
4067.9
4065.75
4063.37
4061.08
4057.78
4055.75
4051.21
4049.67
4043.83
4042.72
4035.75
4034.88
4026.8
4026.32
4016.98
4156.82
4156.96
4156.63
4156.23
4155.41
4154.52
4153.19
4151.83
4150.02
4148.18
4145.96
4143.56
4141.15
4137.9
4135.67
4131.24
4129.49
4123.71
4122.49
4115.49
4114.57
4106.43
4105.93
4096.51
4238.13
4238.28
4237.96
4237.57
4236.77
4235.88
4234.58
4233.22
4231.42
4229.58
4227.35
4224.96
4222.48
4219.3
4216.9
4212.6
4210.64
4204.99
4203.6
4196.65
4195.67
4187.51
4186.99
4177.51
4320.11
4320.27
4320
4319.64
4318.89
4318.06
4316.81
4315.52
4313.79
4312.02
4309.84
4307.52
4305.04
4301.96
4299.48
4295.33
4293.2
4287.7
4286.16
4279.26
4278.26
4270.07
4269.56
4260.04
4402.67
4402.85
4402.62
4402.33
4401.66
4400.93
4399.8
4398.63
4397.03
4395.39
4393.34
4391.17
4388.78
4385.84
4383.39
4379.42
4377.2
4371.88
4370.23
4363.37
4362.37
4354.14
4353.65
4344.1
4485.86
4486.06
4485.9
4485.69
4485.13
4484.53
4483.54
4482.54
4481.12
4479.67
4477.8
4475.84
4473.62
4470.91
4468.58
4464.84
4462.64
4457.57
4455.85
4449.13
4448.1
4439.82
4439.35
4429.73
4569.94
4570.18
4570.07
4569.95
4569.49
4569.03
4568.19
4567.37
4566.13
4564.91
4563.25
4561.54
4559.54
4557.08
4554.98
4551.49
4549.47
4544.65
4543.04
4536.48
4535.54
4527.19
4526.76
4516.98
4655.43
4655.72
4655.62
4655.6
4655.18
4654.86
4654.11
4653.46
4652.34
4651.33
4649.84
4648.37
4646.56
4644.37
4642.56
4639.24
4637.62
4632.89
4631.71
4625.21
4624.63
4616.31
4615.99
4606.08
4743.07
4743.43
4743.26
4743.37
4742.85
4742.7
4741.83
4741.4
4740.18
4739.39
4737.9
4736.63
4734.92
4732.87
4731.44
4727.94
4727.16
4721.97
4721.73
4714.99
4715.05
4706.87
4706.88
4697.35
4833.76
4834.09
4833.98
4833.95
4833.51
4833.15
4832.36
4831.7
4830.56
4829.58
4828.11
4826.78
4825.02
4823.14
4821.55
4818.23
4817.56
4812.44
4812.47
4805.83
4806.29
4798.24
4798.72
4789.82
4928.38
4928.68
4928.53
4928.39
4927.84
4927.3
4926.35
4925.45
4924.11
4922.86
4921.17
4919.58
4917.58
4915.57
4913.54
4910.52
4909.23
4904.41
4904.31
4897.62
4898.32
4890.11
4890.95
4882.13
5027.65
5027.93
5027.7
5027.43
5026.69
5025.92
5024.68
5023.46
5021.74
5020.09
5017.96
5015.92
5013.45
5011.01
5008.4
5005.15
5003.17
4998.35
4997.71
4990.73
4991.49
4982.79
4983.9
4974.7
5132.04
5132.34
5131.97
5131.59
5130.61
5129.6
5128
5126.42
5124.22
5122.11
5119.36
5116.75
5113.57
5110.48
5107.07
5103.17
5100.39
5094.91
5093.66
5085.86
5086.43
5076.87
5078.1
5068.08
5241.69
5242.03
5241.5
5241.06
5239.81
5238.62
5236.61
5234.76
5231.95
5229.53
5225.95
5222.93
5218.78
5215.01
5210.65
5205.8
5202.16
5195.27
5193.34
5184.19
5184.12
5173.24
5174.3
5162.91
5356.41
5356.7
5356.2
5355.54
5354.24
5352.73
5350.59
5348.28
5345.29
5342.19
5338.35
5334.49
5329.86
5325.22
5319.93
5314.4
5309.09
5301.54
5297.98
5287.49
5286.08
5273.33
5273.69
5260.15
5475.65
5475.91
5475.41
5474.66
5473.29
5471.63
5469.34
5466.8
5463.57
5460.16
5455.99
5451.68
5446.6
5441.36
5435.41
5429.16
5422.57
5414.83
5408.62
5398.02
5394.14
5379.52
5378.37
5361.55
5598.68
5598.94
5598.44
5597.65
5596.25
5594.53
5592.17
5589.54
5586.2
5582.63
5578.3
5573.78
5568.45
5562.92
5556.6
5549.94
5542.75
5534.6
5527
5516.51
5509.65
5494.89
5491.2
5470.5
5724.68
5724.93
5724.46
5723.68
5722.29
5720.59
5718.23
5715.6
5712.26
5708.7
5704.35
5699.81
5694.44
5688.88
5682.48
5675.77
5668.44
5660.21
5652.29
5641.88
5634
5619.82
5614.21
5591.69
5852.75
5853.04
5852.59
5851.86
5850.52
5848.87
5846.58
5844.04
5840.78
5837.32
5833.06
5828.66
5823.4
5817.99
5811.73
5805.21
5798.03
5790.02
5782.41
5772.08
5765.01
5750.7
5746.2
5725.56
5982.09
5982.4
5981.99
5981.33
5980.05
5978.51
5976.32
5973.92
5970.79
5967.51
5963.42
5959.24
5954.18
5949.05
5943.04
5936.85
5929.97
5922.38
5915.16
5905.3
5898.82
5885.08
5881
5861.79
6111.91
6112.26
6111.89
6111.31
6110.11
6108.7
6106.63
6104.4
6101.43
6098.38
6094.5
6090.6
6085.8
6081.01
6075.31
6069.52
6063.01
6055.94
6049.12
6039.9
6033.85
6020.99
6017.17
5999.28
6241.53
6241.94
6241.6
6241.12
6240
6238.74
6236.79
6234.77
6231.97
6229.2
6225.51
6221.97
6217.41
6213.04
6207.65
6202.33
6196.21
6189.7
6183.3
6174.7
6169.17
6157.22
6153.63
6137.06
6370.41
6370.87
6370.5
6370.19
6369.08
6368.05
6366.16
6364.44
6361.72
6359.34
6355.77
6352.71
6348.28
6344.48
6339.28
6334.56
6328.77
6322.87
6316.91
6308.98
6303.84
6292.89
6289.51
6274.27
6498.01
6498.49
6498.15
6497.97
6496.9
6496.09
6494.26
6492.85
6490.2
6488.25
6484.74
6482.23
6477.87
6474.74
6469.61
6465.67
6460.04
6454.82
6449.32
6442.05
6437.29
6427.35
6424.17
6410.28
6623.89
6624.39
6624.14
6623.96
6623.09
6622.29
6620.76
6619.39
6617.13
6615.24
6612.18
6609.82
6605.92
6603.07
6598.4
6594.88
6589.67
6585.1
6579.86
6573.4
6568.99
6560.06
6557.08
6544.5
6747.71
6748.21
6748.03
6747.89
6747.17
6746.44
6745.14
6743.87
6741.92
6740.15
6737.51
6735.28
6731.9
6729.22
6725.11
6721.87
6717.19
6713.14
6708.22
6702.69
6698.54
6690.59
6687.78
6676.5
6869.12
6869.64
6869.52
6869.42
6868.83
6868.19
6867.07
6865.95
6864.25
6862.67
6860.35
6858.34
6855.37
6852.94
6849.31
6846.41
6842.2
6838.66
6834.11
6829.49
6825.47
6818.51
6815.9
6805.89
6987.89
6988.4
6988.34
6988.3
6987.81
6987.28
6986.32
6985.35
6983.87
6982.5
6980.47
6978.71
6976.09
6973.96
6970.74
6968.21
6964.45
6961.39
6957.26
6953.35
6949.51
6943.59
6941.17
6932.39
7103.78
7104.29
7104.27
7104.28
7103.89
7103.47
7102.66
7101.84
7100.57
7099.39
7097.63
7096.12
7093.83
7092
7089.16
7087
7083.66
7081.07
7077.37
7074.1
7070.47
7065.55
7063.3
7055.7
7216.61
7217.12
7217.14
7217.2
7216.9
7216.58
7215.91
7215.24
7214.16
7213.18
7211.66
7210.4
7208.41
7206.88
7204.4
7202.6
7199.66
7197.51
7194.22
7191.52
7188.19
7184.22
7182.06
7175.63
7326.23
7326.74
7326.8
7326.9
7326.69
7326.46
7325.91
7325.39
7324.49
7323.7
7322.41
7321.39
7319.68
7318.44
7316.29
7314.83
7312.27
7310.53
7307.64
7305.46
7302.5
7299.36
7297.33
7291.96
7432.54
7433.04
7433.13
7433.28
7433.14
7433
7432.58
7432.19
7431.46
7430.85
7429.78
7428.97
7427.53
7426.56
7424.73
7423.6
7421.39
7420.05
7417.53
7415.84
7413.24
7410.85
7408.97
7404.56
7535.44
7535.93
7536.05
7536.24
7536.17
7536.11
7535.8
7535.54
7534.96
7534.53
7533.65
7533.06
7531.87
7531.16
7529.62
7528.79
7526.92
7525.95
7523.79
7522.57
7520.33
7518.54
7516.8
7513.38
7634.88
7635.36
7635.51
7635.73
7635.72
7635.74
7635.54
7635.4
7634.96
7634.68
7634
7633.61
7632.65
7632.17
7630.91
7630.37
7628.8
7628.19
7626.36
7625.57
7623.66
7622.44
7620.86
7618.33
7730.82
7731.29
7731.46
7731.71
7731.76
7731.85
7731.74
7731.71
7731.41
7731.28
7730.76
7730.56
7729.81
7729.56
7728.55
7728.29
7727
7726.71
7725.19
7724.8
7723.19
7722.46
7721.12
7719.41
7823.24
7823.7
7823.89
7824.17
7824.27
7824.43
7824.41
7824.48
7824.3
7824.3
7823.95
7823.92
7823.37
7823.33
7822.56
7822.54
7821.52
7821.53
7820.3
7820.28
7818.95
7818.69
7817.57
7816.59
7912.16
7912.61
7912.81
7913.12
7913.26
7913.48
7913.53
7913.7
7913.63
7913.76
7913.56
7913.68
7913.32
7913.47
7912.92
7913.13
7912.36
7912.65
7911.69
7912.01
7910.95
7911.13
7910.25
7909.89
7997.6
7998.03
7998.25
7998.57
7998.76
7999.03
7999.15
7999.4
7999.44
7999.68
7999.62
7999.89
7999.69
8000.02
7999.66
8000.09
7999.55
8000.09
7999.38
8000.01
7999.2
7999.8
7999.13
7999.34
8079.58
8080
8080.23
8080.57
8080.79
8081.11
8081.3
8081.62
8081.75
8082.1
8082.15
8082.56
8082.51
8083
8082.82
8083.45
8083.11
8083.89
8083.39
8084.32
8083.73
8084.71
8084.2
8084.95
8158.17
8158.57
8158.81
8159.16
8159.42
8159.78
8160.02
8160.41
8160.63
8161.07
8161.23
8161.75
8161.84
8162.48
8162.47
8163.26
8163.11
8164.11
8163.8
8165
8164.59
8165.91
8165.55
8166.79
8233.42
8233.81
8234.05
8234.42
8234.7
8235.1
8235.39
8235.84
8236.13
8236.65
8236.91
8237.54
8237.75
8238.52
8238.65
8239.61
8239.62
8240.8
8240.67
8242.11
8241.86
8243.49
8243.25
8244.92
8305.42
8305.78
8306.03
8306.4
8306.71
8307.14
8307.48
8307.98
8308.33
8308.93
8309.28
8310
8310.32
8311.21
8311.46
8312.56
8312.71
8314.07
8314.09
8315.74
8315.63
8317.55
8317.4
8319.46
8374.23
8374.57
8374.82
8375.2
8375.53
8375.99
8376.36
8376.91
8377.32
8377.98
8378.41
8379.22
8379.63
8380.62
8380.99
8382.21
8382.49
8384
8384.15
8385.99
8386
8388.16
8388.1
8390.5
8439.94
8440.27
8440.52
8440.91
8441.25
8441.73
8442.14
8442.73
8443.19
8443.91
8444.4
8445.28
8445.78
8446.86
8447.33
8448.66
8449.05
8450.69
8450.96
8452.97
8453.09
8455.47
8455.47
8458.17
8502.66
8502.97
8503.22
8503.61
8503.97
8504.46
8504.9
8505.52
8506.02
8506.8
8507.35
8508.29
8508.86
8510.02
8510.58
8512.01
8512.5
8514.25
8514.63
8516.77
8516.99
8519.56
8519.64
8522.58
8562.47
8562.76
8563.01
8563.4
8563.77
8564.28
8564.74
8565.4
8565.94
8566.75
8567.35
8568.36
8568.99
8570.22
8570.85
8572.36
8572.94
8574.8
8575.26
8577.54
8577.84
8580.57
8580.68
8583.91
8619.47
8619.75
8620
8620.39
8620.76
8621.29
8621.77
8622.45
8623.02
8623.87
8624.52
8625.57
8626.26
8627.55
8628.25
8629.83
8630.49
8632.43
8632.98
8635.36
8635.73
8638.61
8638.77
8642.19
8673.77
8674.03
8674.28
8674.67
8675.05
8675.58
8676.08
8676.78
8677.38
8678.26
8678.95
8680.04
8680.78
8682.12
8682.88
8684.52
8685.25
8687.26
8687.88
8690.36
8690.8
8693.8
8694.01
8697.6
8725.46
8725.7
8725.95
8726.34
8726.72
8727.27
8727.78
8728.5
8729.12
8730.03
8730.74
8731.87
8732.65
8734.04
8734.85
8736.54
8737.33
8739.4
8740.09
8742.64
8743.14
8746.25
8746.5
8750.23
8774.65
8774.88
8775.12
8775.5
8775.89
8776.44
8776.97
8777.7
8778.34
8779.27
8780.01
8781.17
8781.99
8783.41
8784.26
8786
8786.84
8788.97
8789.71
8792.32
8792.88
8796.08
8796.37
8800.23
8821.43
8821.65
8821.89
8822.27
8822.66
8823.21
8823.74
8824.49
8825.14
8826.09
8826.85
8828.04
8828.88
8830.33
8831.22
8833
8833.88
8836.05
8836.84
8839.51
8840.11
8843.39
8843.71
8847.69
8865.91
8866.12
8866.35
8866.73
8867.12
8867.68
8868.21
8868.96
8869.63
8870.59
8871.37
8872.57
8873.44
8874.92
8875.83
8877.64
8878.55
8880.76
8881.59
8884.3
8884.95
8888.27
8888.63
8892.7
8908.19
8908.38
8908.61
8908.98
8909.37
8909.93
8910.47
8911.23
8911.9
8912.87
8913.66
8914.88
8915.76
8917.26
8918.2
8920.03
8920.96
8923.2
8924.05
8926.8
8927.47
8930.84
8931.22
8935.36
8948.36
8948.54
8948.76
8949.13
8949.52
8950.07
8950.61
8951.37
8952.05
8953.04
8953.83
8955.06
8955.95
8957.47
8958.41
8960.27
8961.21
8963.49
8964.34
8967.12
8967.8
8971.21
8971.59
8975.75
8986.51
8986.68
8986.9
8987.26
8987.64
8988.2
8988.73
8989.5
8990.18
8991.17
8991.97
8993.21
8994.1
8995.64
8996.58
8998.46
8999.4
9001.7
9002.55
9005.36
9006.03
9009.47
9009.84
9014.02
9022.74
9022.9
9023.11
9023.47
9023.85
9024.4
9024.93
9025.7
9026.38
9027.37
9028.17
9029.42
9030.31
9031.86
9032.8
9034.69
9035.63
9037.95
9038.79
9041.63
9042.28
9045.74
9046.11
9050.29
9057.13
9057.28
9057.49
9057.84
9058.21
9058.77
9059.3
9060.06
9060.73
9061.73
9062.53
9063.78
9064.68
9066.22
9067.17
9069.06
9070
9072.32
9073.17
9076.01
9076.66
9080.13
9080.49
9084.68
9089.78
9089.92
9090.12
9090.46
9090.84
9091.38
9091.91
9092.67
9093.34
9094.34
9095.13
9096.39
9097.28
9098.82
9099.77
9101.66
9102.6
9104.92
9105.77
9108.6
9109.26
9112.72
9113.09
9117.27
9120.76
9120.89
9121.09
9121.42
9121.79
9122.33
9122.85
9123.62
9124.28
9125.27
9126.06
9127.31
9128.2
9129.75
9130.69
9132.58
9133.52
9135.83
9136.68
9139.5
9140.16
9143.61
9143.98
9148.15
9150.15
9150.28
9150.47
9150.8
9151.16
9151.7
9152.21
9152.97
9153.63
9154.62
9155.4
9156.65
9157.53
9159.07
9160.01
9161.89
9162.83
9165.13
9165.98
9168.79
9169.45
9172.89
9173.25
9177.41
9178.03
9178.15
9178.34
9178.66
9179.02
9179.55
9180.06
9180.81
9181.46
9182.45
9183.22
9184.47
9185.34
9186.88
9187.81
9189.68
9190.61
9192.9
9193.75
9196.55
9197.21
9200.63
9200.98
9205.13
9204.47
9204.59
9204.77
9205.09
9205.44
9205.97
9206.47
9207.22
9207.86
9208.84
9209.6
9210.85
9211.71
9213.24
9214.16
9216.03
9216.95
9219.23
9220.06
9222.85
9223.51
9226.9
9227.25
9231.37
9229.55
9229.66
9229.83
9230.15
9230.49
9231.02
9231.51
9232.25
9232.88
9233.86
9234.61
9235.85
9236.7
9238.23
9239.13
9240.99
9241.9
9244.17
9244.99
9247.76
9248.39
9251.8
9252.13
9256.22
9253.32
9253.43
9253.6
9253.91
9254.24
9254.76
9255.24
9255.99
9256.6
9257.58
9258.32
9259.56
9260.38
9261.91
9262.79
9264.65
9265.53
9267.8
9268.6
9271.36
9271.98
9275.36
9275.68
9279.74
9275.86
9275.96
9276.12
9276.43
9276.76
9277.27
9277.74
9278.48
9279.09
9280.06
9280.78
9282.02
9282.82
9284.35
9285.2
9287.07
9287.92
9290.18
9290.95
9293.7
9294.3
9297.66
9297.97
9301.99
9297.22
9297.31
9297.47
9297.78
9298.09
9298.61
9299.07
9299.8
9300.39
9301.37
9302.06
9303.3
9304.08
9305.61
9306.43
9308.3
9309.11
9311.38
9312.11
9314.87
9315.42
9318.76
9319.05
9323.03
9317.45
9317.54
9317.7
9318
9318.31
9318.82
9319.27
9320
9320.57
9321.55
9322.22
9323.47
9324.21
9325.75
9326.53
9328.41
9329.18
9331.46
9332.14
9334.9
9335.41
9338.74
9339.01
9342.94
9336.62
9336.71
9336.86
9337.16
9337.46
9337.97
9338.4
9339.14
9339.69
9340.67
9341.32
9342.56
9343.28
9344.82
9345.56
9347.46
9348.17
9350.47
9351.11
9353.86
9354.32
9357.64
9357.88
9361.76
9354.78
9354.86
9355.01
9355.31
9355.6
9356.11
9356.53
9357.26
9357.79
9358.78
9359.4
9360.65
9361.33
9362.88
9363.58
9365.49
9366.15
9368.46
9369.03
9371.82
9372.22
9375.52
9375.74
9379.57
9371.97
9372.05
9372.2
9372.49
9372.77
9373.28
9373.69
9374.42
9374.93
9375.92
9376.51
9377.77
9378.42
9379.98
9380.64
9382.55
9383.17
9385.49
9386.01
9388.79
9389.17
9392.44
9392.64
9396.42
9388.25
9388.33
9388.47
9388.76
9389.03
9389.53
9389.93
9390.66
9391.16
9392.14
9392.71
9393.97
9394.59
9396.15
9396.78
9398.69
9399.28
9401.59
9402.07
9404.85
9405.19
9408.44
9408.63
9412.37
9403.65
9403.72
9403.86
9404.15
9404.41
9404.92
9405.3
9406.03
9406.51
9407.49
9408.04
9409.3
9409.88
9411.46
9412.04
9413.97
9414.5
9416.84
9417.26
9420.04
9420.35
9423.57
9423.75
9427.44
9418.21
9418.29
9418.42
9418.71
9418.96
9419.47
9419.83
9420.57
9421.02
9422.01
9422.52
9423.8
9424.34
9425.94
9426.46
9428.43
9428.89
9431.24
9431.63
9434.39
9434.68
9437.86
9438.03
9441.67
9431.98
9432.06
9432.19
9432.47
9432.72
9433.23
9433.57
9434.32
9434.74
9435.75
9436.22
9437.52
9438.01
9439.63
9440.09
9442.08
9442.49
9444.85
9445.2
9447.94
9448.22
9451.37
9451.53
9455.12
9445
9445.07
9445.19
9445.48
9445.71
9446.23
9446.55
9447.31
9447.69
9448.73
9449.15
9450.48
9450.91
9452.56
9452.98
9454.97
9455.35
9457.7
9458.03
9460.75
9461
9464.12
9464.27
9467.81
9457.29
9457.37
9457.48
9457.77
9457.99
9458.52
9458.81
9459.59
9459.93
9460.99
9461.37
9462.72
9463.1
9464.76
9465.15
9467.13
9467.5
9469.82
9470.14
9472.83
9473.08
9476.15
9476.3
9479.79
9468.89
9468.97
9469.08
9469.38
9469.57
9470.11
9470.38
9471.17
9471.49
9472.55
9472.9
9474.25
9474.62
9476.27
9476.64
9478.61
9478.96
9481.26
9481.57
9484.23
9484.46
9487.5
9487.64
9491.09
9479.84
9479.91
9480.01
9480.32
9480.5
9481.04
9481.3
9482.09
9482.39
9483.45
9483.79
9485.13
9485.48
9487.13
9487.48
9489.43
9489.76
9492.05
9492.34
9494.97
9495.2
9498.2
9498.34
9501.74
9490.15
9490.22
9490.32
9490.62
9490.81
9491.34
9491.59
9492.37
9492.67
9493.72
9494.05
9495.38
9495.72
9497.35
9497.69
9499.62
9499.94
9502.21
9502.49
9505.09
9505.31
9508.28
9508.41
9511.77
9499.86
9499.94
9500.03
9500.33
9500.51
9501.04
9501.28
9502.06
9502.35
9503.39
9503.7
9505.03
9505.36
9506.97
9507.3
9509.22
9509.53
9511.76
9512.04
9514.61
9514.82
9517.76
9517.88
9521.2
9508.99
9509.07
9509.17
9509.46
9509.63
9510.16
9510.4
9511.17
9511.45
9512.48
9512.79
9514.1
9514.42
9516.02
9516.33
9518.23
9518.53
9520.75
9521.01
9523.56
9523.76
9526.66
9526.78
9530.06
9517.58
9517.65
9517.75
9518.03
9518.22
9518.72
9518.96
9519.72
9520
9521.02
9521.32
9522.62
9522.93
9524.51
9524.82
9526.7
9526.99
9529.18
9529.44
9531.96
9532.16
9535.02
9535.14
9538.38
9525.63
9525.69
9525.81
9526.06
9526.27
9526.74
9527.01
9527.73
9528.03
9529.02
9529.32
9530.6
9530.9
9532.48
9532.77
9534.64
9534.92
9537.09
9537.33
9539.83
9540.02
9542.86
9542.97
9546.17
9533.18
9533.24
9533.36
9533.59
9533.83
9534.25
9534.56
9535.22
9535.56
9536.5
9536.83
9538.07
9538.38
9539.93
9540.22
9542.07
9542.33
9544.49
9544.72
9547.19
9547.38
9550.18
9550.29
9553.46
9540.23
9540.29
9540.42
9540.63
9540.89
9541.27
9541.63
9542.22
9542.62