/*--------------------------------*- C++ -*----------------------------------*\
  =========                 |
  \\      /  F ield         | OpenFOAM: The Open Source CFD Toolbox
   \\    /   O peration     | Website:  https://openfoam.org
    \\  /    A nd           | Version:  10
     \\/     M anipulation  |
\*---------------------------------------------------------------------------*/
FoamFile
{
    format      ascii;
    class       surfaceScalarField;
    location    "0.12";
    object      phi;
}
// * * * * * * * * * * * * * * * * * * * * * * * * * * * * * * * * * * * * * //

dimensions      [1 0 -1 0 0 0 0];

internalField   nonuniform List<scalar> 
8154
(
-6.12916e-09
-2.31684e-08
-5.88047e-08
-9.57732e-08
-1.76708e-07
-2.34862e-07
-3.79604e-07
-4.68554e-07
-6.89806e-07
-8.36744e-07
-1.12855e-06
-1.36737e-06
-1.70196e-06
-2.06731e-06
-2.40291e-06
-2.9067e-06
-3.29529e-06
-4.02313e-06
-4.61823e-06
-5.53655e-06
-6.86576e-06
-7.27433e-06
-6.86703e-06
-0.00027761
-0.000832889
2.37337e-08
-0.00138836
9.53868e-08
-0.00194408
2.11637e-07
-0.0025003
3.75204e-07
-0.00305691
5.73057e-07
-0.00361438
8.17626e-07
-0.00417232
1.08101e-06
-0.00473149
1.38785e-06
-0.00529126
1.69865e-06
-0.00585251
2.0398e-06
-0.00641466
2.38134e-06
-0.00697822
2.71829e-06
-0.00754347
3.09175e-06
-0.00810932
3.40534e-06
-0.00867867
3.81464e-06
-0.00924614
4.08341e-06
-0.00982116
4.52497e-06
-0.0103899
4.88127e-06
-0.0109716
5.10512e-06
-0.0115412
5.25029e-06
-0.0121313
5.08917e-06
-0.0127029
4.01441e-06
-0.0133016
2.4387e-06
-0.000277632
-0.000832954
2.6073e-08
-0.00138846
1.04017e-07
-0.00194423
2.33141e-07
-0.00250048
4.0762e-07
-0.00305713
6.3123e-07
-0.00361461
8.84323e-07
-0.0041726
1.1876e-06
-0.00473177
1.49252e-06
-0.00529156
1.85596e-06
-0.00585281
2.17772e-06
-0.00641495
2.57775e-06
-0.00697854
2.87542e-06
-0.00754373
3.27883e-06
-0.00810966
3.51632e-06
-0.00867887
3.87827e-06
-0.00924651
4.07289e-06
-0.00982144
4.34401e-06
-0.0103901
4.96811e-06
-0.0109717
4.64612e-06
-0.011541
5.20785e-06
-0.0121301
5.31008e-06
-0.0127013
5.03108e-06
-0.013299
4.22058e-06
-0.000277656
-0.000833026
2.10139e-08
-0.00138858
8.41382e-08
-0.00194439
1.86518e-07
-0.00250068
3.28001e-07
-0.00305736
4.98061e-07
-0.00361489
7.02259e-07
-0.00417287
9.15912e-07
-0.00473209
1.15799e-06
-0.00529184
1.3832e-06
-0.00585316
1.62878e-06
-0.0064152
1.83004e-06
-0.00697889
2.03123e-06
-0.0075439
2.17663e-06
-0.00810996
2.26191e-06
-0.00867899
2.3307e-06
-0.0092467
2.18216e-06
-0.00982198
2.32191e-06
-0.0103896
1.88192e-06
-0.0109722
1.76015e-06
-0.011541
1.37206e-06
-0.0121297
1.13909e-06
-0.0127004
7.093e-07
-0.0132947
5.06252e-07
-0.000277675
-0.000833083
2.5261e-08
-0.00138867
1.01135e-07
-0.00194452
2.24558e-07
-0.00250083
3.95415e-07
-0.00305754
6.01986e-07
-0.00361507
8.50868e-07
-0.00417308
1.11313e-06
-0.00473228
1.41275e-06
-0.00529204
1.6924e-06
-0.00585332
2.00504e-06
-0.00641535
2.25754e-06
-0.00697898
2.53213e-06
-0.00754393
2.71517e-06
-0.00810997
2.87541e-06
-0.00867878
2.96403e-06
-0.00924677
2.87381e-06
-0.00982146
2.95094e-06
-0.0103894
2.25763e-06
-0.0109717
2.49251e-06
-0.0115406
1.70711e-06
-0.0121292
1.19176e-06
-0.0127001
3.69361e-07
-0.0132941
-1.80246e-07
-0.000277699
-0.000833152
3.33846e-08
-0.00138879
1.33527e-07
-0.00194467
2.97778e-07
-0.00250102
5.24185e-07
-0.00305777
8.0455e-07
-0.00361531
1.1372e-06
-0.00417335
1.50609e-06
-0.00473253
1.9118e-06
-0.00529231
2.32967e-06
-0.00585353
2.76213e-06
-0.00641558
3.18055e-06
-0.00697911
3.58046e-06
-0.00754404
3.94701e-06
-0.00810999
4.24054e-06
-0.00867862
4.5031e-06
-0.00924678
4.5952e-06
-0.00982069
4.71089e-06
-0.0103896
4.38022e-06
-0.0109708
4.34748e-06
-0.01154
3.66013e-06
-0.0121283
3.20026e-06
-0.0126994
2.25997e-06
-0.0132942
1.34059e-06
-0.00027773
-0.000833247
3.73138e-08
-0.00138894
1.49209e-07
-0.00194488
3.33013e-07
-0.00250128
5.86279e-07
-0.00305808
9.01105e-07
-0.00361565
1.27408e-06
-0.00417372
1.69059e-06
-0.00473291
2.14697e-06
-0.00529271
2.62211e-06
-0.0058539
3.11042e-06
-0.00641593
3.58961e-06
-0.00697943
4.04359e-06
-0.00754427
4.46546e-06
-0.0081102
4.80417e-06
-0.00867865
5.10573e-06
-0.00924683
5.23075e-06
-0.00982029
5.34973e-06
-0.0103895
5.06242e-06
-0.0109701
4.94762e-06
-0.0115395
4.19858e-06
-0.0121272
3.66361e-06
-0.0126984
2.628e-06
-0.0132927
1.60475e-06
-0.000277766
-0.000833353
4.11537e-08
-0.00138912
1.64541e-07
-0.00194512
3.6733e-07
-0.00250158
6.46825e-07
-0.00305843
9.94701e-07
-0.00361604
1.40714e-06
-0.00417415
1.86871e-06
-0.00473335
2.37527e-06
-0.00529316
2.90399e-06
-0.00585434
3.44903e-06
-0.00641634
3.98437e-06
-0.0069798
4.49509e-06
-0.00754456
4.96691e-06
-0.00811044
5.35411e-06
-0.00867872
5.6896e-06
-0.00924688
5.84431e-06
-0.00981993
5.97882e-06
-0.0103893
5.70003e-06
-0.0109692
5.57866e-06
-0.0115389
4.7932e-06
-0.0121261
4.18512e-06
-0.0126973
2.97953e-06
-0.013291
1.78831e-06
-0.000277805
-0.000833471
4.48552e-08
-0.00138931
1.79299e-07
-0.00194539
4.00321e-07
-0.00250191
7.0482e-07
-0.00305882
1.08419e-06
-0.00361648
1.53375e-06
-0.00417463
2.03799e-06
-0.00473385
2.59118e-06
-0.00529367
3.17078e-06
-0.00585484
3.7682e-06
-0.00641681
4.35774e-06
-0.00698022
4.9207e-06
-0.0075449
5.44173e-06
-0.00811072
5.87258e-06
-0.00867881
6.2409e-06
-0.00924695
6.42348e-06
-0.00981958
6.56336e-06
-0.0103891
6.31083e-06
-0.0109684
6.1579e-06
-0.0115382
5.35742e-06
-0.0121248
4.81038e-06
-0.012696
3.35186e-06
-0.0132891
2.00911e-06
-0.000277849
-0.0008336
4.85095e-08
-0.00138952
1.93857e-07
-0.00194568
4.32806e-07
-0.00250228
7.61824e-07
-0.00305925
1.17187e-06
-0.00361696
1.65744e-06
-0.00417515
2.20264e-06
-0.0047344
2.80057e-06
-0.00529423
3.42836e-06
-0.00585539
4.07583e-06
-0.00641733
4.7166e-06
-0.0069807
5.32988e-06
-0.00754528
5.89804e-06
-0.00811104
6.37155e-06
-0.00867894
6.77143e-06
-0.00924703
6.97943e-06
-0.00981927
7.12002e-06
-0.0103889
6.88662e-06
-0.0109675
6.71047e-06
-0.0115375
5.87499e-06
-0.0121233
4.8899e-06
-0.0126946
3.681e-06
-0.013287
2.20316e-06
-0.000277895
-0.00083374
5.2113e-08
-0.00138975
2.08209e-07
-0.001946
4.6481e-07
-0.00250267
8.17922e-07
-0.00305972
1.25799e-06
-0.00361748
1.77867e-06
-0.00417572
2.36347e-06
-0.00473499
3.00432e-06
-0.00529484
3.6779e-06
-0.00585599
4.37262e-06
-0.0064179
5.06146e-06
-0.00698122
5.72219e-06
-0.0075457
6.33497e-06
-0.00811139
6.84942e-06
-0.00867909
7.28027e-06
-0.00924711
7.51163e-06
-0.00981897
7.65121e-06
-0.0103886
7.43329e-06
-0.0109666
7.23344e-06
-0.0115367
6.38272e-06
-0.0121218
5.56213e-06
-0.012693
4.02554e-06
-0.0132847
2.39535e-06
-0.000277946
-0.000833891
5.56834e-08
-0.00139
2.22432e-07
-0.00194634
4.96535e-07
-0.00250309
8.73554e-07
-0.00306022
1.34337e-06
-0.00361804
1.89878e-06
-0.00417634
2.52251e-06
-0.00473564
3.20532e-06
-0.00529551
3.92307e-06
-0.00585664
4.66292e-06
-0.00641852
5.39696e-06
-0.00698179
6.10197e-06
-0.00754617
6.75625e-06
-0.00811177
7.30934e-06
-0.00867927
7.77038e-06
-0.00924719
8.02639e-06
-0.00981869
8.17203e-06
-0.0103884
7.95585e-06
-0.0109657
7.72853e-06
-0.0115358
6.84682e-06
-0.0121201
5.995e-06
-0.0126913
4.34651e-06
-0.0132822
2.58065e-06
-0.000278
-0.000834053
5.92097e-08
-0.00139027
2.36488e-07
-0.00194671
5.27916e-07
-0.00250355
9.28648e-07
-0.00306076
1.42802e-06
-0.00361864
2.01795e-06
-0.004177
2.68031e-06
-0.00473633
3.40455e-06
-0.00529621
4.16551e-06
-0.00585734
4.94899e-06
-0.00641918
5.72589e-06
-0.0069824
6.47234e-06
-0.00754668
7.1645e-06
-0.00811218
7.75266e-06
-0.00867947
8.24098e-06
-0.00924728
8.51993e-06
-0.00981841
8.67222e-06
-0.0103881
8.45386e-06
-0.0109647
8.19217e-06
-0.0115349
7.27292e-06
-0.0121184
6.36226e-06
-0.0126894
4.64246e-06
-0.0132796
2.75196e-06
-0.000278058
-0.000834226
6.26943e-08
-0.00139055
2.50383e-07
-0.0019471
5.58967e-07
-0.00250403
9.83237e-07
-0.00306133
1.51201e-06
-0.00361929
2.13637e-06
-0.0041777
2.8373e-06
-0.00473706
3.60292e-06
-0.00529697
4.40678e-06
-0.00585808
5.23322e-06
-0.00641989
6.05156e-06
-0.00698305
6.83706e-06
-0.00754722
7.56394e-06
-0.00811262
8.18346e-06
-0.0086797
8.69539e-06
-0.00924738
8.99421e-06
-0.00981813
9.15083e-06
-0.0103878
8.93277e-06
-0.0109637
8.63116e-06
-0.0115339
7.66687e-06
-0.0121166
6.69508e-06
-0.0126875
4.88785e-06
-0.0132767
2.90008e-06
-0.000278119
-0.000834408
6.61349e-08
-0.00139085
2.64103e-07
-0.00194751
5.89635e-07
-0.00250455
1.03719e-06
-0.00306194
1.59508e-06
-0.00361997
2.25365e-06
-0.00417844
2.99297e-06
-0.00473784
3.79989e-06
-0.00529776
4.64661e-06
-0.00585887
5.51583e-06
-0.00642064
6.37509e-06
-0.00698374
7.1986e-06
-0.0075478
7.95791e-06
-0.00811308
8.6054e-06
-0.00867995
9.13679e-06
-0.00924748
9.45135e-06
-0.00981785
9.6104e-06
-0.0103874
9.39473e-06
-0.0109627
9.05107e-06
-0.0115329
8.04196e-06
-0.0121147
7.00068e-06
-0.0126854
5.04934e-06
-0.0132737
3.02673e-06
-0.000278184
-0.000834602
6.95426e-08
-0.00139117
2.77684e-07
-0.00194795
6.19969e-07
-0.00250509
1.09051e-06
-0.00306258
1.67715e-06
-0.00362069
2.36952e-06
-0.00417922
3.14683e-06
-0.00473866
3.99477e-06
-0.0052986
4.88421e-06
-0.00585969
5.79627e-06
-0.00642143
6.6965e-06
-0.00698446
7.55763e-06
-0.0075484
8.34863e-06
-0.00811357
9.02213e-06
-0.00868021
9.56953e-06
-0.00924759
9.89498e-06
-0.00981758
1.00528e-05
-0.010387
9.83699e-06
-0.0109616
9.45217e-06
-0.0115318
8.40448e-06
-0.0121127
7.2999e-06
-0.0126833
5.26866e-06
-0.0132706
3.15887e-06
-0.000278252
-0.000834806
7.29159e-08
-0.0013915
2.9112e-07
-0.00194841
6.49935e-07
-0.00250567
1.1431e-06
-0.00306325
1.75793e-06
-0.00362144
2.48336e-06
-0.00418005
3.29784e-06
-0.00473952
4.18601e-06
-0.00529948
5.11754e-06
-0.00586056
6.07209e-06
-0.00642225
7.01339e-06
-0.00698521
7.91268e-06
-0.00754903
8.73573e-06
-0.00811407
9.43503e-06
-0.00868049
9.99718e-06
-0.00924769
1.03301e-05
-0.00981731
1.04797e-05
-0.0103865
1.02513e-05
-0.0109605
9.83239e-06
-0.0115306
8.74725e-06
-0.0121106
7.58145e-06
-0.0126811
5.48701e-06
-0.0132674
3.28217e-06
-0.000278324
-0.00083502
7.62505e-08
-0.00139185
3.04388e-07
-0.00194889
6.79467e-07
-0.00250627
1.19479e-06
-0.00306396
1.83711e-06
-0.00362224
2.59467e-06
-0.00418091
3.44512e-06
-0.00474043
4.37221e-06
-0.00530041
5.34457e-06
-0.00586147
6.34066e-06
-0.00642312
7.32253e-06
-0.006986
8.25987e-06
-0.00754969
9.11588e-06
-0.00811459
9.84212e-06
-0.00868078
1.04203e-05
-0.00924779
1.07609e-05
-0.00981703
1.09014e-05
-0.0103861
1.06563e-05
-0.0109594
1.02025e-05
-0.0115294
9.08066e-06
-0.0121085
7.85268e-06
-0.0126788
5.68798e-06
-0.013264
3.39773e-06
-0.000278399
-0.000835244
7.9516e-08
-0.00139222
3.17368e-07
-0.00194939
7.08313e-07
-0.0025069
1.24517e-06
-0.0030647
1.91407e-06
-0.00362307
2.70252e-06
-0.00418182
3.58741e-06
-0.00474137
4.55162e-06
-0.00530138
5.56289e-06
-0.00586242
6.5987e-06
-0.00642402
7.61978e-06
-0.00698682
8.59474e-06
-0.00755038
9.48399e-06
-0.00811513
1.02384e-05
-0.00868107
1.08347e-05
-0.00924788
1.11851e-05
-0.00981673
1.13182e-05
-0.0103855
1.10587e-05
-0.0109582
1.05658e-05
-0.0115281
9.41027e-06
-0.0121062
8.11997e-06
-0.0126765
5.88277e-06
-0.0132605
3.50824e-06
-0.000278477
-0.000835477
8.26603e-08
-0.00139261
3.29859e-07
-0.00194992
7.36055e-07
-0.00250755
1.29358e-06
-0.00306548
1.98791e-06
-0.00362394
2.80581e-06
-0.00418276
3.72334e-06
-0.00474236
4.72256e-06
-0.00530239
5.77034e-06
-0.00586341
6.84338e-06
-0.00642496
7.90129e-06
-0.00698767
8.91181e-06
-0.00755109
9.83357e-06
-0.00811568
1.06166e-05
-0.00868138
1.12332e-05
-0.00924797
1.15965e-05
-0.00981641
1.17265e-05
-0.010385
1.1455e-05
-0.010957
1.09226e-05
-0.0115267
9.73987e-06
-0.0121039
8.38968e-06
-0.012674
6.07738e-06
-0.013257
3.61731e-06
-0.000278558
-0.00083572
8.56008e-08
-0.00139301
3.41547e-07
-0.00195047
7.62031e-07
-0.00250823
1.33894e-06
-0.00306628
2.05715e-06
-0.00362483
2.90265e-06
-0.00418374
3.85072e-06
-0.00474338
4.88251e-06
-0.00530343
5.96405e-06
-0.00586444
7.0713e-06
-0.00642594
8.16294e-06
-0.00698855
9.20629e-06
-0.00755184
1.01582e-05
-0.00811625
1.09686e-05
-0.00868169
1.16063e-05
-0.00924805
1.19852e-05
-0.00981609
1.21168e-05
-0.0103844
1.1838e-05
-0.0109557
1.12701e-05
-0.0115253
1.00684e-05
-0.0121015
8.66331e-06
-0.0126715
6.27796e-06
-0.0132533
3.72898e-06
-0.000278643
-0.000835972
8.82544e-08
-0.00139342
3.52105e-07
-0.00195104
7.85545e-07
-0.00250894
1.38011e-06
-0.00306711
2.12017e-06
-0.00362577
2.99105e-06
-0.00418475
3.96721e-06
-0.00474444
5.02894e-06
-0.00530451
6.14134e-06
-0.0058655
7.27954e-06
-0.00642695
8.4013e-06
-0.00698947
9.47351e-06
-0.00755261
1.04521e-05
-0.00811685
1.12869e-05
-0.00868203
1.19444e-05
-0.00924813
1.23394e-05
-0.00981576
1.24771e-05
-0.0103838
1.21983e-05
-0.0109544
1.16089e-05
-0.0115239
1.03884e-05
-0.0120991
8.93382e-06
-0.0126689
6.48554e-06
-0.0132495
3.84586e-06
-0.00027873
-0.000836232
9.05285e-08
-0.00139385
3.6117e-07
-0.00195162
8.05801e-07
-0.00250967
1.41573e-06
-0.00306797
2.17497e-06
-0.00362672
3.0683e-06
-0.00418579
4.06952e-06
-0.00474553
5.15805e-06
-0.00530563
6.29804e-06
-0.0058666
7.46373e-06
-0.00642799
8.61195e-06
-0.00699042
9.70912e-06
-0.00755341
1.07099e-05
-0.00811747
1.15649e-05
-0.00868238
1.22384e-05
-0.00924822
1.26471e-05
-0.00981543
1.2791e-05
-0.0103831
1.25162e-05
-0.0109532
1.19167e-05
-0.0115223
1.06786e-05
-0.0120966
9.18211e-06
-0.0126662
6.68965e-06
-0.0132455
3.9634e-06
-0.000278819
-0.000836499
9.23588e-08
-0.00139428
3.6848e-07
-0.00195222
8.22196e-07
-0.00251042
1.44471e-06
-0.00306884
2.21984e-06
-0.00362771
3.13201e-06
-0.00418686
4.15452e-06
-0.00474665
5.26606e-06
-0.00530677
6.42992e-06
-0.00586772
7.61936e-06
-0.00642906
8.79008e-06
-0.00699138
9.90788e-06
-0.00755422
1.09266e-05
-0.0081181
1.17969e-05
-0.00868275
1.24818e-05
-0.00924832
1.28999e-05
-0.00981511
1.30471e-05
-0.0103825
1.27745e-05
-0.0109519
1.21644e-05
-0.0115208
1.09161e-05
-0.012094
9.38387e-06
-0.0126634
6.86419e-06
-0.0132415
4.06384e-06
-0.00027891
-0.000836772
9.36902e-08
-0.00139473
3.73808e-07
-0.00195284
8.34192e-07
-0.00251118
1.46603e-06
-0.00306974
2.25307e-06
-0.00362871
3.17959e-06
-0.00418795
4.21861e-06
-0.00474779
5.34833e-06
-0.00530793
6.53136e-06
-0.00586886
7.74009e-06
-0.00643015
8.92921e-06
-0.00699237
1.00636e-05
-0.00755506
1.10956e-05
-0.00811875
1.19764e-05
-0.00868312
1.26674e-05
-0.00924842
1.30895e-05
-0.00981479
1.32354e-05
-0.0103818
1.29617e-05
-0.0109506
1.23397e-05
-0.0115192
1.10855e-05
-0.0120914
9.51317e-06
-0.0126605
6.96491e-06
-0.0132374
4.11232e-06
-0.000279003
-0.000837048
9.4518e-08
-0.00139519
3.77122e-07
-0.00195346
8.41671e-07
-0.00251196
1.47938e-06
-0.00307066
2.27402e-06
-0.00362974
3.2099e-06
-0.00418906
4.25991e-06
-0.00474895
5.40216e-06
-0.00530911
6.59872e-06
-0.00587002
7.82163e-06
-0.00643125
9.02416e-06
-0.00699337
1.0171e-05
-0.0075559
1.12124e-05
-0.0081194
1.21002e-05
-0.00868351
1.27925e-05
-0.00924853
1.32145e-05
-0.00981447
1.33532e-05
-0.0103812
1.30746e-05
-0.0109493
1.24392e-05
-0.0115176
1.11821e-05
-0.0120888
9.56017e-06
-0.0126576
6.95674e-06
-0.0132332
4.08295e-06
-0.000279096
-0.000837327
9.52153e-08
-0.00139564
3.79909e-07
-0.00195409
8.47949e-07
-0.00251274
1.49058e-06
-0.00307158
2.29162e-06
-0.00363077
3.23548e-06
-0.00419019
4.29515e-06
-0.00475012
5.44884e-06
-0.00531031
6.65857e-06
-0.00587119
7.89624e-06
-0.00643237
9.11459e-06
-0.00699437
1.02776e-05
-0.00755675
1.13338e-05
-0.00812005
1.22349e-05
-0.00868388
1.29365e-05
-0.00924862
1.33655e-05
-0.00981414
1.35054e-05
-0.0103805
1.32287e-05
-0.0109479
1.25883e-05
-0.0115159
1.13339e-05
-0.0120862
9.6854e-06
-0.0126547
7.05145e-06
-0.013229
4.16173e-06
-0.00027919
-0.000837608
9.55215e-08
-0.00139611
3.81124e-07
-0.00195472
8.50671e-07
-0.00251353
1.49541e-06
-0.00307251
2.29923e-06
-0.00363181
3.24665e-06
-0.00419132
4.31087e-06
-0.00475131
5.47038e-06
-0.00531153
6.6875e-06
-0.00587239
7.93431e-06
-0.0064335
9.16353e-06
-0.0069954
1.03388e-05
-0.00755762
1.14084e-05
-0.00812072
1.23222e-05
-0.00868428
1.30348e-05
-0.00924872
1.34718e-05
-0.00981382
1.36151e-05
-0.0103798
1.33402e-05
-0.0109466
1.26946e-05
-0.0115142
1.14386e-05
-0.0120835
9.78256e-06
-0.0126517
7.14169e-06
-0.0132248
4.36756e-06
-0.000279285
-0.00083789
9.53185e-08
-0.00139657
3.80302e-07
-0.00195536
8.48811e-07
-0.00251432
1.4921e-06
-0.00307344
2.2941e-06
-0.00363286
3.23947e-06
-0.00419246
4.30164e-06
-0.00475251
5.45944e-06
-0.00531275
6.6757e-06
-0.00587359
7.92308e-06
-0.00643465
9.1549e-06
-0.00699644
1.0335e-05
-0.0075585
1.14113e-05
-0.00812139
1.23334e-05
-0.00868467
1.30543e-05
-0.00924882
1.34985e-05
-0.00981349
1.36449e-05
-0.0103791
1.33713e-05
-0.0109453
1.27198e-05
-0.0115125
1.14645e-05
-0.0120808
9.80208e-06
-0.0126488
7.16295e-06
-0.0132205
4.00468e-06
-0.000279379
-0.000838172
9.46503e-08
-0.00139703
3.77625e-07
-0.00195599
8.4281e-07
-0.00251511
1.48149e-06
-0.00307437
2.2777e-06
-0.00363391
3.21622e-06
-0.0041936
4.2707e-06
-0.0047537
5.42037e-06
-0.00531397
6.62851e-06
-0.0058748
7.86855e-06
-0.00643579
9.09444e-06
-0.00699748
1.02712e-05
-0.00755939
1.13475e-05
-0.00812208
1.2273e-05
-0.00868508
1.30001e-05
-0.00924892
1.3452e-05
-0.00981318
1.36045e-05
-0.0103784
1.33353e-05
-0.010944
1.26801e-05
-0.0115107
1.1425e-05
-0.0120781
9.74799e-06
-0.0126458
7.14562e-06
-0.0132162
4.12422e-06
-0.000279473
-0.000838451
9.35351e-08
-0.00139749
3.73178e-07
-0.00195662
8.32894e-07
-0.0025159
1.46409e-06
-0.0030753
2.25095e-06
-0.00363495
3.17846e-06
-0.00419473
4.22053e-06
-0.00475489
5.35672e-06
-0.00531519
6.55076e-06
-0.00587599
7.77683e-06
-0.00643695
8.98978e-06
-0.00699852
1.01558e-05
-0.00756028
1.12242e-05
-0.00812277
1.21466e-05
-0.00868549
1.28755e-05
-0.00924903
1.33346e-05
-0.00981286
1.34974e-05
-0.0103777
1.32399e-05
-0.0109427
1.25906e-05
-0.011509
1.13395e-05
-0.0120754
9.64355e-06
-0.0126428
7.08694e-06
-0.0132119
4.19521e-06
-0.000279565
-0.000838727
9.2007e-08
-0.00139795
3.67097e-07
-0.00195725
8.19383e-07
-0.00251667
1.44048e-06
-0.00307621
2.21487e-06
-0.00363597
3.12785e-06
-0.00419585
4.15367e-06
-0.00475607
5.27226e-06
-0.00531639
6.44771e-06
-0.00587718
7.65481e-06
-0.00643808
8.84881e-06
-0.00699956
9.99752e-06
-0.00756117
1.10514e-05
-0.00812346
1.19638e-05
-0.00868591
1.26889e-05
-0.00924915
1.31517e-05
-0.00981256
1.33256e-05
-0.010377
1.30865e-05
-0.0109414
1.24572e-05
-0.0115073
1.1228e-05
-0.0120728
9.53916e-06
-0.0126398
7.01331e-06
-0.0132076
4.16465e-06
-0.000279656
-0.000838999
9.00978e-08
-0.00139839
3.59512e-07
-0.00195786
8.02558e-07
-0.00251744
1.41117e-06
-0.00307711
2.17024e-06
-0.00363698
3.06554e-06
-0.00419695
4.0718e-06
-0.00475722
5.16944e-06
-0.00531758
6.32295e-06
-0.00587835
7.50771e-06
-0.0064392
8.67944e-06
-0.00700058
9.80664e-06
-0.00756205
1.08404e-05
-0.00812415
1.17366e-05
-0.00868633
1.24505e-05
-0.00924928
1.29107e-05
-0.00981227
1.30921e-05
-0.0103763
1.28723e-05
-0.0109401
1.22718e-05
-0.0115055
1.1082e-05
-0.0120702
9.42981e-06
-0.0126369
6.93411e-06
-0.0132034
4.11729e-06
-0.000279745
-0.000839265
8.78734e-08
-0.00139883
3.50673e-07
-0.00195846
7.82954e-07
-0.00251819
1.37703e-06
-0.003078
2.11832e-06
-0.00363797
2.99319e-06
-0.00419803
3.97704e-06
-0.00475835
5.05096e-06
-0.00531874
6.17999e-06
-0.0058795
7.34007e-06
-0.0064403
8.48707e-06
-0.00700159
9.59063e-06
-0.00756291
1.06019e-05
-0.00812483
1.14784e-05
-0.00868675
1.21761e-05
-0.00924943
1.26273e-05
-0.00981201
1.28087e-05
-0.0103757
1.26028e-05
-0.0109389
1.20316e-05
-0.0115038
1.08883e-05
-0.0120676
9.2865e-06
-0.012634
6.85374e-06
-0.0131992
4.06313e-06
-0.000279832
-0.000839524
8.54009e-08
-0.00139926
3.40846e-07
-0.00195905
7.61136e-07
-0.00251892
1.33898e-06
-0.00307886
2.06039e-06
-0.00363894
2.91241e-06
-0.00419909
3.87124e-06
-0.00475946
4.91883e-06
-0.00531988
6.02103e-06
-0.00588062
7.15463e-06
-0.00644138
8.27609e-06
-0.00700257
9.35533e-06
-0.00756375
1.03435e-05
-0.00812549
1.11994e-05
-0.00868716
1.18785e-05
-0.00924957
1.23166e-05
-0.00981176
1.24913e-05
-0.010375
1.22909e-05
-0.0109377
1.17414e-05
-0.0115022
1.06426e-05
-0.0120652
9.10452e-06
-0.0126312
6.77176e-06
-0.0131951
4.00358e-06
-0.000279916
-0.000839777
8.27709e-08
-0.00139967
3.3038e-07
-0.00195962
7.3786e-07
-0.00251963
1.2983e-06
-0.0030797
1.99826e-06
-0.00363989
2.82553e-06
-0.00420012
3.75713e-06
-0.00476054
4.77603e-06
-0.00532099
5.84906e-06
-0.00588171
6.95411e-06
-0.00644243
8.04824e-06
-0.00700353
9.10286e-06
-0.00756457
1.0069e-05
-0.00812613
1.09059e-05
-0.00868757
1.15688e-05
-0.0092497
1.19942e-05
-0.00981152
1.21595e-05
-0.0103744
1.1958e-05
-0.0109365
1.1418e-05
-0.0115006
1.03495e-05
-0.0120628
8.87051e-06
-0.0126284
6.64582e-06
-0.013191
3.92707e-06
-0.000279998
-0.000840021
8.0053e-08
-0.00140007
3.19555e-07
-0.00196017
7.13741e-07
-0.00252032
1.25603e-06
-0.00308051
1.9335e-06
-0.0036408
2.73459e-06
-0.00420112
3.63717e-06
-0.0047616
4.62524e-06
-0.00532207
5.66673e-06
-0.00588278
6.74096e-06
-0.00644346
7.80623e-06
-0.00700446
8.83491e-06
-0.00756538
9.77875e-06
-0.00812676
1.05983e-05
-0.00868795
1.12479e-05
-0.00924982
1.16649e-05
-0.00981127
1.18251e-05
-0.0103738
1.16234e-05
-0.0109354
1.10875e-05
-0.011499
1.00349e-05
-0.0120605
8.58772e-06
-0.0126256
6.41825e-06
-0.013187
3.81677e-06
-0.000280077
-0.000840257
7.73128e-08
-0.00140046
3.08627e-07
-0.0019607
6.89352e-07
-0.00252099
1.21319e-06
-0.0030813
1.86765e-06
-0.00364169
2.64176e-06
-0.00420209
3.51413e-06
-0.00476262
4.46975e-06
-0.00532312
5.47757e-06
-0.00588382
6.51836e-06
-0.00644446
7.55159e-06
-0.00700538
8.55198e-06
-0.00756617
9.47228e-06
-0.00812737
1.02745e-05
-0.00868833
1.09137e-05
-0.00924994
1.13269e-05
-0.00981102
1.14894e-05
-0.0103733
1.1295e-05
-0.0109343
1.07698e-05
-0.0114975
9.73366e-06
-0.0120583
8.30888e-06
-0.0126229
6.18586e-06
-0.0131832
3.67399e-06
-0.000280153
-0.000840485
7.45749e-08
-0.00140084
2.97704e-07
-0.00196122
6.64946e-07
-0.00252163
1.17024e-06
-0.00308206
1.80147e-06
-0.00364255
2.54819e-06
-0.00420303
3.38961e-06
-0.00476361
4.31161e-06
-0.00532414
5.28409e-06
-0.00588483
6.28925e-06
-0.00644543
7.28798e-06
-0.00700627
8.25645e-06
-0.00756693
9.1494e-06
-0.00812798
9.93113e-06
-0.0086887
1.05582e-05
-0.00925007
1.09692e-05
-0.00981079
1.11405e-05
-0.0103727
1.09625e-05
-0.0109332
1.04618e-05
-0.0114961
9.45231e-06
-0.0120561
8.05436e-06
-0.0126203
5.96863e-06
-0.0131794
3.48807e-06
-0.000280227
-0.000840705
7.18455e-08
-0.0014012
2.86806e-07
-0.00196172
6.40579e-07
-0.00252225
1.12731e-06
-0.0030828
1.73524e-06
-0.00364338
2.45435e-06
-0.00420393
3.2644e-06
-0.00476456
4.15202e-06
-0.00532512
5.08792e-06
-0.00588581
6.05539e-06
-0.00644637
7.01644e-06
-0.00700713
7.94963e-06
-0.00756768
8.81098e-06
-0.00812857
9.56733e-06
-0.00868908
1.0178e-05
-0.0092502
1.05828e-05
-0.00981057
1.07628e-05
-0.0103721
1.06052e-05
-0.0109322
1.0143e-05
-0.0114946
9.17703e-06
-0.0120539
7.83238e-06
-0.0126178
5.78838e-06
-0.0131759
3.31443e-06
-0.000280298
-0.000840916
6.90942e-08
-0.00140155
2.75824e-07
-0.0019622
6.1602e-07
-0.00252285
1.08402e-06
-0.0030835
1.66839e-06
-0.00364417
2.35952e-06
-0.0042048
3.13771e-06
-0.00476548
3.9902e-06
-0.00532607
4.88851e-06
-0.00588674
5.81691e-06
-0.00644728
6.73852e-06
-0.00700796
7.63283e-06
-0.00756841
8.45795e-06
-0.00812914
9.18272e-06
-0.00868944
9.76944e-06
-0.00925034
1.01602e-05
-0.00981036
1.03421e-05
-0.0103716
1.01994e-05
-0.0109312
9.77894e-06
-0.0114932
8.86509e-06
-0.0120518
7.60566e-06
-0.0126153
5.64255e-06
-0.0131725
3.28978e-06
-0.000280366
-0.00084112
6.62776e-08
-0.00140188
2.6458e-07
-0.00196266
5.90869e-07
-0.00252342
1.03966e-06
-0.00308418
1.59985e-06
-0.00364493
2.26226e-06
-0.00420564
3.00767e-06
-0.00476636
3.82392e-06
-0.00532698
4.68328e-06
-0.00588764
5.57069e-06
-0.00644814
6.4504e-06
-0.00700876
7.30327e-06
-0.0075691
8.0887e-06
-0.00812969
8.77676e-06
-0.0086898
9.33305e-06
-0.00925048
9.69992e-06
-0.00981018
9.87244e-06
-0.0103712
9.73187e-06
-0.0109302
9.34264e-06
-0.0114919
8.47137e-06
-0.0120498
7.302e-06
-0.0126129
5.43145e-06
-0.0131691
3.22465e-06
-0.000280431
-0.000841315
6.3319e-08
-0.0014022
2.52767e-07
-0.0019631
5.64442e-07
-0.00252397
9.93038e-07
-0.00308483
1.5278e-06
-0.00364566
2.15994e-06
-0.00420644
2.87078e-06
-0.00476719
3.64882e-06
-0.00532784
4.46698e-06
-0.0058885
5.31136e-06
-0.00644897
6.1466e-06
-0.00700951
6.95504e-06
-0.00756976
7.69629e-06
-0.00813021
8.34377e-06
-0.00869013
8.86148e-06
-0.00925061
9.19875e-06
-0.00980999
9.34751e-06
-0.0103707
9.19891e-06
-0.0109293
8.8175e-06
-0.0114907
7.97675e-06
-0.0120479
6.87456e-06
-0.0126106
5.09811e-06
-0.0131658
3.04157e-06
-0.000280493
-0.000841501
6.04802e-08
-0.00140251
2.41414e-07
-0.00196352
5.39047e-07
-0.0025245
9.48269e-07
-0.00308545
1.45866e-06
-0.00364636
2.0619e-06
-0.0042072
2.73976e-06
-0.00476799
3.48158e-06
-0.00532866
4.26069e-06
-0.0058893
5.06459e-06
-0.00644975
5.85796e-06
-0.00701022
6.6264e-06
-0.00757037
7.32735e-06
-0.0081307
7.94003e-06
-0.00869043
8.4231e-06
-0.00925072
8.7363e-06
-0.0098098
8.86043e-06
-0.0103703
8.70726e-06
-0.0109284
8.32221e-06
-0.0114895
7.51036e-06
-0.0120461
6.45064e-06
-0.0126085
4.75826e-06
-0.0131627
2.81424e-06
-0.000280553
-0.000841679
5.79637e-08
-0.0014028
2.31367e-07
-0.00196392
5.16602e-07
-0.002525
9.08766e-07
-0.00308604
1.3978e-06
-0.00364702
1.97583e-06
-0.00420792
2.62526e-06
-0.00476875
3.33603e-06
-0.00532944
4.08249e-06
-0.00589008
4.85292e-06
-0.00645049
5.61335e-06
-0.00701089
6.34957e-06
-0.00757095
7.02172e-06
-0.00813114
7.60886e-06
-0.0086907
8.07296e-06
-0.0092508
8.37276e-06
-0.00980961
8.49354e-06
-0.0103699
8.34277e-06
-0.0109275
7.9752e-06
-0.0114884
7.18895e-06
-0.0120443
6.19046e-06
-0.0126065
4.5568e-06
-0.0131599
2.73684e-06
-0.00028061
-0.000841849
5.52468e-08
-0.00140308
2.20513e-07
-0.0019643
4.92355e-07
-0.00252548
8.66094e-07
-0.00308661
1.33206e-06
-0.00364766
1.88288e-06
-0.00420862
2.50159e-06
-0.00476948
3.17879e-06
-0.00533019
3.88989e-06
-0.00589081
4.62365e-06
-0.0064512
5.34817e-06
-0.00701154
6.04967e-06
-0.00757151
6.69091e-06
-0.00813158
7.25035e-06
-0.00869096
7.69489e-06
-0.00925088
7.97985e-06
-0.00980941
8.09894e-06
-0.0103695
7.95121e-06
-0.0109267
7.60326e-06
-0.0114874
6.83986e-06
-0.0120426
5.88963e-06
-0.0126046
4.30677e-06
-0.0131571
2.65492e-06
-0.000280664
-0.000842011
5.22946e-08
-0.00140335
2.08728e-07
-0.00196467
4.66042e-07
-0.00252593
8.19808e-07
-0.00308715
1.26078e-06
-0.00364826
1.78214e-06
-0.00420928
2.36763e-06
-0.00477017
3.00855e-06
-0.00533091
3.68153e-06
-0.00589151
4.37609e-06
-0.00645188
5.06197e-06
-0.00701215
5.72542e-06
-0.00757203
6.33275e-06
-0.00813198
6.86142e-06
-0.00869121
7.28376e-06
-0.00925096
7.55269e-06
-0.00980922
7.67102e-06
-0.0103691
7.52897e-06
-0.0109259
7.21014e-06
-0.0114864
6.47586e-06
-0.012041
5.56678e-06
-0.0126029
4.00124e-06
-0.0131543
2.45568e-06
-0.000280715
-0.000842164
4.90926e-08
-0.0014036
1.95944e-07
-0.00196501
4.37512e-07
-0.00252636
7.69656e-07
-0.00308766
1.18359e-06
-0.00364883
1.67316e-06
-0.0042099
2.22281e-06
-0.00477082
2.82461e-06
-0.00533158
3.45649e-06
-0.00589217
4.10836e-06
-0.00645251
4.75271e-06
-0.00701273
5.37554e-06
-0.00757253
5.94701e-06
-0.00813237
6.4425e-06
-0.00869144
6.84145e-06
-0.00925104
7.09091e-06
-0.00980904
7.20694e-06
-0.0103687
7.06907e-06
-0.0109251
6.78851e-06
-0.0114854
6.09097e-06
-0.0120394
5.27293e-06
-0.0126013
4.01717e-06
-0.0131518
2.31103e-06
-0.000280763
-0.000842307
4.56121e-08
-0.00140383
1.82064e-07
-0.00196534
4.06562e-07
-0.00252677
7.15298e-07
-0.00308813
1.1e-06
-0.00364937
1.55522e-06
-0.00421049
2.06624e-06
-0.00477144
2.62596e-06
-0.00533221
3.21384e-06
-0.00589279
3.82036e-06
-0.00645311
4.42036e-06
-0.00701327
4.99905e-06
-0.00757299
5.53226e-06
-0.00813273
5.99157e-06
-0.00869165
6.36612e-06
-0.00925111
6.59405e-06
-0.00980885
6.70732e-06
-0.0103684
6.56891e-06
-0.0109243
6.32031e-06
-0.0114845
5.65658e-06
-0.0120378
4.96351e-06
-0.0125997
3.62987e-06
-0.0131495
2.16088e-06
-0.000280808
-0.00084244
4.18526e-08
-0.00140405
1.67065e-07
-0.00196564
3.73124e-07
-0.00252714
6.56581e-07
-0.00308858
1.00975e-06
-0.00364986
1.42798e-06
-0.00421103
1.89741e-06
-0.004772
2.41188e-06
-0.00533279
2.95253e-06
-0.00589337
3.50984e-06
-0.00645366
4.06267e-06
-0.00701377
4.59431e-06
-0.00757342
5.0876e-06
-0.00813307
5.50808e-06
-0.00869184
5.85879e-06
-0.00925118
6.06293e-06
-0.00980867
6.17822e-06
-0.0103681
6.03776e-06
-0.0109236
5.81548e-06
-0.0114838
5.14087e-06
-0.0120364
4.59953e-06
-0.0125982
3.32815e-06
-0.0131472
1.98292e-06
-0.000280848
-0.000842562
3.7813e-08
-0.00140425
1.50947e-07
-0.00196592
3.37165e-07
-0.00252748
5.93421e-07
-0.00308898
9.12668e-07
-0.00365032
1.29114e-06
-0.00421152
1.71591e-06
-0.00477253
2.18184e-06
-0.00533333
2.67215e-06
-0.0058939
3.17732e-06
-0.00645416
3.68007e-06
-0.00701423
4.16059e-06
-0.0075738
4.6118e-06
-0.00813339
4.9892e-06
-0.00869201
5.31583e-06
-0.00925126
5.49295e-06
-0.00980849
5.61788e-06
-0.0103678
5.47304e-06
-0.0109229
5.32671e-06
-0.0114832
4.99622e-06
-0.0120351
4.0959e-06
-0.0125968
3.01852e-06
-0.0131452
1.7917e-06
-0.000280885
-0.000842672
3.35271e-08
-0.00140443
1.33799e-07
-0.00196616
2.9884e-07
-0.00252779
5.26024e-07
-0.00308935
8.08953e-07
-0.00365073
1.14497e-06
-0.00421197
1.52203e-06
-0.004773
1.93601e-06
-0.00533381
2.37245e-06
-0.00589437
2.82096e-06
-0.00645462
3.27123e-06
-0.00701465
3.69728e-06
-0.00757415
4.10607e-06
-0.00813368
4.43603e-06
-0.00869215
4.74114e-06
-0.00925134
4.88392e-06
-0.0098083
5.0232e-06
-0.0103676
4.86576e-06
-0.0109222
4.81358e-06
-0.0114825
4.34054e-06
-0.012034
3.66317e-06
-0.0125956
2.72217e-06
-0.0131433
1.60904e-06
-0.000280918
-0.000842769
2.89985e-08
-0.00140459
1.15669e-07
-0.00196638
2.58251e-07
-0.00252807
4.54601e-07
-0.00308967
6.98936e-07
-0.00365109
9.89953e-07
-0.00421237
1.31652e-06
-0.00477341
1.67532e-06
-0.00533424
2.05466e-06
-0.0058948
2.44287e-06
-0.00645501
2.83823e-06
-0.00701503
3.20462e-06
-0.00757445
3.57207e-06
-0.00813395
3.84711e-06
-0.00869225
4.13973e-06
-0.00925144
4.24044e-06
-0.0098081
4.41083e-06
-0.0103675
4.26424e-06
-0.0109217
4.12651e-06
-0.0114818
3.74841e-06
-0.012033
3.19822e-06
-0.0125944
2.38949e-06
-0.0131417
1.41183e-06
-0.000280946
-0.000842852
2.42019e-08
-0.00140473
9.65861e-08
-0.00196657
2.15598e-07
-0.0025283
3.79616e-07
-0.00308995
5.83442e-07
-0.0036514
8.27249e-07