/*--------------------------------*- C++ -*----------------------------------*\
  =========                 |
  \\      /  F ield         | OpenFOAM: The Open Source CFD Toolbox
   \\    /   O peration     | Website:  https://openfoam.org
    \\  /    A nd           | Version:  10
     \\/     M anipulation  |
\*---------------------------------------------------------------------------*/
FoamFile
{
    format      ascii;
    class       volScalarField;
    location    "0.12";
    object      rho;
}
// * * * * * * * * * * * * * * * * * * * * * * * * * * * * * * * * * * * * * //

dimensions      [1 -3 0 0 0 0 0];

internalField   nonuniform List<scalar> 
4176
(
0.0308779
0.0308809
0.0308882
0.030897
0.030912
0.0309265
0.0309493
0.0309692
0.0309995
0.0310253
0.0310624
0.0310949
0.031137
0.0311778
0.0312227
0.0312744
0.0313176
0.0313854
0.031424
0.0315099
0.0315417
0.0316471
0.0316673
0.0317818
0.0308827
0.0308855
0.0308919
0.0309002
0.0309132
0.030927
0.0309466
0.0309657
0.0309919
0.0310164
0.0310488
0.0310791
0.0311168
0.031154
0.0311951
0.0312414
0.0312813
0.0313417
0.0313773
0.0314544
0.0314815
0.0315819
0.0316027
0.0317319
0.0309023
0.0309051
0.0309117
0.0309204
0.0309339
0.0309481
0.0309686
0.0309882
0.0310157
0.0310407
0.0310748
0.0311057
0.0311455
0.0311836
0.0312269
0.0312744
0.0313166
0.0313798
0.0314156
0.0314962
0.0315237
0.0316227
0.0316417
0.031763
0.0309301
0.0309329
0.0309393
0.0309477
0.0309609
0.0309746
0.0309947
0.0310136
0.0310405
0.0310646
0.0310982
0.0311278
0.0311669
0.0312032
0.0312463
0.0312919
0.0313338
0.031397
0.0314282
0.0315112
0.0315363
0.031634
0.0316518
0.0317643
0.0309688
0.0309716
0.030978
0.0309864
0.0309995
0.0310133
0.0310332
0.0310524
0.031079
0.0311035
0.0311366
0.0311666
0.0312058
0.0312422
0.0312854
0.0313304
0.0313743
0.0314342
0.0314691
0.03155
0.0315768
0.031674
0.0316932
0.0318073
0.031018
0.0310208
0.031027
0.0310354
0.0310482
0.031062
0.0310815
0.0311005
0.0311266
0.0311509
0.0311834
0.0312132
0.0312513
0.0312874
0.0313301
0.0313742
0.0314184
0.0314756
0.0315138
0.0315907
0.0316184
0.0317144
0.0317346
0.0318501
0.031077
0.0310797
0.0310859
0.0310942
0.031107
0.0311206
0.0311399
0.0311588
0.0311847
0.0312087
0.031241
0.0312704
0.0313087
0.0313443
0.0313868
0.0314301
0.0314746
0.03153
0.031569
0.0316441
0.031673
0.0317674
0.0317878
0.0319014
0.031147
0.0311497
0.0311559
0.0311641
0.0311766
0.0311901
0.0312092
0.0312278
0.0312534
0.0312771
0.031309
0.0313381
0.0313755
0.0314106
0.0314529
0.0314953
0.0315398
0.0315935
0.0316337
0.0317061
0.0317361
0.031829
0.0318499
0.0319622
0.0312266
0.0312293
0.0312354
0.0312435
0.0312559
0.0312693
0.0312881
0.0313065
0.0313317
0.0313552
0.0313867
0.0314154
0.0314528
0.0314872
0.0315292
0.0315707
0.0316153
0.031667
0.0317081
0.0317781
0.0318091
0.0319
0.0319213
0.0320319
0.0313174
0.0313201
0.0313261
0.0313341
0.0313464
0.0313596
0.0313781
0.0313963
0.0314212
0.0314443
0.0314754
0.0315036
0.0315402
0.031574
0.0316156
0.0316562
0.0317007
0.031751
0.0317928
0.0318604
0.0318926
0.0319806
0.0320027
0.0321114
0.0314178
0.0314205
0.0314264
0.0314343
0.0314464
0.0314594
0.0314777
0.0314956
0.0315202
0.031543
0.0315736
0.0316013
0.0316378
0.031671
0.0317121
0.0317518
0.031796
0.0318446
0.0318869
0.0319521
0.0319849
0.0320708
0.0320932
0.0321999
0.0315295
0.0315322
0.031538
0.0315459
0.0315577
0.0315706
0.0315886
0.0316063
0.0316304
0.0316528
0.031683
0.0317102
0.0317458
0.0317783
0.031819
0.0318577
0.0319015
0.0319489
0.0319916
0.0320544
0.0320879
0.0321713
0.032194
0.0322986
0.031651
0.0316537
0.0316594
0.0316671
0.0316788
0.0316914
0.0317091
0.0317265
0.0317502
0.0317722
0.0318019
0.0318286
0.031864
0.0318958
0.0319359
0.0319736
0.0320171
0.0320628
0.0321057
0.032166
0.0322001
0.032281
0.0323038
0.0324062
0.031784
0.0317867
0.0317923
0.0317999
0.0318113
0.0318237
0.0318411
0.0318581
0.0318814
0.031903
0.0319321
0.0319583
0.0319928
0.0320238
0.0320633
0.0321
0.032143
0.0321874
0.0322305
0.0322884
0.0323231
0.0324014
0.0324241
0.0325242
0.0319268
0.0319294
0.0319349
0.0319424
0.0319536
0.0319658
0.0319828
0.0319995
0.0320223
0.0320434
0.032072
0.0320975
0.0321318
0.032162
0.0322009
0.0322365
0.032279
0.0323217
0.0323647
0.0324202
0.0324554
0.032531
0.0325538
0.0326513
0.0320814
0.032084
0.0320894
0.0320967
0.0321076
0.0321195
0.0321362
0.0321525
0.0321748
0.0321954
0.0322234
0.0322482
0.0322815
0.0323109
0.0323491
0.0323836
0.0324255
0.0324669
0.0325097
0.0325629
0.0325985
0.0326711
0.0326944
0.0327891
0.0322459
0.0322485
0.0322537
0.0322609
0.0322716
0.0322832
0.0322994
0.0323153
0.0323371
0.0323571
0.0323845
0.0324087
0.0324416
0.03247
0.0325076
0.032541
0.0325822
0.0326219
0.0326643
0.0327151
0.032751
0.0328207
0.0328443
0.0329361
0.0324224
0.0324249
0.0324301
0.0324371
0.0324475
0.0324588
0.0324746
0.03249
0.0325113
0.0325307
0.0325574
0.0325808
0.0326125
0.0326401
0.0326768
0.0327091
0.0327496
0.032788
0.03283
0.0328783
0.0329145
0.0329812
0.0330052
0.0330939
0.032609
0.0326115
0.0326165
0.0326233
0.0326334
0.0326444
0.0326598
0.0326747
0.0326954
0.0327142
0.0327401
0.0327628
0.0327941
0.0328206
0.0328565
0.0328875
0.0329272
0.0329638
0.0330053
0.0330512
0.0330876
0.0331513
0.0331756
0.0332611
0.0328079
0.0328103
0.0328151
0.0328218
0.0328316
0.0328422
0.0328571
0.0328716
0.0328916
0.0329097
0.0329349
0.0329567
0.0329867
0.0330123
0.0330472
0.033077
0.0331158
0.033151
0.0331918
0.0332354
0.0332719
0.0333325
0.0333571
0.0334394
0.033017
0.0330194
0.0330241
0.0330305
0.03304
0.0330502
0.0330646
0.0330785
0.0330979
0.0331153
0.0331397
0.0331606
0.0331901
0.0332146
0.0332485
0.0332769
0.0333147
0.0333481
0.0333882
0.0334294
0.0334659
0.0335233
0.0335482
0.0336272
0.0332386
0.033241
0.0332455
0.0332517
0.0332608
0.0332706
0.0332845
0.0332978
0.0333165
0.0333332
0.0333567
0.0333767
0.0334049
0.0334282
0.0334611
0.0334882
0.033525
0.0335568
0.033596
0.0336349
0.0336713
0.0337255
0.0337506
0.0338261
0.0334707
0.033473
0.0334774
0.0334833
0.033492
0.0335014
0.0335147
0.0335275
0.0335454
0.0335613
0.033584
0.033603
0.0336306
0.0336527
0.0336846
0.0337101
0.0337458
0.0337757
0.0338139
0.0338505
0.0338867
0.0339375
0.0339628
0.0340348
0.0337155
0.0337177
0.0337219
0.0337276
0.0337359
0.0337449
0.0337576
0.0337697
0.0337868
0.033802
0.0338237
0.0338417
0.0338679
0.0338888
0.0339195
0.0339437
0.0339783
0.0340065
0.0340437
0.034078
0.0341137
0.0341612
0.0341865
0.0342548
0.0339709
0.0339731
0.033977
0.0339824
0.0339904
0.0339989
0.034011
0.0340224
0.0340388
0.0340531
0.0340738
0.0340908
0.0341163
0.034136
0.0341655
0.0341881
0.0342214
0.0342477
0.0342838
0.0343156
0.034351
0.0343951
0.0344203
0.0344847
0.0342391
0.0342413
0.034245
0.0342502
0.0342577
0.0342658
0.0342772
0.034288
0.0343035
0.0343169
0.0343367
0.0343525
0.0343765
0.0343949
0.0344232
0.0344444
0.0344766
0.034501
0.034536
0.0345655
0.0346002
0.0346409
0.0346659
0.0347265
0.0345181
0.0345202
0.0345238
0.0345287
0.0345358
0.0345433
0.0345542
0.0345642
0.034579
0.0345914
0.0346102
0.034625
0.0346481
0.0346651
0.0346922
0.0347117
0.0347425
0.034765
0.0347987
0.0348258
0.0348597
0.034897
0.034922
0.0349788
0.0348102
0.0348122
0.0348156
0.0348202
0.0348269
0.034834
0.0348442
0.0348535
0.0348674
0.0348789
0.0348967
0.0349102
0.0349318
0.0349474
0.0349732
0.0349912
0.0350207
0.0350414
0.0350738
0.0350986
0.0351315
0.0351653
0.0351903
0.035243
0.0351132
0.0351151
0.0351183
0.0351227
0.0351289
0.0351355
0.0351451
0.0351537
0.0351667
0.0351773
0.035194
0.0352065
0.0352271
0.0352414
0.0352658
0.0352819
0.03531
0.0353286
0.0353597
0.035382
0.035414
0.0354441
0.0354692
0.0355174
0.0354294
0.0354314
0.0354344
0.0354384
0.0354442
0.0354503
0.0354592
0.0354671
0.0354793
0.0354889
0.0355045
0.0355156
0.0355348
0.0355476
0.0355706
0.0355852
0.0356119
0.0356286
0.0356583
0.0356782
0.0357091
0.0357357
0.0357606
0.0358046
0.0357568
0.0357586
0.0357614
0.0357651
0.0357706
0.0357761
0.0357843
0.0357915
0.0358028
0.0358115
0.0358261
0.0358362
0.0358544
0.0358657
0.0358873
0.0358999
0.0359251
0.0359396
0.0359679
0.0359853
0.036015
0.0360383
0.0360628
0.0361025
0.0360976
0.0360994
0.036102
0.0361054
0.0361104
0.0361154
0.036123
0.0361294
0.0361398
0.0361476
0.0361611
0.0361697
0.0361865
0.0361963
0.0362166
0.0362277
0.0362514
0.0362638
0.0362906
0.0363055
0.0363339
0.0363539
0.0363782
0.0364133
0.0364496
0.0364513
0.0364537
0.0364569
0.0364614
0.0364659
0.0364728
0.0364785
0.036488
0.0364948
0.0365072
0.036515
0.0365307
0.036539
0.036558
0.036567
0.0365892
0.0365994
0.0366246
0.036637
0.036664
0.0366808
0.0367047
0.0367352
0.0368153
0.036817
0.0368192
0.036822
0.0368261
0.0368301
0.0368363
0.0368413
0.03685
0.0368557
0.0368671
0.0368733
0.0368876
0.0368945
0.0369121
0.0369196
0.0369404
0.0369485
0.0369722
0.0369819
0.0370075
0.037021
0.0370446
0.0370703
0.0371923
0.037194
0.0371959
0.0371985
0.0372022
0.0372057
0.0372112
0.0372155
0.0372232
0.0372281
0.0372383
0.0372437
0.0372568
0.0372623
0.0372784
0.0372839
0.0373032
0.0373092
0.0373314
0.0373385
0.0373626
0.0373727
0.0373958
0.0374167
0.0375833
0.0375849
0.0375866
0.0375889
0.0375922
0.0375952
0.0376001
0.0376036
0.0376105
0.0376143
0.0376235
0.0376273
0.0376391
0.037643
0.0376578
0.0376618
0.0376797
0.0376836
0.0377043
0.0377088
0.0377315
0.0377384
0.0377605
0.0377768
0.0379857
0.0379872
0.0379888
0.0379908
0.0379937
0.0379962
0.0380005
0.0380033
0.0380093
0.0380122
0.0380203
0.0380233
0.0380338
0.0380363
0.0380497
0.0380515
0.0380679
0.0380696
0.0380889
0.0380909
0.0381122
0.038116
0.0381368
0.0381483
0.0384022
0.0384038
0.0384051
0.0384069
0.0384093
0.0384114
0.038415
0.0384171
0.0384223
0.0384243
0.0384313
0.0384326
0.0384419
0.0384429
0.0384548
0.0384552
0.0384701
0.0384697
0.0384875
0.0384869
0.0385068
0.0385075
0.0385273
0.038534
0.0388305
0.038832
0.0388331
0.0388347
0.0388367
0.0388383
0.0388413
0.0388427
0.038847
0.0388481
0.038854
0.0388547
0.0388627
0.0388622
0.0388728
0.038871
0.0388843
0.0388816
0.0388979
0.0388947
0.0389133
0.0389108
0.0389297
0.0389316
0.0392732
0.0392746
0.0392756
0.0392769
0.0392785
0.0392796
0.039282
0.0392827
0.0392862
0.0392863
0.0392912
0.0392902
0.039297
0.039295
0.0393042
0.039301
0.0393129
0.0393079
0.0393227
0.0393167
0.0393339
0.0393282
0.0393461
0.0393439
0.0397278
0.0397292
0.03973
0.039731
0.0397322
0.0397328
0.0397346
0.0397346
0.0397372
0.0397365
0.0397404
0.0397387
0.0397443
0.0397408
0.0397487
0.0397432
0.0397537
0.0397464
0.0397597
0.0397509
0.0397667
0.0397577
0.0397743
0.0397683
0.0401971
0.0401985
0.0401991
0.0401999
0.0402006
0.0402008
0.0402019
0.0402013
0.040203
0.0402013
0.0402041
0.0402008
0.0402052
0.0402003
0.0402068
0.0401999
0.040209
0.0401995
0.0402115
0.0401998
0.0402143
0.0402017
0.0402172
0.0402069
0.0406785
0.0406798
0.0406803
0.0406808
0.0406811
0.0406808
0.0406813
0.04068
0.0406809
0.0406782
0.0406801
0.040676
0.0406792
0.0406728
0.040678
0.0406689
0.0406767
0.0406648
0.0406755
0.0406609
0.0406743
0.040658
0.0406727
0.0406577
0.041175
0.0411762
0.0411765
0.0411767
0.0411766
0.0411758
0.0411757
0.0411736
0.0411737
0.0411701
0.0411708
0.0411651
0.0411671
0.0411592
0.0411632
0.0411525
0.041159
0.0411449
0.0411544
0.0411369
0.0411493
0.0411293
0.0411432
0.0411235
0.0416836
0.0416848
0.0416849
0.0416849
0.0416844
0.0416831
0.0416823
0.0416795
0.0416787
0.0416742
0.041674
0.0416675
0.0416683
0.0416589
0.0416614
0.0416486
0.0416537
0.0416373
0.0416456
0.0416252
0.0416366
0.0416131
0.0416263
0.0416022
0.0422075
0.0422087
0.0422086
0.0422083
0.0422073
0.0422056
0.0422041
0.0422007
0.042199
0.0421935
0.042192
0.042184
0.0421835
0.0421727
0.0421739
0.0421596
0.0421634
0.0421447
0.0421517
0.0421284
0.042139
0.0421116
0.0421246
0.0420955
0.0427437
0.0427449
0.0427445
0.042744
0.0427426
0.0427404
0.0427382
0.0427341
0.0427315
0.0427251
0.0427228
0.0427139
0.0427122
0.0426998
0.0426996
0.0426832
0.0426856
0.0426644
0.0426704
0.0426439
0.0426539
0.0426224
0.0426357
0.0426011
0.0432953
0.0432964
0.0432959
0.0432951
0.0432932
0.0432905
0.0432877
0.0432829
0.0432794
0.0432721
0.0432684
0.043258
0.0432551
0.0432412
0.0432399
0.0432218
0.0432229
0.0431994
0.0432042
0.0431746
0.0431839
0.0431481
0.0431621
0.0431223
0.0438592
0.0438603
0.0438595
0.0438584
0.0438562
0.043853
0.0438495
0.043844
0.0438397
0.0438314
0.043827
0.0438156
0.0438115
0.043796
0.0437933
0.0437729
0.0437729
0.0437468
0.0437508
0.0437178
0.0437266
0.0436864
0.0437007
0.043656
0.0444384
0.0444395
0.0444386
0.0444372
0.0444345
0.0444309
0.0444267
0.0444205
0.0444153
0.0444061
0.0444003
0.0443874
0.0443822
0.0443652
0.0443614
0.0443393
0.0443382
0.0443095
0.0443127
0.0442762
0.0442852
0.0442402
0.0442546
0.0442051
0.0450299
0.0450309
0.0450298
0.0450282
0.0450251
0.045021
0.0450162
0.0450092
0.0450032
0.044993
0.0449866
0.0449727
0.0449664
0.0449477
0.0449427
0.0449182
0.0449162
0.0448846
0.0448873
0.0448468
0.0448569
0.0448066
0.044821
0.044767
0.0456366
0.0456375
0.0456363
0.0456344
0.0456309
0.0456264
0.0456209
0.0456133
0.0456065
0.0455953
0.0455876
0.0455722
0.0455649
0.0455446
0.0455388
0.0455123
0.0455097
0.0454751
0.0454777
0.0454331
0.0454431
0.0453891
0.045403
0.0453445
0.0462553
0.0462562
0.0462548
0.0462526
0.0462487
0.0462437
0.0462377
0.0462294
0.0462218
0.0462097
0.0462016
0.046185
0.0461768
0.0461547
0.046148
0.0461188
0.0461159
0.0460778
0.0460811
0.0460321
0.0460417
0.0459843
0.0459976
0.0459349
0.0468889
0.0468898
0.0468883
0.0468859
0.0468816
0.0468763
0.0468696
0.0468607
0.0468524
0.0468393
0.0468299
0.0468119
0.0468031
0.0467789
0.0467723
0.0467403
0.0467378
0.0466959
0.0466994
0.0466473
0.0466559
0.0465953
0.0466078
0.0465411
0.0475343
0.0475351
0.0475334
0.0475308
0.0475261
0.0475204
0.0475132
0.0475037
0.0474947
0.0474806
0.0474713
0.0474517
0.0474427
0.047416
0.0474095
0.0473741
0.047372
0.0473267
0.0473295
0.047275
0.0472825
0.047219
0.0472308
0.0471601
0.0481942
0.0481951
0.0481932
0.0481905
0.0481854
0.0481794
0.0481717
0.0481615
0.0481521
0.0481368
0.0481268
0.0481051
0.0480966
0.048067
0.0480617
0.0480231
0.0480208
0.0479736
0.0479751
0.0479184
0.0479247
0.0478584
0.0478694
0.0477949
0.0488653
0.0488663
0.0488641
0.0488614
0.0488559
0.0488497
0.0488413
0.0488306
0.048821
0.0488042
0.0487953
0.0487711
0.0487633
0.0487313
0.0487249
0.0486851
0.0486814
0.0486327
0.0486328
0.0485742
0.0485793
0.0485103
0.0485205
0.0484424
0.0495506
0.0495518
0.0495492
0.0495468
0.0495407
0.0495345
0.0495256
0.0495141
0.0495047
0.0494864
0.0494768
0.0494515
0.0494427
0.0494102
0.0494028
0.0493621
0.0493571
0.049307
0.0493058
0.0492454
0.0492493
0.0491778
0.0491873
0.0491058
0.0502468
0.050248
0.0502452
0.0502428
0.0502361
0.05023
0.0502205
0.0502088
0.0501987
0.0501801
0.0501703
0.0501444
0.0501347
0.0501012
0.0500926
0.0500507
0.0500445
0.0499931
0.0499908
0.0499286
0.0499314
0.0498576
0.0498664
0.0497815
0.0509568
0.0509579
0.0509552
0.0509526
0.0509459
0.0509395
0.0509293
0.0509183
0.0509068
0.0508882
0.050877
0.0508505
0.0508401
0.0508061
0.0507967
0.050754
0.0507467
0.0506942
0.0506907
0.050627
0.0506288
0.0505528
0.0505608
0.0504729
0.0516771
0.0516783
0.0516756
0.0516727
0.051666
0.0516593
0.0516487
0.0516379
0.0516249
0.0516073
0.0515952
0.0515687
0.0515574
0.0515226
0.051512
0.0514686
0.0514603
0.0514067
0.0514021
0.051337
0.0513377
0.0512598
0.051267
0.0511762
0.0524109
0.0524121
0.0524095
0.0524066
0.0523998
0.052393
0.0523822
0.0523713
0.0523574
0.0523403
0.0523258
0.0523002
0.0522877
0.0522527
0.0522415
0.0521975
0.0521882
0.0521337
0.0521281
0.0520617
0.0520615
0.0519817
0.0519882
0.0518948
0.0531549
0.0531561
0.0531534
0.0531504
0.0531435
0.0531366
0.0531255
0.0531146
0.0531
0.0530834
0.0530683
0.0530432
0.0530291
0.0529938
0.0529817
0.052937
0.0529268
0.0528715
0.0528649
0.0527973
0.0527962
0.0527148
0.0527206
0.0526247
0.053912
0.0539133
0.0539107
0.0539077
0.0539008
0.0538939
0.0538826
0.0538716
0.0538565
0.0538399
0.0538233
0.0537986
0.0537832
0.0537487
0.0537354
0.0536903
0.0536793
0.0536232
0.0536158
0.0535471
0.0535451
0.0534622
0.0534673
0.0533693
0.0546794
0.0546807
0.054678
0.0546749
0.0546678
0.0546608
0.0546493
0.0546382
0.0546228
0.0546065
0.0545895
0.054565
0.0545484
0.0545136
0.0544992
0.0544536
0.0544418
0.0543849
0.0543767
0.0543071
0.0543041
0.0542199
0.0542244
0.0541244
0.0554599
0.0554613
0.0554586
0.0554557
0.0554484
0.0554414
0.0554297
0.0554185
0.0554026
0.0553861
0.0553678
0.0553433
0.055326
0.0552913
0.0552762
0.0552302
0.0552176
0.05516
0.0551509
0.0550804
0.0550766
0.0549913
0.054995
0.0548933
0.0562506
0.0562521
0.0562493
0.0562462
0.0562387
0.0562315
0.0562195
0.0562081
0.0561917
0.0561755
0.0561567
0.0561323
0.0561138
0.0560785
0.0560625
0.0560159
0.0560026
0.0559442
0.0559344
0.0558631
0.0558584
0.0557721
0.0557751
0.0556719
0.0570545
0.0570561
0.0570531
0.0570501
0.0570424
0.0570351
0.0570227
0.057011
0.0569941
0.0569773
0.0569571
0.0569328
0.0569133
0.0568782
0.0568614
0.0568142
0.0568003
0.0567411
0.0567305
0.0566585
0.0566529
0.0565658
0.0565681
0.0564636
0.0578683
0.0578699
0.0578667
0.0578635
0.0578554
0.0578477
0.0578348
0.0578227
0.0578052
0.0577884
0.0577674
0.0577432
0.0577221
0.0576867
0.0576686
0.0576209
0.0576064
0.0575464
0.057535
0.0574624
0.057456
0.0573682
0.0573698
0.0572643
0.0586944
0.0586961
0.0586927
0.0586894
0.058681
0.058673
0.0586595
0.0586469
0.0586286
0.0586109
0.0585885
0.0585644
0.0585418
0.0585072
0.0584876
0.0584397
0.0584244
0.0583637
0.0583515
0.0582784
0.0582712
0.0581829
0.0581838
0.0580776
0.0595289
0.0595305
0.059527
0.0595232
0.0595145
0.0595057
0.0594918
0.0594785
0.0594597
0.0594418
0.0594186
0.0593946
0.0593698
0.0593356
0.0593138
0.0592665
0.0592497
0.0591889
0.059176
0.0591026
0.0590945
0.0590059
0.0590062
0.0588993
0.0603729
0.0603746
0.060371
0.0603671
0.0603582
0.0603492
0.060335
0.0603211
0.0603015
0.0602827
0.0602586
0.0602344
0.0602084
0.0601752
0.0601512
0.0601051
0.060086
0.060026
0.0600124
0.0599387
0.0599299
0.0598412
0.0598409
0.0597338
0.0612218
0.0612234
0.0612199
0.0612156
0.0612068
0.0611974
0.061183
0.0611689
0.0611494
0.0611307
0.0611062
0.061082
0.0610544
0.0610218
0.0609957
0.0609512
0.06093
0.060871
0.0608561
0.0607827
0.0607733
0.0606848
0.060684
0.0605768
0.0620758
0.0620776
0.0620743
0.0620704
0.0620618
0.0620529
0.0620389
0.062025
0.0620054
0.0619866
0.0619621
0.0619383
0.0619107
0.0618791
0.0618516
0.0618087
0.0617854
0.0617282
0.0617115
0.0616394
0.0616293
0.061541
0.0615401
0.061433
0.0629306
0.0629324
0.0629296
0.0629259
0.062918
0.0629095
0.0628963
0.0628833
0.062865
0.0628475
0.0628239
0.0628009
0.0627733
0.0627428
0.0627147
0.0626737
0.0626488
0.0625935
0.0625751
0.0625043
0.0624938
0.0624059
0.0624049
0.0622982
0.0637878
0.0637898
0.0637876
0.0637848
0.063778
0.0637709
0.0637591
0.0637476
0.0637304
0.0637142
0.0636921
0.063671
0.0636451
0.0636166
0.0635891
0.0635502
0.0635246
0.0634718
0.0634524
0.0633823
0.063372
0.0632842
0.0632833
0.063177
0.0646457
0.064648
0.0646464
0.0646444
0.0646387
0.0646328
0.0646226
0.0646129
0.0645983
0.0645845
0.0645646
0.0645458
0.0645216
0.0644955
0.0644696
0.0644335
0.0644085
0.0643586
0.0643387
0.0642706
0.0642598
0.0641721
0.0641713
0.064065
0.0655102
0.0655129
0.0655118
0.0655109
0.0655063
0.0655021
0.0654936
0.0654858
0.0654726
0.065461
0.0654435
0.0654276
0.0654062
0.0653831
0.0653599
0.0653266
0.0653038
0.0652569
0.0652385
0.0651726
0.0651629
0.0650752
0.0650746
0.0649672
0.0663843
0.0663875
0.0663864
0.0663864
0.0663821
0.066379
0.0663712
0.0663652
0.0663539
0.0663446
0.0663287
0.0663152
0.0662955
0.0662751
0.0662552
0.0662237
0.0662055
0.0661594
0.0661462
0.066081
0.0660756
0.0659888
0.0659895
0.0658815
0.0672783
0.0672823
0.0672804
0.0672819
0.0672764
0.0672754
0.0672661
0.0672625
0.067249
0.067242
0.0672259
0.0672145
0.0671961
0.0671772
0.0671614
0.0671274
0.0671188
0.0670672
0.0670646
0.0669968
0.0669984
0.066914
0.0669183
0.066816
0.0681992
0.0682026
0.0682015
0.0682009
0.0681964
0.0681924
0.0681843
0.0681774
0.0681659
0.0681563
0.0681404
0.0681277
0.0681082
0.0680911
0.0680727
0.0680415
0.0680325
0.067983
0.0679818
0.0679161
0.0679212
0.0678386
0.0678477
0.0677531
0.0691574
0.0691606
0.069159
0.0691575
0.0691516
0.0691462
0.069136
0.0691268
0.069112
0.0690995
0.0690812
0.0690659
0.069044
0.0690251
0.0690018
0.068974
0.0689574
0.0689115
0.0689084
0.0688421
0.0688492
0.068765
0.0687774
0.0686831
0.0701574
0.0701602
0.0701577
0.0701547
0.0701468
0.0701386
0.0701254
0.0701128
0.0700947
0.0700781
0.0700548
0.0700344
0.0700072
0.0699834
0.0699542
0.0699232
0.0698997
0.0698536
0.0698439
0.0697748
0.0697821
0.0696928
0.0697076
0.0696092
0.0712045
0.0712077
0.0712037
0.0711999
0.0711895
0.0711793
0.0711624
0.0711463
0.0711226
0.0711012
0.071072
0.071046
0.0710117
0.0709811
0.0709437
0.0709056
0.0708739
0.0708202
0.0708044
0.0707266
0.0707313
0.0706333
0.0706488
0.070542
0.0722968
0.0723003
0.0722947
0.0722902
0.0722772
0.072265
0.0722441
0.0722257
0.0721964
0.0721724
0.0721344
0.0721045
0.0720601
0.0720229
0.071976
0.0719281
0.071888
0.0718192
0.0717966
0.0717047
0.0717021
0.0715908
0.0716038
0.0714831
0.073433
0.0734359
0.073431
0.0734242
0.0734114
0.0733962
0.0733746
0.0733512
0.0733207
0.0732895
0.0732507
0.073212
0.0731644
0.0731183
0.0730627
0.0730088
0.072951
0.0728775
0.0728371
0.0727326
0.0727153
0.0725854
0.0725901
0.0724476
0.0746044
0.0746071
0.0746021
0.0745945
0.0745808
0.0745643
0.0745415
0.0745166
0.0744843
0.0744508
0.0744085
0.0743663
0.0743144
0.0742634
0.0742021
0.0741414
0.0740723
0.0739981
0.07393
0.0738275
0.0737838
0.0736363
0.0736245
0.0734487
0.075805
0.0758076
0.0758028
0.0757953
0.0757815
0.075765
0.0757417
0.075716
0.0756829
0.0756485
0.0756056
0.0755621
0.0755088
0.0754557
0.0753919
0.0753281
0.075255
0.0751768
0.0750981
0.0749976
0.0749242
0.0747797
0.0747409
0.0745275
0.0770242
0.0770268
0.0770222
0.0770148
0.0770012
0.0769847
0.0769619
0.0769369
0.0769043
0.0768703
0.0768275
0.0767843
0.0767314
0.0766786
0.0766153
0.0765518
0.0764789
0.0764009
0.0763218
0.0762227
0.0761434
0.0760071
0.0759507
0.0757255
0.0782552
0.0782582
0.0782539
0.0782472
0.0782343
0.0782189
0.0781968
0.0781727
0.0781412
0.0781086
0.0780677
0.0780263
0.0779752
0.0779246
0.0778635
0.0778026
0.0777323
0.0776574
0.0775831
0.0774854
0.077418
0.07728
0.0772402
0.0770424
0.0794882
0.0794915
0.0794876
0.0794813
0.0794692
0.0794546
0.0794339
0.0794115
0.0793816
0.079351
0.0793116
0.0792727
0.0792241
0.0791766
0.0791186
0.0790614
0.0789948
0.0789246
0.0788549
0.0787629
0.0787012
0.078571
0.078534
0.0783507
0.080718
0.0807216
0.0807182
0.0807129
0.0807017
0.0806888
0.0806692
0.0806485
0.0806205
0.0805924
0.0805557
0.0805199
0.0804742
0.0804302
0.0803758
0.0803228
0.0802605
0.0801956
0.0801304
0.0800451
0.0799879
0.0798675
0.0798329
0.0796633
0.0819366
0.0819407
0.0819374
0.0819331
0.0819226
0.081911
0.0818928
0.0818744
0.081848
0.0818226
0.0817878
0.0817555
0.0817124
0.0816727
0.0816216
0.0815733
0.0815153
0.0814561
0.0813954
0.0813165
0.0812647
0.0811536
0.0811213
0.0809656
0.083141
0.0831456
0.0831421
0.0831396
0.0831293
0.0831202
0.0831024
0.083087
0.0830617
0.0830403
0.0830069
0.0829796
0.0829379
0.0829039
0.082855
0.0828125
0.0827582
0.0827049
0.0826489
0.0825768
0.0825289
0.0824279
0.0823978
0.0822557
0.084325
0.0843297
0.0843265
0.084325
0.0843151
0.0843079
0.0842909
0.0842786
0.0842537
0.0842364
0.0842035
0.0841815
0.0841406
0.0841131
0.0840651
0.0840303
0.0839776
0.0839309
0.0838799
0.083814
0.0837702
0.0836791
0.0836512
0.0835225
0.0854868
0.0854916
0.0854894
0.0854879
0.0854802
0.0854729
0.0854593
0.0854466
0.0854265
0.0854093
0.0853817
0.0853604
0.085325
0.0852993
0.0852566
0.0852252
0.0851773
0.0851367
0.0850883
0.0850302
0.0849902
0.0849089
0.0848831
0.0847673
0.086622
0.0866267
0.0866251
0.0866238
0.0866175
0.0866108
0.0865992
0.0865877
0.0865701
0.0865541
0.0865303
0.0865102
0.0864798
0.0864556
0.0864187
0.0863897
0.0863472
0.0863112
0.0862663
0.0862171
0.0861799
0.0861077
0.0860839
0.0859806
0.0877296
0.0877345
0.0877335
0.0877328
0.0877277
0.0877221
0.0877122
0.0877021
0.0876872
0.0876731
0.0876525
0.0876346
0.087608
0.0875864
0.0875539
0.0875282
0.0874904
0.0874589
0.087418
0.0873772
0.0873414
0.0872785
0.0872569
0.0871657
0.0888065
0.0888113
0.0888107
0.0888104
0.0888061
0.0888014
0.0887929
0.0887843
0.0887711
0.0887589
0.0887408
0.0887253
0.088702
0.0886832
0.0886547
0.0886323
0.0885989
0.0885719
0.0885353
0.0885007
0.0884668
0.0884138
0.088394
0.0883144
0.0898527
0.0898575
0.0898574
0.0898576
0.0898543
0.0898507
0.0898437
0.0898366
0.0898256
0.0898153
0.0897999
0.0897866
0.0897665
0.0897504
0.0897255
0.0897065
0.0896772
0.0896544
0.0896221
0.0895931
0.0895616
0.0895175
0.0894999
0.0894311
0.0908653
0.09087
0.0908702
0.0908708
0.0908682
0.0908654
0.0908595
0.0908537
0.0908442
0.0908357
0.0908224
0.0908114
0.0907941
0.0907807
0.0907592
0.0907434
0.0907179
0.0906989
0.0906707
0.0906467
0.0906185
0.0905829
0.0905661
0.090508
0.0918454
0.0918501
0.0918508
0.0918518
0.0918501
0.0918482
0.0918437
0.0918393
0.0918317
0.0918249
0.0918138
0.0918049
0.0917903
0.0917794
0.0917611
0.0917483
0.0917264
0.0917111
0.0916867
0.0916672
0.0916428
0.0916146
0.0915992
0.0915506
0.0927905
0.0927951
0.092796
0.0927973
0.0927961
0.092795
0.0927913
0.092788
0.0927817
0.0927765
0.0927674
0.0927605
0.0927483
0.0927399
0.0927244
0.0927145
0.092696
0.0926841
0.0926633
0.0926481
0.0926271
0.0926053
0.0925916
0.0925516
0.0937027
0.0937072
0.0937083
0.0937101
0.0937097
0.0937093
0.0937069
0.0937048
0.0937001
0.0936964
0.0936892
0.0936841
0.0936742
0.093668
0.0936553
0.093648
0.0936326
0.093624
0.0936066
0.0935954
0.093578
0.0935612
0.0935491
0.0935178
0.0945791
0.0945835
0.0945847
0.0945867
0.0945867
0.094587
0.0945852
0.0945841
0.0945805
0.0945782
0.0945726
0.0945693
0.0945615
0.0945574
0.0945472
0.0945424
0.0945299
0.0945242
0.0945099
0.0945024
0.0944881
0.0944762
0.0944657
0.0944423
0.0954229
0.0954271
0.0954287
0.095431
0.0954317
0.0954326
0.0954319
0.0954318
0.0954295
0.0954285
0.0954245
0.0954228
0.0954169
0.0954147
0.0954068
0.0954044
0.0953944
0.0953915
0.0953801
0.0953759
0.0953644
0.0953567
0.0953487
0.0953322
0.096231
0.0962351
0.0962368
0.0962392
0.0962402
0.0962416
0.0962415
0.0962422
0.0962409
0.0962411
0.0962385
0.0962383
0.0962341
0.0962338
0.0962279
0.0962276
0.0962201
0.0962198
0.0962109
0.0962099
0.096201
0.0961972
0.0961913
0.0961812
0.0970077
0.0970116
0.0970135
0.0970162
0.0970177
0.0970197
0.0970204
0.0970219
0.0970217
0.0970229
0.0970216
0.0970227
0.0970203
0.0970215
0.0970177
0.0970193
0.097014
0.097016
0.0970096
0.0970115
0.0970051
0.0970051
0.0970015
0.0969965
0.0977491
0.097753
0.0977548
0.0977577
0.0977594
0.0977618
0.097763
0.0977652
0.0977658
0.097768
0.0977679
0.0977702
0.0977692
0.097772
0.0977699
0.0977733
0.09777
0.0977742
0.09777
0.0977745
0.0977703
0.0977738
0.0977721
0.097772
0.0984608
0.0984644
0.0984665
0.0984695
0.0984716
0.0984744
0.0984763
0.0984791
0.0984806
0.0984836
0.0984846
0.0984881
0.0984883
0.0984925
0.098492
0.098497
0.0984955
0.0985017
0.0984994
0.0985064
0.0985041
0.0985109
0.0985106
0.098515
0.0991383
0.0991418
0.0991438
0.0991469
0.0991492
0.0991523
0.0991546
0.099158
0.0991601
0.099164
0.0991658
0.0991703
0.0991718
0.0991771
0.099178
0.0991845
0.0991846
0.0991925
0.0991919
0.0992011
0.0992004
0.0992101
0.099211
0.0992197
0.0997879
0.0997912
0.0997933
0.0997965
0.0997991
0.0998026
0.0998053
0.0998092
0.099812
0.0998165
0.0998192
0.0998246
0.0998271
0.0998335
0.0998356
0.0998434
0.099845
0.0998544
0.0998554
0.0998665
0.0998673
0.0998795
0.0998815
0.0998936
0.100405
0.100408
0.10041
0.100413
0.100416
0.10042
0.100423
0.100427
0.10043
0.100436
0.100439
0.100445
0.100448
0.100456
0.100459
0.100468
0.100471
0.100482
0.100484
0.100497
0.100499
0.100513
0.100516
0.100532
0.100996
0.100999
0.101001
0.101004
0.101007
0.101011
0.101014
0.101019
0.101023
0.101029
0.101033
0.101039
0.101044
0.101052
0.101056
0.101066
0.10107
0.101082
0.101085
0.1011
0.101103
0.101119
0.101123
0.101141
0.101556
0.101559
0.101561
0.101564
0.101567
0.101571
0.101575
0.10158
0.101584
0.10159
0.101595
0.101602
0.101607
0.101616
0.101621
0.101632
0.101637
0.10165
0.101654
0.10167
0.101674
0.101692
0.101696
0.101717
0.102092
0.102095
0.102097
0.1021
0.102103
0.102107
0.102111
0.102117
0.102121
0.102128
0.102133
0.102141
0.102146
0.102156
0.102162
0.102173
0.102179
0.102193
0.102198
0.102215
0.10222
0.10224
0.102245
0.102267
0.102599
0.102602
0.102604
0.102607
0.10261
0.102615
0.102619
0.102624
0.102629
0.102636
0.102642
0.10265
0.102656
0.102666
0.102672
0.102685
0.102691
0.102706
0.102712
0.10273
0.102735
0.102757
0.102761
0.102787
0.103084
0.103087
0.103089
0.103092
0.103096
0.1031
0.103104
0.10311
0.103115
0.103122
0.103128
0.103137
0.103143
0.103154
0.103161
0.103174
0.103181
0.103197
0.103203
0.103222
0.103228
0.103251
0.103256
0.103282
0.103543
0.103545
0.103547
0.103551
0.103554
0.103558
0.103563
0.103569
0.103574
0.103581
0.103588
0.103597
0.103604
0.103615
0.103622
0.103635
0.103643
0.103659
0.103666
0.103686
0.103692
0.103716
0.103721
0.10375
0.103981
0.103983
0.103986
0.103989
0.103992
0.103997
0.104001
0.104007
0.104013
0.10402
0.104027
0.104036
0.104043
0.104055
0.104063
0.104077
0.104084
0.104101
0.104109
0.104129
0.104136
0.104161
0.104166
0.104195
0.104395
0.104397
0.104399
0.104402
0.104406
0.10441
0.104415
0.104421
0.104427
0.104435
0.104441
0.104451
0.104458
0.10447
0.104478
0.104492
0.1045
0.104518
0.104526
0.104546
0.104554
0.104579
0.104585
0.104616
0.104791
0.104792
0.104794
0.104798
0.104801
0.104806
0.10481
0.104817
0.104822
0.10483
0.104837
0.104847
0.104855
0.104867
0.104875
0.104889
0.104898
0.104916
0.104924
0.104945
0.104953
0.104979
0.104985
0.105016
0.105164
0.105165
0.105167
0.10517
0.105174
0.105178
0.105183
0.105189
0.105195
0.105203
0.10521
0.10522
0.105228
0.10524
0.105248
0.105263
0.105272
0.10529
0.105298
0.10532
0.105328
0.105354
0.105361
0.105394
0.10552
0.105521
0.105523
0.105526
0.10553
0.105534
0.105539
0.105545
0.105551
0.105559
0.105566
0.105576
0.105584
0.105597
0.105605
0.10562
0.105629
0.105648
0.105656
0.105678
0.105686
0.105713
0.10572
0.105752
0.105856
0.105857
0.105859
0.105862
0.105865
0.10587
0.105875
0.105881
0.105887
0.105895
0.105902
0.105912
0.10592
0.105933
0.105941
0.105956
0.105965
0.105984
0.105992
0.106014
0.106022
0.10605