/*--------------------------------*- C++ -*----------------------------------*\
  =========                 |
  \\      /  F ield         | OpenFOAM: The Open Source CFD Toolbox
   \\    /   O peration     | Website:  https://openfoam.org
    \\  /    A nd           | Version:  10
     \\/     M anipulation  |
\*---------------------------------------------------------------------------*/
FoamFile
{
    format      ascii;
    class       volScalarField;
    location    "0.12";
    object      T;
}
// * * * * * * * * * * * * * * * * * * * * * * * * * * * * * * * * * * * * * //

dimensions      [0 0 0 1 0 0 0];

internalField   nonuniform List<scalar> 
4176
(
180.455
180.46
180.475
180.494
180.526
180.556
180.607
180.647
180.716
180.766
180.853
180.913
181.016
181.088
181.203
181.293
181.408
181.529
181.633
181.8
181.875
182.107
182.121
182.42
180.46
180.464
180.48
180.499
180.532
180.564
180.614
180.657
180.726
180.778
180.866
180.929
181.034
181.109
181.227
181.318
181.437
181.562
181.668
181.839
181.914
182.156
182.173
182.503
180.484
180.488
180.503
180.523
180.554
180.586
180.634
180.676
180.743
180.795
180.88
180.941
181.043
181.115
181.232
181.32
181.438
181.559
181.663
181.829
181.9
182.138
182.154
182.494
180.528
180.533
180.548
180.567
180.598
180.63
180.678
180.721
180.787
180.839
180.924
180.985
181.089
181.161
181.278
181.366
181.485
181.607
181.706
181.877
181.945
182.179
182.194
182.518
180.6
180.605
180.619
180.639
180.669
180.701
180.749
180.79
180.856
180.907
180.992
181.051
181.153
181.223
181.34
181.426
181.546
181.667
181.764
181.936
182.003
182.235
182.25
182.563
180.692
180.697
180.711
180.731
180.761
180.792
180.839
180.881
180.946
180.997
181.08
181.14
181.242
181.312
181.428
181.512
181.635
181.748
181.851
182.018
182.087
182.316
182.334
182.648
180.813
180.818
180.832
180.851
180.881
180.912
180.958
181
181.063
181.114
181.196
181.256
181.355
181.423
181.539
181.621
181.744
181.854
181.961
182.121
182.193
182.419
182.439
182.751
180.953
180.958
180.972
180.991
181.02
181.051
181.097
181.138
181.201
181.251
181.332
181.39
181.49
181.558
181.672
181.753
181.876
181.98
182.09
182.245
182.319
182.541
182.562
182.87
181.122
181.127
181.141
181.159
181.188
181.219
181.264
181.304
181.366
181.416
181.496
181.554
181.65
181.717
181.83
181.909
182.031
182.133
182.245
182.394
182.471
182.688
182.711
183.014
181.31
181.315
181.328
181.347
181.376
181.405
181.45
181.49
181.551
181.6
181.679
181.735
181.833
181.898
182.01
182.087
182.208
182.306
182.418
182.563
182.641
182.853
182.877
183.176
181.527
181.532
181.545
181.563
181.592
181.621
181.665
181.704
181.764
181.812
181.89
181.946
182.04
182.104
182.214
182.289
182.41
182.505
182.618
182.757
182.837
183.044
183.069
183.362
181.763
181.768
181.781
181.799
181.826
181.855
181.898
181.937
181.996
182.043
182.12
182.174
182.269
182.331
182.44
182.514
182.633
182.724
182.837
182.971
183.052
183.253
183.279
183.567
182.028
182.032
182.045
182.063
182.09
182.119
182.161
182.199
182.257
182.303
182.378
182.432
182.522
182.584
182.691
182.762
182.88
182.969
183.082
183.211
183.293
183.488
183.515
183.796
182.311
182.316
182.328
182.346
182.372
182.4
182.442
182.479
182.536
182.581
182.655
182.707
182.798
182.858
182.963
183.032
183.148
183.233
183.346
183.47
183.553
183.741
183.768
184.044
182.624
182.628
182.641
182.658
182.684
182.711
182.752
182.788
182.844
182.888
182.96
183.011
183.098
183.156
183.26
183.327
183.441
183.524
183.636
183.755
183.838
184.021
184.048
184.317
182.955
182.96
182.972
182.988
183.014
183.04
183.08
183.115
183.17
183.213
183.284
183.333
183.421
183.477
183.578
183.643
183.755
183.834
183.945
184.058
184.142
184.318
184.345
184.608
183.316
183.32
183.332
183.348
183.373
183.399
183.438
183.472
183.525
183.567
183.636
183.683
183.767
183.821
183.921
183.983
184.093
184.17
184.28
184.388
184.472
184.642
184.669
184.925
183.694
183.699
183.71
183.726
183.75
183.775
183.813
183.846
183.898
183.938
184.006
184.052
184.136
184.188
184.285
184.345
184.452
184.525
184.633
184.736
184.82
184.983
185.011
185.26
184.103
184.107
184.118
184.133
184.157
184.181
184.218
184.25
184.301
184.339
184.405
184.449
184.528
184.578
184.673
184.731
184.836
184.907
185.013
185.111
185.194
185.351
185.379
185.62
184.529
184.533
184.544
184.559
184.582
184.605
184.641
184.671
184.721
184.758
184.821
184.864
184.943
184.991
185.083
185.138
185.24
185.307
185.41
185.504
185.586
185.736
185.764
185.998
184.985
184.989
185
185.014
185.036
185.059
185.093
185.122
185.17
185.205
185.267
185.307
185.382
185.428
185.517
185.569
185.669
185.734
185.834
185.923
186.004
186.148
186.176
186.402
185.459
185.463
185.473
185.487
185.508
185.53
185.563
185.591
185.637
185.67
185.73
185.768
185.843
185.886
185.972
186.022
186.118
186.178
186.276
186.36
186.44
186.577
186.605
186.824
185.963
185.967
185.976
185.989
186.01
186.03
186.062
186.089
186.133
186.165
186.222
186.258
186.328
186.369
186.452
186.499
186.592
186.65
186.745
186.825
186.903
187.033
187.061
187.271
186.484
186.488
186.497
186.51
186.529
186.548
186.579
186.604
186.647
186.676
186.732
186.766
186.835
186.873
186.954
186.997
187.086
187.14
187.232
187.306
187.383
187.506
187.533
187.736
187.035
187.039
187.047
187.059
187.078
187.096
187.125
187.149
187.189
187.217
187.27
187.301
187.366
187.401
187.479
187.519
187.607
187.657
187.745
187.816
187.89
188.006
188.032
188.227
187.603
187.606
187.615
187.626
187.644
187.661
187.689
187.71
187.749
187.775
187.826
187.855
187.919
187.951
188.026
188.062
188.146
188.192
188.277
188.342
188.414
188.524
188.548
188.734
188.2
188.204
188.212
188.222
188.239
188.255
188.281
188.301
188.338
188.362
188.41
188.436
188.496
188.525
188.597
188.631
188.711
188.754
188.835
188.896
188.965
189.068
189.091
189.269
188.815
188.818
188.825
188.835
188.851
188.866
188.891
188.909
188.944
188.966
189.012
189.036
189.094
189.12
189.189
189.218
189.295
189.333
189.411
189.467
189.534
189.629
189.652
189.821
189.458
189.461
189.468
189.477
189.492
189.506
189.529
189.546
189.579
189.599
189.642
189.663
189.717
189.74
189.805
189.832
189.905
189.94
190.015
190.066
190.129
190.218
190.238
190.4
190.118
190.121
190.127
190.136
190.15
190.162
190.184
190.199
190.231
190.248
190.289
190.308
190.36
190.38
190.442
190.465
190.534
190.564
190.635
190.682
190.741
190.823
190.843
190.995
190.807
190.809
190.816
190.824
190.836
190.848
190.868
190.882
190.911
190.926
190.965
190.98
191.028
191.045
191.103
191.123
191.189
191.216
191.283
191.325
191.381
191.456
191.474
191.617
191.511
191.514
191.52
191.527
191.539
191.549
191.568
191.58
191.607
191.62
191.656
191.67
191.717
191.73
191.786
191.801
191.862
191.885
191.948
191.985
192.037
192.106
192.122
192.256
192.245
192.247
192.252
192.259
192.27
192.279
192.296
192.307
192.332
192.343
192.377
192.386
192.429
192.44
192.492
192.504
192.563
192.581
192.64
192.672
192.721
192.783
192.798
192.923
192.993
192.996
193
193.006
193.016
193.024
193.04
193.049
193.072
193.081
193.112
193.121
193.162
193.169
193.218
193.226
193.281
193.294
193.349
193.376
193.421
193.477
193.49
193.606
193.77
193.773
193.777
193.782
193.791
193.798
193.813
193.82
193.841
193.848
193.877
193.881
193.919
193.923
193.968
193.974
194.026
194.035
194.086
194.108
194.149
194.199
194.21
194.316
194.562
194.564
194.568
194.573
194.581
194.587
194.6
194.605
194.625
194.629
194.656
194.66
194.695
194.696
194.739
194.739
194.787
194.792
194.84
194.857
194.894
194.937
194.946
195.043
195.382
195.384
195.388
195.392
195.399
195.403
195.415
195.419
195.437
195.439
195.464
195.463
195.495
195.493
195.533
195.531
195.576
195.576
195.621
195.633
195.666
195.704
195.709
195.797
196.216
196.218
196.221
196.225
196.231
196.235
196.245
196.247
196.263
196.264
196.286
196.285
196.315
196.309
196.346
196.339
196.38
196.377
196.417
196.425
196.455
196.486
196.488
196.567
197.078
197.08
197.083
197.086
197.091
197.094
197.103
197.104
197.118
197.116
197.136
197.13
197.157
197.149
197.183
197.173
197.212
197.204
197.241
197.244
197.27
197.296
197.295
197.365
197.953
197.955
197.958
197.96
197.965
197.966
197.974
197.974
197.986
197.983
198.001
197.995
198.019
198.008
198.039
198.024
198.059
198.047
198.081
198.078
198.101
198.121
198.117
198.178
198.857
198.858
198.86
198.862
198.866
198.867
198.873
198.871
198.882
198.877
198.893
198.882
198.904
198.89
198.917
198.901
198.933
198.916
198.947
198.939
198.959
198.973
198.966
199.02
199.773
199.775
199.776
199.778
199.781
199.78
199.786
199.782
199.791
199.784
199.798
199.787
199.807
199.79
199.815
199.793
199.822
199.801
199.829
199.815
199.832
199.839
199.83
199.876
200.717
200.718
200.719
200.72
200.722
200.721
200.725
200.721
200.728
200.719
200.73
200.715
200.732
200.712
200.735
200.712
200.738
200.712
200.737
200.718
200.732
200.733
200.721
200.759
201.673
201.674
201.675
201.676
201.677
201.675
201.677
201.672
201.677
201.666
201.677
201.661
201.676
201.653
201.673
201.644
201.667
201.638
201.66
201.636
201.647
201.641
201.627
201.657
202.656
202.658
202.658
202.658
202.658
202.655
202.657
202.649
202.653
202.641
202.648
202.629
202.641
202.616
202.633
202.603
202.623
202.589
202.609
202.58
202.589
202.576
202.56
202.581
203.651
203.653
203.653
203.652
203.652
203.648
203.648
203.639
203.642
203.628
203.634
203.614
203.624
203.596
203.61
203.575
203.593
203.554
203.572
203.537
203.544
203.525
203.507
203.52
204.673
204.674
204.674
204.673
204.672
204.667
204.666
204.656
204.657
204.641
204.644
204.62
204.627
204.597
204.609
204.572
204.587
204.545
204.56
204.52
204.525
204.499
204.481
204.485
205.706
205.707
205.706
205.705
205.703
205.697
205.695
205.684
205.683
205.665
205.668
205.643
205.648
205.615
205.624
205.582
205.595
205.548
205.561
205.515
205.52
205.486
205.468
205.462
206.764
206.766
206.765
206.762
206.76
206.753
206.75
206.737
206.735
206.715
206.714
206.686
206.69
206.653
206.661
206.617
206.628
206.577
206.588
206.536
206.539
206.498
206.481
206.466
207.833
207.834
207.833
207.83
207.827
207.819
207.815
207.801
207.797
207.776
207.775
207.746
207.747
207.708
207.713
207.664
207.673
207.617
207.626
207.569
207.572
207.522
207.505
207.482
208.927
208.928
208.926
208.923
208.919
208.911
208.905
208.89
208.885
208.862
208.857
208.825
208.824
208.783
208.786
208.735
208.742
208.682
208.69
208.626
208.629
208.571
208.555
208.523
210.03
210.031
210.029
210.025
210.02
210.011
210.004
209.988
209.981
209.957
209.953
209.919
209.917
209.872
209.873
209.817
209.823
209.757
209.765
209.694
209.698
209.632
209.615
209.576
211.156
211.157
211.155
211.151
211.145
211.136
211.128
211.111
211.102
211.077
211.068
211.032
211.028
210.981
210.981
210.922
210.927
210.856
210.865
210.786
210.791
210.718
210.701
210.653
212.291
212.292
212.289
212.285
212.278
212.268
212.259
212.241
212.231
212.204
212.197
212.159
212.154
212.103
212.102
212.037
212.042
211.965
211.974
211.889
211.893
211.815
211.796
211.742
213.448
213.448
213.446
213.441
213.434
213.423
213.413
213.394
213.383
213.355
213.344
213.303
213.297
213.243
213.243
213.174
213.181
213.097
213.106
213.017
213.019
212.935
212.916
212.855
214.611
214.612
214.609
214.604
214.596
214.584
214.574
214.554
214.542
214.512
214.503
214.46
214.454
214.395
214.395
214.32
214.327
214.239
214.247
214.153
214.154
214.066
214.045
213.977
215.795
215.796
215.793
215.788
215.779
215.767
215.756
215.735
215.723
215.69
215.679
215.632
215.627
215.565
215.566
215.489
215.494
215.404
215.409
215.313
215.311
215.219
215.197
215.124
216.985
216.985
216.982
216.976
216.967
216.955
216.943
216.921
216.909
216.874
216.866
216.816
216.812
216.746
216.745
216.665
216.668
216.576
216.58
216.48
216.477
216.38
216.358
216.278
218.193
218.194
218.19
218.185
218.175
218.164
218.15
218.128
218.115
218.079
218.068
218.017
218.011
217.945
217.943
217.862
217.864
217.769
217.771
217.669
217.664
217.564
217.541
217.456
219.406
219.407
219.402
219.397
219.387
219.375
219.36
219.338
219.325
219.288
219.279
219.227
219.219
219.152
219.148
219.065
219.065
218.969
218.969
218.865
218.858
218.754
218.731
218.64
220.636
220.637
220.632
220.628
220.617
220.605
220.59
220.569
220.553
220.517
220.503
220.451
220.442
220.375
220.371
220.287
220.286
220.188
220.187
220.08
220.073
219.966
219.942
219.846
221.869
221.87
221.866
221.86
221.85
221.837
221.822
221.801
221.783
221.749
221.735
221.684
221.674
221.605
221.598
221.514
221.511
221.412
221.41
221.301
221.292
221.183
221.158
221.058
223.118
223.12
223.115
223.11
223.1
223.087
223.071
223.051
223.031
222.998
222.979
222.93
222.917
222.851
222.843
222.759
222.754
222.655
222.651
222.541
222.531
222.419
222.393
222.289
224.37
224.371
224.367
224.361
224.351
224.338
224.322
224.301
224.281
224.249
224.231
224.183
224.168
224.1
224.091
224.006
224
223.9
223.895
223.784
223.773
223.658
223.633
223.525
225.637
225.638
225.634
225.629
225.618
225.606
225.59
225.569
225.548
225.516
225.495
225.447
225.431
225.365
225.355
225.27
225.263
225.162
225.156
225.044
225.032
224.916
224.89
224.779
226.906
226.907
226.903
226.897
226.886
226.874
226.857
226.837
226.815
226.785
226.764
226.717
226.699
226.632
226.62
226.535
226.527
226.426
226.418
226.305
226.293
226.174
226.148
226.034
228.189
228.191
228.186
228.181
228.171
228.158
228.141
228.121
228.099
228.068
228.043
227.997
227.978
227.913
227.901
227.815
227.806
227.704
227.696
227.582
227.569
227.449
227.423
227.306
229.474
229.476
229.471
229.466
229.454
229.442
229.424
229.404
229.381
229.351
229.327
229.282
229.261
229.194
229.18
229.094
229.085
228.982
228.973
228.858
228.844
228.723
228.697
228.578
230.773
230.774
230.77
230.765
230.753
230.741
230.723
230.702
230.678
230.647
230.62
230.575
230.553
230.489
230.474
230.387
230.377
230.274
230.264
230.148
230.134
230.012
229.986
229.865
232.072
232.073
232.068
232.063
232.051
232.037
232.019
231.997
231.973
231.943
231.916
231.871
231.846
231.781
231.764
231.677
231.667
231.563
231.552
231.436
231.421
231.299
231.272
231.15
233.382
233.384
233.379
233.373
233.361
233.347
233.328
233.306
233.281
233.248
233.219
233.175
233.148
233.086
233.066
232.981
232.969
232.864
232.853
232.737
232.722
232.599
232.572
232.449
234.69
234.692
234.686
234.68
234.667
234.652
234.632
234.609
234.584
234.553
234.523
234.479
234.449
234.387
234.364
234.281
234.266
234.162
234.151
234.035
234.019
233.896
233.869
233.746
236.004
236.005
236
235.994
235.981
235.967
235.947
235.924
235.897
235.864
235.832
235.789
235.758
235.699
235.673
235.592
235.575
235.473
235.46
235.345
235.328
235.206
235.18
235.056
237.309
237.311
237.306
237.299
237.287
237.271
237.252
237.228
237.203
237.172
237.14
237.098
237.064
237.006
236.977
236.899
236.879
236.78
236.766
236.651
236.634
236.513
236.487
236.363
238.614
238.616
238.612
238.606
238.594
238.581
238.562
238.54
238.514
238.482
238.451
238.41
238.378
238.323
238.292
238.218
238.195
238.099
238.084
237.97
237.954
237.833
237.808
237.685
239.907
239.908
239.905
239.899
239.888
239.875
239.858
239.838
239.815
239.787
239.758
239.718
239.686
239.633
239.602
239.531
239.506
239.415
239.397
239.286
239.27
239.15
239.126
239.003
241.195
241.198
241.195
241.191
241.182
241.172
241.157
241.139
241.117
241.091
241.065
241.029
241
240.952
240.923
240.856
240.831
240.744
240.725
240.617
240.602
240.482
240.459
240.336
242.474
242.477
242.475
242.472
242.464
242.455
242.443
242.428
242.411
242.389
242.366
242.334
242.307
242.262
242.236
242.173
242.15
242.068
242.05
241.946
241.931
241.811
241.79
241.667
243.758
243.761
243.76
243.759
243.753
243.747
243.736
243.724
243.707
243.688
243.669
243.641
243.619
243.579
243.557
243.499
243.481
243.402
243.388
243.287
243.276
243.157
243.138
243.014
245.046
245.05
245.048
245.048
245.042
245.037
245.026
245.017
245.004
244.988
244.969
244.945
244.924
244.887
244.871
244.813
244.804
244.724
244.721
244.619
244.616
244.5
244.485
244.363
246.36
246.364
246.362
246.363
246.357
246.353
246.342
246.333
246.317
246.301
246.284
246.262
246.242
246.208
246.194
246.137
246.135
246.053
246.059
245.957
245.962
245.849
245.84
245.727
247.701
247.705
247.703
247.702
247.695
247.688
247.676
247.664
247.649
247.632
247.612
247.587
247.565
247.531
247.513
247.46
247.455
247.376
247.383
247.283
247.293
247.18
247.178
247.071
249.09
249.093
249.091
249.088
249.079
249.07
249.056
249.04
249.019
248.996
248.973
248.945
248.918
248.882
248.856
248.805
248.79
248.715
248.717
248.616
248.628
248.512
248.515
248.407
250.522
250.525
250.521
250.516
250.505
250.491
250.473
250.452
250.428
250.4
250.369
250.333
250.298
250.255
250.22
250.163
250.138
250.059
250.053
249.945
249.957
249.833
249.839
249.723
252.009
252.013
252.007
252.001
251.987
251.972
251.948
251.924
251.89
251.857
251.818
251.776
251.731
251.679
251.633
251.566
251.53
251.438
251.424
251.302
251.308
251.171
251.176
251.047
253.54
253.543
253.536
253.528
253.512
253.493
253.466
253.437
253.401
253.362
253.314
253.264
253.209
253.148
253.089
253.013
252.96
252.855
252.826
252.687
252.68
252.522
252.523
252.37
255.114
255.117
255.111
255.102
255.085
255.064
255.035
255.002
254.962
254.917
254.868
254.811
254.751
254.681
254.612
254.528
254.456
254.347
254.29
254.144
254.111
253.931
253.917
253.729
256.715
256.718
256.711
256.701
256.683
256.66
256.631
256.597
256.556
256.509
256.455
256.395
256.33
256.256
256.181
256.091
256.008
255.897
255.814
255.67
255.603
255.411
255.372
255.137
258.337
258.34
258.334
258.324
258.307
258.285
258.255
258.221
258.179
258.132
258.079
258.019
257.954
257.879
257.802
257.711
257.623
257.512
257.418
257.278
257.186
256.999
256.933
256.664
259.962
259.965
259.959
259.949
259.932
259.91
259.882
259.849
259.809
259.763
259.71
259.651
259.587
259.515
259.439
259.35
259.264
259.156
259.063
258.926
258.834
258.652
258.583
258.316
261.585
261.588
261.583
261.575
261.559
261.539
261.512
261.48
261.442
261.399
261.349
261.294
261.233
261.165
261.092
261.009
260.926
260.824
260.736
260.606
260.523
260.347
260.289
260.046
263.19
263.194
263.189
263.181
263.166
263.147
263.122
263.093
263.057
263.017
262.969
262.918
262.86
262.797
262.728
262.651
262.573
262.479
262.397
262.275
262.2
262.036
261.984
261.76
264.775
264.779
264.775
264.769
264.755
264.739
264.715
264.689
264.655
264.62
264.576
264.53
264.475
264.418
264.353
264.284
264.211
264.125
264.048
263.937
263.869
263.718
263.669
263.465
266.327
266.332
266.327
266.322
266.309
266.295
266.273
266.251
266.218
266.187
266.144
266.104
266.052
266.002
265.941
265.879
265.81
265.734
265.663
265.561
265.499
265.362
265.316
265.131
267.847
267.852
267.848
267.846
267.833
267.823
267.801
267.782
267.752
267.726
267.686
267.653
267.602
267.56
267.501
267.449
267.384
267.316
267.251
267.16
267.102
266.98
266.937
266.77
269.326
269.331
269.327
269.325
269.314
269.304
269.285
269.269
269.24
269.218
269.18
269.151
269.104
269.069
269.013
268.969
268.907
268.849
268.788
268.708
268.654
268.546
268.505
268.356
270.764
270.77
270.767
270.766
270.757
270.748
270.733
270.717
270.694
270.673
270.641
270.615
270.574
270.542
270.492
270.453
270.397
270.347
270.29
270.221
270.17
270.076
270.037
269.906
272.156
272.161
272.16
272.158
272.151
272.143
272.129
272.116
272.095
272.076
272.048
272.024
271.988
271.959
271.916
271.881
271.831
271.788
271.734
271.677
271.629
271.547
271.511
271.396
273.505
273.51
273.509
273.509
273.503
273.496
273.485
273.473
273.456
273.44
273.416
273.395
273.364
273.339
273.301
273.27
273.226
273.189
273.14
273.093
273.047
272.978
272.944
272.844
274.803
274.808
274.808
274.807
274.802
274.797
274.787
274.777
274.762
274.748
274.727
274.709
274.682
274.66
274.626
274.601
274.561
274.531
274.486
274.448
274.403
274.348
274.314
274.23
276.057
276.062
276.062
276.063
276.059
276.055
276.048
276.04
276.027
276.016
275.998
275.983
275.959
275.942
275.912
275.891
275.856
275.831
275.791
275.76
275.719
275.674
275.643
275.573
277.259
277.264
277.265
277.266
277.262
277.26
277.253
277.246
277.235
277.226
277.21
277.198
277.178
277.164
277.138
277.121
277.09
277.071
277.035
277.011
276.972
276.939
276.908
276.851
278.418
278.423
278.424
278.425
278.423
278.422
278.417
278.412
278.404
278.396
278.384
278.374
278.357
278.346
278.324
278.311
278.284
278.269
278.237
278.219
278.185
278.16
278.131
278.086
279.524
279.529
279.53
279.532
279.531
279.53
279.525
279.522
279.515
279.509
279.499
279.492
279.477
279.469
279.45
279.441
279.417
279.407
279.379
279.367
279.336
279.319
279.291
279.257
280.589
280.594
280.595
280.597
280.597
280.597
280.595
280.593
280.587
280.584
280.575
280.571
280.559
280.554
280.537
280.532
280.511
280.506
280.481
280.474
280.446
280.437
280.41
280.386
281.602
281.607
281.608
281.611
281.611
281.611
281.609
281.608
281.604
281.602
281.596
281.593
281.583
281.581
281.567
281.565
281.547
281.545
281.524
281.522
281.497
281.493
281.468
281.454
282.576
282.58
282.582
282.585
282.586
282.588
282.587
282.588
282.585
282.585
282.58
282.579
282.571
282.571
282.56
282.56
282.546
282.547
282.529
282.531
282.509
282.511
282.488
282.482
283.5
283.504
283.506
283.509
283.51
283.512
283.511
283.513
283.511
283.512
283.509
283.51
283.504
283.506
283.497
283.5
283.488
283.493
283.477
283.483
283.464
283.47
283.449
283.451
284.387
284.391
284.394
284.397
284.399
284.401
284.402
284.404
284.404
284.406
284.404
284.407
284.403
284.407
284.4
284.405
284.396
284.403
284.39
284.399
284.383
284.394
284.375
284.383
285.226
285.23
285.232
285.235
285.237
285.24
285.241
285.245
285.245
285.248
285.248
285.252
285.249
285.255
285.25
285.257
285.25
285.26
285.248
285.261
285.247
285.262
285.245
285.258
286.032
286.036
286.038
286.042
286.044
286.048
286.05
286.054
286.055
286.059
286.06
286.065
286.064
286.071
286.068
286.077
286.072
286.084
286.075
286.09
286.078
286.096
286.081
286.099
286.791
286.795
286.797
286.801
286.803
286.807
286.81
286.814
286.816
286.821
286.823
286.829
286.829
286.838
286.836
286.847
286.843
286.857
286.85
286.868
286.857
286.879
286.864
286.888
287.522
287.525
287.528
287.531
287.534
287.538
287.541
287.546
287.549
287.555
287.557
287.565
287.566
287.576
287.575
287.588
287.585
287.601
287.595
287.615
287.606
287.631
287.617
287.644
288.207
288.211
288.213
288.217
288.22
288.224
288.227
288.233
288.236
288.243
288.246
288.254
288.256
288.267
288.268
288.281
288.28
288.297
288.293
288.315
288.307
288.334
288.322
288.352
288.867
288.871
288.873
288.877
288.88
288.885
288.888
288.894
288.898
288.905
288.909
288.918
288.921
288.932
288.934
288.949
288.949
288.967
288.964
288.988
288.981
289.01
288.999
289.031
289.485
289.488
289.491
289.495
289.498
289.503
289.507
289.513
289.517
289.525
289.529
289.538
289.542
289.554
289.557
289.573
289.574
289.593
289.591
289.616
289.61
289.641
289.63
289.667
290.081
290.083
290.086
290.09
290.093
290.098
290.102
290.109
290.113
290.121
290.126
290.136
290.141
290.154
290.157
290.173
290.175
290.196
290.195
290.221
290.216
290.248
290.239
290.275
290.637
290.64
290.642
290.646
290.649
290.654
290.659
290.665
290.67
290.679
290.684
290.694
290.699
290.713
290.717
290.734
290.736
290.758
290.758
290.785
290.781
290.814
290.805
290.845
291.173
291.175
291.177
291.181
291.185
291.19
291.195
291.201
291.207
291.215
291.221
291.232
291.238
291.251
291.256
291.274
291.277
291.299
291.3
291.328
291.325
291.358
291.35
291.389
291.673
291.675
291.678
291.681
291.685
291.69
291.695
291.702
291.707
291.716
291.722
291.733
291.739
291.753
291.759
291.776
291.78
291.803
291.804
291.832
291.83
291.865
291.857
291.9
292.155
292.157
292.159
292.163
292.166
292.172
292.176
292.183
292.189
292.198
292.204
292.216
292.222
292.237
292.243
292.261
292.266
292.288
292.291
292.32
292.318
292.353
292.346
292.387
292.604
292.606
292.608
292.612
292.616
292.621
292.626
292.633
292.638
292.648
292.654
292.666
292.672
292.687
292.693
292.712
292.717
292.74
292.742
292.772
292.77
292.806
292.799
292.845
293.036
293.038
293.041
293.044
293.048
293.053
293.058
293.065
293.071
293.081
293.087
293.099
293.106
293.121
293.128
293.146
293.152
293.175
293.178
293.208
293.207
293.243
293.237
293.279
293.44
293.442
293.444
293.448
293.451
293.457
293.461
293.469
293.474
293.484
293.491
293.502
293.509
293.524
293.531
293.55
293.556
293.579
293.583
293.612
293.612
293.648
293.642
293.689
293.828
293.83
293.832
293.835
293.839
293.844
293.849
293.856
293.862
293.872
293.879
293.891
293.898
293.913
293.92
293.939
293.945
293.969
293.973
294.003
294.003
294.039
294.034
294.075
294.19
294.192
294.194
294.198
294.201
294.206
294.211
294.218
294.224
294.234
294.241
294.253
294.26
294.275
294.282
294.301
294.307
294.33
294.334
294.364
294.364
294.4
294.395
294.443
294.538
294.539
294.541
294.545
294.548
294.554
294.558
294.566
294.572
294.581
294.588
294.601
294.608
294.623
294.63
294.649
294.656
294.679
294.684
294.714
294.714
294.75
294.745
294.786
294.863
294.865
294.867
294.87
294.874
294.879
294.884
294.891
294.897
294.906
294.913
294.925
294.932
294.947
294.954
294.973
294.979
295.003
295.007
295.036
295.036
295.073
295.068
295.115
295.175
295.176
295.178
295.181
295.184
295.19
295.194
295.202
295.208
295.217
295.224
295.236
295.244
295.259
295.266
295.285
295.292
295.315
295.32
295.349
295.349
295.385
295.381
295.421
295.467
295.468
295.47
295.473
295.477
295.482
295.486
295.493
295.499
295.508
295.515
295.527
295.535
295.549
295.557
295.575
295.582
295.605
295.609
295.638
295.638
295.674
295.67
295.716
295.746
295.747
295.748
295.751
295.755
295.76
295.765
295.772
295.778
295.787
295.794
295.806
295.813
295.829
295.836
295.855
295.861
295.884
295.889
295.918
295.918
295.954
295.95
295.989
296.008
296.009
296.011
296.014
296.017
296.022
296.027
296.033
296.039
296.048
296.055
296.067
296.074
296.089
296.096
296.114
296.121
296.143
296.148
296.176
296.177
296.211
296.208
296.252
296.257
296.258
296.26
296.263
296.266
296.271
296.276
296.283
296.288
296.298
296.304
296.316
296.324
296.338
296.346
296.364
296.371
296.393
296.398
296.426
296.427
296.462
296.458
296.497
296.492
296.494
296.495
296.498
296.501
296.506
296.511
296.517
296.523
296.532
296.539
296.55
296.557
296.572
296.579
296.597
296.603
296.625
296.63
296.657
296.659
296.692
296.69
296.731
296.716
296.717
296.719
296.721
296.724
296.729
296.734
296.74
296.746
296.755
296.762
296.773
296.78
296.795
296.802
296.82
296.826
296.849
296.853
296.88
296.882
296.915
296.912
296.951
296.927
296.928
296.929
296.932
296.935
296.94
296.944
296.951
296.956
296.965
296.971
296.983
296.99
297.004
297.011
297.028
297.035
297.056
297.061
297.087
297.089
297.122
297.12
297.159
297.127
297.128
297.129
297.132
297.135
297.14
297.144
297.15
297.156
297.165
297.171
297.182
297.189
297.203
297.21
297.228
297.234
297.256
297.26
297.287
297.288
297.321
297.318
297.356
297.316
297.317
297.319
297.321
297.324
297.329
297.333
297.339
297.345
297.353
297.359
297.37
297.377
297.391
297.397
297.415
297.421
297.442
297.446
297.472
297.474
297.506
297.504
297.541
297.495
297.495
297.497
297.499
297.502
297.507
297.511
297.517
297.522
297.531
297.537
297.548
297.555
297.569
297.575
297.593
297.598
297.62
297.623
297.65
297.651
297.683
297.68
297.717
297.665
297.666
297.667
297.67
297.672
297.677
297.681
297.687
297.692
297.701
297.706
297.717
297.723
297.737
297.743
297.76
297.765
297.787
297.79
297.816
297.817
297.849
297.846
297.882
297.824
297.825
297.826
297.829
297.832
297.836
297.84
297.846
297.851
297.86
297.865
297.877
297.882
297.896
297.902
297.919
297.924
297.946
297.949
297.975
297.976
298.007
298.004
298.039
297.975
297.976
297.978
297.98
297.983
297.987
297.991
297.997
298.001
298.01
298.015
298.026
298.031
298.046
298.051
298.068
298.072
298.094
298.097
298.123
298.123
298.154
298.152
298.187
298.12
298.12
298.122
298.124
298.127
298.131
298.135
298.141
298.146
298.154
298.159
298.17
298.176
298.19
298.194
298.212
298.216
298.237
298.24
298.265
298.266
298.295
298.293
298.327
298.253
298.253
298.255
298.257
298.26
298.264
298.267
298.274
298.278
298.287
298.291
298.303
298.307
298.322
298.326
298.344
298.347
298.369
298.371
298.397
298.397
298.427
298.425
298.458
298.383
298.384
298.385
298.388
298.39
298.394
298.397
298.404
298.408
298.417
298.421
298.432
298.436
298.451
298.455
298.472
298.475
298.496
298.499
298.523
298.524
298.553
298.551
298.583
298.501
298.502
298.503
298.506
298.508
298.512
298.515
298.522
298.526
298.535
298.539
298.55
298.554
298.569
298.572
298.591
298.593
298.615
298.616
298.642
298.642
298.671
298.668
298.7
298.617
298.618
298.619
298.621
298.623
298.628
298.631
298.638
298.641
298.65
298.653
298.665
298.668
298.683
298.686
298.704
298.707
298.727
298.729
298.754
298.754
298.782
298.78
298.811
298.723
298.724
298.725
298.727
298.729
298.734
298.736
298.743
298.746
298.756
298.759
298.771
298.774
298.789
298.792
298.809
298.812
298.833
298.834
298.859
298.859
298.887
298.884
298.915
298.825
298.826
298.827
298.83
298.831
298.836
298.838
298.846
298.848
298.858
298.86
298.872
298.875
298.89
298.893
298.91
298.913
298.933
298.935
298.958
298.959
298.986
298.984
299.014
298.92
298.921
298.922
298.924
298.926
298.931
298.933
298.94
298.943
298.952
298.955
298.966
298.969
298.984
298.986
299.004
299.006
299.026
299.028
299.051
299.051
299.078
299.076
299.106
299.011
299.011
299.012
299.015
299.016
299.021
299.023
299.03
299.033
299.042
299.045
299.056
299.059
299.074
299.076
299.093
299.095
299.115
299.117
299.14
299.14
299.166
299.165
299.193
299.095
299.096
299.096
299.099
299.101
299.105
299.107
299.114
299.117
299.126
299.128
299.14
299.142
299.157
299.159
299.176
299.178
299.198
299.199
299.222
299.222
299.248
299.246
299.275
299.174
299.175
299.176
299.179
299.18
299.185
299.187
299.193
299.196
299.205
299.207
299.219
299.222
299.236
299.238
299.255
299.257
299.276
299.277
299.3
299.3
299.326
299.324
299.352
299.249
299.25
299.25
299.253
299.255
299.259
299.261
299.267
299.27
299.279
299.281
299.293
299.295
299.309
299.311
299.328
299.33
299.349
299.35
299.372
299.372
299.398
299.396
299.423
299.319
299.319
299.32
299.322
299.324
299.328
299.331
299.337
299.339
299.348
299.351
299.362
299.364
299.378
299.38
299.396
299.398
299.417
299.419