/*--------------------------------*- C++ -*----------------------------------*\
  =========                 |
  \\      /  F ield         | OpenFOAM: The Open Source CFD Toolbox
   \\    /   O peration     | Website:  https://openfoam.org
    \\  /    A nd           | Version:  10
     \\/     M anipulation  |
\*---------------------------------------------------------------------------*/
FoamFile
{
    format      ascii;
    class       volVectorField;
    location    "0.12";
    object      U;
}
// * * * * * * * * * * * * * * * * * * * * * * * * * * * * * * * * * * * * * //

dimensions      [0 1 -1 0 0 0 0];

internalField   nonuniform List<vector> 
4176
(
(497.362 -0.0152349 -1.82883e-09)
(497.35 0.0651809 5.48755e-10)
(497.319 -0.000793846 -1.00747e-10)
(497.28 0.0922672 1.10995e-11)
(497.214 0.0481615 6.73767e-11)
(497.152 0.0916309 -5.41952e-11)
(497.049 0.122444 -1.56545e-10)
(496.966 0.062791 -7.04075e-11)
(496.825 0.22134 2.74773e-11)
(496.723 0.0072839 6.8848e-11)
(496.545 0.339892 5.33365e-12)
(496.422 -0.0664194 7.06464e-11)
(496.211 0.464761 1.29611e-10)
(496.063 -0.136507 3.38396e-11)
(495.827 0.562092 -5.12912e-11)
(495.643 -0.131954 -2.70647e-11)
(495.406 0.522486 -7.73469e-11)
(495.155 0.0277696 -8.48511e-11)
(494.942 0.32877 9.23598e-11)
(494.598 0.327149 1.19149e-10)
(494.443 -0.0225934 -1.20241e-11)
(493.964 0.776287 -6.72088e-11)
(493.934 -0.521676 5.23195e-12)
(493.31 1.44716 3.11564e-11)
(497.344 0.0038612 -1.82896e-09)
(497.332 0.115958 5.49276e-10)
(497.301 0.074303 -1.01111e-10)
(497.26 0.205128 1.04852e-11)
(497.194 0.183484 6.7774e-11)
(497.129 0.266341 -5.40275e-11)
(497.025 0.318455 -1.57799e-10)
(496.938 0.297892 -7.07086e-11)
(496.796 0.478368 2.79371e-11)
(496.689 0.300429 6.91043e-11)
(496.509 0.658441 4.92022e-12)
(496.381 0.281262 7.09322e-11)
(496.166 0.845198 1.28498e-10)
(496.014 0.261432 3.41008e-11)
(495.772 1.00679 -5.11412e-11)
(495.584 0.305706 -2.67179e-11)
(495.34 1.03559 -7.87796e-11)
(495.085 0.514356 -8.51593e-11)
(494.865 0.908133 9.15042e-11)
(494.514 0.859239 1.18901e-10)
(494.359 0.622787 -1.19868e-11)
(493.859 1.33518 -6.96145e-11)
(493.823 0.119687 5.99203e-12)
(493.136 1.99717 3.06945e-11)
(497.297 0.0222136 -1.83306e-09)
(497.285 0.162619 5.48382e-10)
(497.255 0.145478 -1.0313e-10)
(497.214 0.30947 1.15908e-11)
(497.151 0.311081 6.78535e-11)
(497.086 0.428529 -5.48419e-11)
(496.986 0.502565 -1.55779e-10)
(496.899 0.517123 -6.94575e-11)
(496.763 0.719102 2.96186e-11)
(496.656 0.575138 6.94133e-11)
(496.482 0.956336 4.04852e-12)
(496.356 0.608958 7.05384e-11)
(496.145 1.20133 1.30707e-10)
(495.998 0.637143 3.45082e-11)
(495.758 1.42322 -5.13647e-11)
(495.577 0.717544 -2.5675e-11)
(495.334 1.51621 -8.18662e-11)
(495.087 0.969584 -8.71664e-11)
(494.871 1.45119 9.22731e-11)
(494.529 1.34802 1.18786e-10)
(494.383 1.24189 -1.28656e-11)
(493.892 1.88644 -6.71218e-11)
(493.857 0.833151 6.16385e-12)
(493.146 2.6132 3.15559e-11)
(497.199 0.0409472 -1.83169e-09)
(497.187 0.210119 5.51858e-10)
(497.157 0.217969 -1.04126e-10)
(497.116 0.415777 1.47482e-11)
(497.053 0.441042 6.75076e-11)
(496.988 0.593876 -5.92433e-11)
(496.888 0.690116 -1.56326e-10)
(496.802 0.740738 -7.25804e-11)
(496.665 0.964294 2.25327e-11)
(496.559 0.85541 7.28944e-11)
(496.383 1.25962 4.99976e-12)
(496.259 0.943219 6.92424e-11)
(496.046 1.56395 1.32831e-10)
(495.9 1.02127 3.33096e-11)
(495.658 1.84814 -5.84269e-11)
(495.479 1.13903 -2.70655e-11)
(495.232 2.01111 -7.98215e-11)
(494.981 1.43055 -8.78961e-11)
(494.775 2.00341 9.46395e-11)
(494.423 1.84479 1.18473e-10)
(494.282 1.8524 -1.55834e-11)
(493.798 2.42432 -6.81078e-11)
(493.768 1.51999 4.27206e-12)
(493.087 3.20987 2.1917e-11)
(497.054 0.0592792 -1.83344e-09)
(497.043 0.25664 5.57962e-10)
(497.013 0.288885 -1.00227e-10)
(496.973 0.519957 1.48227e-11)
(496.91 0.568167 7.11784e-11)
(496.846 0.756034 -5.38284e-11)
(496.747 0.873573 -1.58861e-10)
(496.662 0.960277 -7.10057e-11)
(496.526 1.20416 2.76571e-11)
(496.422 1.13089 7.07948e-11)
(496.247 1.55642 5.17402e-12)
(496.125 1.27203 7.25115e-11)
(495.913 1.91925 1.2998e-10)
(495.771 1.39899 3.26604e-11)
(495.528 2.26591 -5.64503e-11)
(495.355 1.55353 -2.97234e-11)
(495.104 2.50636 -8.12454e-11)
(494.858 1.87372 -8.74429e-11)
(494.656 2.54829 8.92953e-11)
(494.301 2.34259 1.2452e-10)
(494.162 2.44684 -7.84211e-12)
(493.683 2.95008 -6.53097e-11)
(493.653 2.1625 7.77066e-12)
(492.992 3.76768 3.26323e-11)
(496.86 0.0776033 -1.84517e-09)
(496.848 0.302863 5.55345e-10)
(496.819 0.359648 -9.86974e-11)
(496.779 0.623548 1.01162e-11)
(496.717 0.69499 6.04858e-11)
(496.652 0.917333 -5.88293e-11)
(496.555 1.0566 -1.57009e-10)
(496.47 1.17876 -7.55069e-11)
(496.336 1.44344 2.78681e-11)
(496.231 1.40527 7.61565e-11)
(496.059 1.8523 5.41589e-12)
(495.937 1.59995 6.71093e-11)
(495.727 2.27287 1.27844e-10)
(495.586 1.77659 3.54102e-11)
(495.343 2.68035 -5.93945e-11)
(495.174 1.97239 -2.72601e-11)
(494.917 2.99713 -7.10755e-11)
(494.685 2.31657 -8.49184e-11)
(494.469 3.09761 9.91755e-11)
(494.126 2.83941 1.26924e-10)
(493.981 3.04304 -1.20327e-11)
(493.507 3.47798 -7.61983e-11)
(493.471 2.80926 4.46044e-12)
(492.808 4.32453 3.27517e-11)
(496.617 0.0957514 -1.8429e-09)
(496.606 0.348422 5.51979e-10)
(496.577 0.429622 -1.14358e-10)
(496.537 0.7257 1.02083e-11)
(496.475 0.820361 7.55427e-11)
(496.412 1.07642 -5.77428e-11)
(496.316 1.23753 -1.68927e-10)
(496.231 1.3943 -7.15461e-11)
(496.099 1.67998 3.40079e-11)
(495.994 1.67615 7.13126e-11)
(495.824 2.14475 2.55313e-12)
(495.703 1.9241 7.84517e-11)
(495.495 2.62212 1.44151e-10)
(495.355 2.15056 3.7698e-11)
(495.115 3.08868 -5.48656e-11)
(494.949 2.38961 -2.40752e-11)
(494.69 3.47677 -8.08649e-11)
(494.469 2.76115 -9.09479e-11)
(494.242 3.64494 9.37074e-11)
(493.913 3.32436 1.24725e-10)
(493.762 3.63805 -1.33804e-11)
(493.294 4.00541 -7.64456e-11)
(493.255 3.46578 6.65404e-12)
(492.593 4.88672 3.76834e-11)
(496.326 0.113762 -1.85671e-09)
(496.314 0.393515 5.61628e-10)
(496.285 0.498975 -9.39541e-11)
(496.246 0.826832 1.37486e-11)
(496.185 0.944564 6.31568e-11)
(496.122 1.2339 -5.46769e-11)
(496.027 1.41671 -1.53007e-10)
(495.942 1.6077 -7.33847e-11)
(495.812 1.91419 1.5425e-11)
(495.709 1.94443 6.8747e-11)
(495.54 2.43427 1.32976e-11)
(495.42 2.24536 7.30466e-11)
(495.214 2.96777 1.19164e-10)
(495.076 2.52156 2.94219e-11)
(494.836 3.4925 -4.77036e-11)
(494.674 2.80437 -3.2264e-11)
(494.415 3.94905 -7.7566e-11)
(494.202 3.20336 -7.47526e-11)
(493.968 4.18767 9.75474e-11)
(493.651 3.80482 1.10274e-10)
(493.494 4.23116 -1.34929e-11)
(493.034 4.52806 -6.04546e-11)
(492.991 4.11701 4.01611e-12)
(492.338 5.44168 1.43342e-11)
(495.985 0.131593 -1.86635e-09)
(495.974 0.438053 5.47344e-10)
(495.945 0.567547 -1.15703e-10)
(495.906 0.926737 1.51147e-12)
(495.846 1.06731 6.3451e-11)
(495.783 1.38945 -6.28435e-11)
(495.69 1.59372 -1.68829e-10)
(495.606 1.81845 -7.7165e-11)
(495.477 2.14548 2.15746e-11)
(495.375 2.20942 6.55595e-11)
(495.208 2.72012 1.38385e-12)
(495.09 2.56286 7.18036e-11)
(494.885 3.30895 1.28068e-10)
(494.75 2.88857 3.10985e-11)
(494.511 3.89088 -5.42371e-11)
(494.353 3.21529 -2.92636e-11)
(494.093 4.41282 -8.21575e-11)
(493.889 3.64262 -8.62167e-11)
(493.649 4.72358 9.40807e-11)
(493.344 4.27862 1.17415e-10)
(493.181 4.82177 -1.53732e-11)
(492.73 5.04599 -7.16741e-11)
(492.683 4.76385 5.63829e-12)
(492.039 5.99001 3.05711e-11)
(495.596 0.14924 -1.84802e-09)
(495.585 0.482045 5.75357e-10)
(495.557 0.635334 -9.66568e-11)
(495.518 1.02544 2.46866e-11)
(495.458 1.1886 8.23457e-11)
(495.396 1.5431 -4.55736e-11)
(495.304 1.76854 -1.52424e-10)
(495.221 2.02657 -6.03999e-11)
(495.093 2.37382 3.95359e-11)
(494.992 2.47108 8.21604e-11)
(494.827 3.00221 1.9575e-11)
(494.711 2.87646 8.78884e-11)
(494.508 3.64555 1.47112e-10)
(494.376 3.25134 4.41922e-11)
(494.138 4.28375 -4.04329e-11)
(493.984 3.62209 -1.86138e-11)
(493.724 4.86847 -6.86334e-11)
(493.527 4.07814 -7.56535e-11)
(493.284 5.25199 1.07893e-10)
(492.99 4.74612 1.29259e-10)
(492.821 5.40782 -3.16054e-12)
(492.381 5.55737 -5.96318e-11)
(492.33 5.4044 1.49451e-11)
(491.695 6.53001 3.95973e-11)
(495.158 0.166677 -1.86587e-09)
(495.147 0.525438 5.63221e-10)
(495.119 0.702238 -1.06078e-10)
(495.081 1.12282 1.71665e-11)
(495.022 1.30828 7.59304e-11)
(494.96 1.69469 -5.33702e-11)
(494.869 1.94099 -1.57955e-10)
(494.787 2.23187 -6.28143e-11)
(494.661 2.59894 3.73907e-11)
(494.562 2.72914 8.03112e-11)
(494.399 3.28018 1.97405e-11)
(494.284 3.18575 9.06049e-11)
(494.083 3.9771 1.50261e-10)
(493.953 3.60931 4.63394e-11)
(493.718 4.67058 -3.5581e-11)
(493.567 4.02403 -1.26457e-11)
(493.308 5.31586 -6.14158e-11)
(493.119 4.50938 -6.98491e-11)
(492.871 5.77208 1.18257e-10)
(492.589 5.20749 1.40269e-10)
(492.415 5.98698 -1.47259e-11)
(491.987 6.06043 -9.36644e-11)
(491.932 6.03887 -1.43537e-11)
(491.308 7.06125 8.30387e-12)
(494.672 0.183882 -1.87097e-09)
(494.66 0.568186 5.65169e-10)
(494.633 0.768183 -1.091e-10)
(494.595 1.21878 1.1706e-11)
(494.537 1.42623 7.11873e-11)
(494.476 1.8441 -5.91198e-11)
(494.386 2.11092 -1.6648e-10)
(494.305 2.4342 -7.33426e-11)
(494.18 2.8207 2.70706e-11)
(494.082 2.98343 7.07031e-11)
(493.921 3.55384 9.04669e-12)
(493.809 3.49046 8.15297e-11)
(493.61 4.30331 1.39808e-10)
(493.483 3.96204 3.70577e-11)
(493.25 5.05102 -4.99544e-11)
(493.103 4.42053 -2.63813e-11)
(492.845 5.75503 -7.87626e-11)
(492.662 4.93594 -8.36414e-11)
(492.412 6.28319 9.97231e-11)
(492.142 5.66183 1.22036e-10)
(491.963 6.55825 -9.68537e-12)
(491.547 6.55445 -6.4429e-11)
(491.488 6.66588 1.14721e-11)
(490.875 7.58311 3.46711e-11)
(494.136 0.200826 -1.87639e-09)
(494.124 0.610232 5.63879e-10)
(494.097 0.833067 -1.15056e-10)
(494.06 1.31321 5.7658e-12)
(494.003 1.54228 6.32115e-11)
(493.943 1.99114 -7.12291e-11)
(493.854 2.27812 -1.8139e-10)
(493.774 2.63336 -9.05207e-11)
(493.651 3.03885 9.89736e-12)
(493.555 3.2337 5.18441e-11)
(493.396 3.82294 -1.73451e-11)
(493.285 3.79031 5.55588e-11)
(493.089 4.62387 1.07431e-10)
(492.965 4.30913 3.19304e-11)
(492.734 5.42461 -2.58823e-11)
(492.592 4.81089 -9.04258e-12)
(492.334 6.18586 -6.08795e-11)
(492.159 5.35747 -7.16468e-11)
(491.906 6.78466 1.12143e-10)
(491.647 6.10843 1.3261e-10)
(491.464 7.12075 -1.42942e-12)
(491.061 7.03853 -5.93351e-11)
(490.999 7.28425 1.66951e-11)
(490.398 8.09508 3.76996e-11)
(493.551 0.217485 -1.87371e-09)
(493.54 0.651522 5.87315e-10)
(493.513 0.896799 -1.15987e-10)
(493.476 1.40597 -1.35435e-11)
(493.42 1.65627 6.05275e-11)
(493.361 2.13564 -6.21402e-11)
(493.273 2.44238 -1.60785e-10)
(493.195 2.8291 -5.36298e-11)
(493.074 3.25316 2.90123e-11)
(492.979 3.47971 5.22625e-11)
(492.822 4.08721 -4.48058e-12)
(492.714 4.08501 7.9182e-11)
(492.52 4.93849 1.50147e-10)
(492.399 4.6502 5.15468e-11)
(492.17 5.791 -5.87844e-11)
(492.032 5.1946 -4.99727e-11)
(491.777 6.60794 -9.7426e-11)
(491.608 5.77338 -9.0705e-11)
(491.354 7.27604 1.06282e-10)
(491.106 6.54678 1.38543e-10)
(490.919 7.67388 -1.36362e-11)
(490.529 7.51171 -8.82658e-11)
(490.464 7.89256 -2.20444e-13)
(489.875 8.59661 3.4818e-11)
(492.917 0.233835 -1.89331e-09)
(492.905 0.692006 5.4754e-10)
(492.879 0.959289 -1.07209e-10)
(492.843 1.49695 4.30316e-11)
(492.787 1.76804 8.66383e-11)
(492.729 2.27738 -5.91363e-11)
(492.643 2.60343 -1.8129e-10)
(492.566 3.02116 -1.00025e-10)
(492.447 3.46331 2.60068e-11)
(492.354 3.72114 9.43607e-11)
(492.2 4.34635 1.61488e-11)
(492.094 4.37426 7.35682e-11)
(491.903 5.24687 1.16257e-10)
(491.785 4.98492 3.03831e-11)
(491.558 6.14984 -3.44766e-11)
(491.425 5.57118 -2.07943e-11)
(491.171 7.02082 -8.73802e-11)
(491.009 6.18293 -1.02501e-10)
(490.754 7.75671 6.55164e-11)
(490.518 6.97657 1.09634e-10)
(490.327 8.21724 -5.49154e-13)
(489.95 7.97313 -6.40599e-11)
(489.883 8.48957 -1.42683e-13)
(489.307 9.08717 9.36896e-12)
(492.233 0.249856 -1.88303e-09)
(492.222 0.731639 5.97948e-10)
(492.196 1.02046 -1.14294e-10)
(492.16 1.58603 -1.6818e-11)
(492.106 1.87742 5.96122e-11)
(492.049 2.41616 -5.95538e-11)
(491.964 2.76104 -1.5386e-10)
(491.889 3.20924 -4.71023e-11)
(491.772 3.66898 2.99335e-11)
(491.681 3.95762 5.35627e-11)
(491.529 4.59998 1.7866e-12)
(491.426 4.65766 8.75416e-11)
(491.237 5.54867 1.61146e-10)
(491.123 5.31293 2.72958e-11)
(490.899 6.50083 -9.06532e-11)
(490.77 5.9402 -4.614e-11)
(490.519 7.42415 -8.78924e-11)
(490.363 6.58533 -7.80025e-11)
(490.108 8.2259 1.21313e-10)
(489.883 7.39756 1.16375e-10)
(489.688 8.75015 -3.93455e-11)
(489.326 8.42247 -7.73425e-11)
(489.255 9.07468 1.31415e-11)
(488.694 9.56607 4.6828e-11)
(491.5 0.265526 -1.90255e-09)
(491.489 0.770372 5.61173e-10)
(491.463 1.08022 -1.32645e-10)
(491.428 1.67309 -2.07427e-11)
(491.375 1.98425 7.06449e-11)
(491.319 2.55179 -3.29355e-11)
(491.236 2.91494 -1.50794e-10)
(491.162 3.39305 -6.60063e-11)
(491.047 3.86982 2.66171e-11)
(490.959 4.18878 6.49688e-11)
(490.809 4.84769 -9.53927e-12)
(490.709 4.93478 5.61437e-11)
(490.523 5.84347 1.42265e-10)
(490.412 5.63379 5.83721e-11)
(490.191 6.84361 -3.98583e-11)
(490.067 6.30127 -2.27046e-11)
(489.819 7.81766 -8.44493e-11)
(489.67 6.97971 -9.48453e-11)
(489.415 8.68281 7.90526e-11)
(489.202 7.80938 9.3438e-11)
(489.003 9.27115 -5.07953e-11)
(488.655 8.86038 -7.41732e-11)
(488.58 9.64831 3.09675e-11)
(488.034 10.032 4.34506e-11)
(490.717 0.280819 -1.89981e-09)
(490.705 0.808155 5.86679e-10)
(490.681 1.1385 -9.9118e-11)
(490.646 1.75802 3.39261e-11)
(490.594 2.08838 9.43439e-11)
(490.539 2.68408 -3.73844e-11)
(490.458 3.0649 -1.43698e-10)
(490.386 3.57229 -4.22497e-11)
(490.273 4.06548 6.70588e-11)
(490.187 4.41422 7.71127e-11)
(490.041 5.08904 -2.56724e-11)
(489.943 5.20513 5.28988e-11)
(489.761 6.13077 1.10026e-10)
(489.654 5.94701 7.01632e-12)
(489.436 7.17775 -8.17473e-11)
(489.317 6.65398 -4.79087e-11)
(489.071 8.20111 -1.01665e-10)
(488.928 7.36533 -9.87197e-11)
(488.675 9.12676 9.20773e-11)
(488.473 8.21176 1.22089e-10)
(488.271 9.77976 -7.14474e-12)
(487.938 9.28644 -5.99123e-11)
(487.859 10.2097 1.97671e-11)
(487.329 10.4845 4.74008e-11)
(489.883 0.295707 -1.91148e-09)
(489.872 0.844923 5.74466e-10)
(489.848 1.19518 -1.19869e-10)
(489.814 1.84067 7.55668e-12)
(489.763 2.18963 6.2063e-11)
(489.71 2.8128 -8.07355e-11)
(489.63 3.21066 -1.90252e-10)
(489.56 3.74668 -9.27621e-11)
(489.45 4.25561 8.5124e-12)
(489.366 4.63354 5.29799e-11)
(489.223 5.32359 -1.279e-11)
(489.129 5.46824 5.75006e-11)
(488.949 6.41008 1.06416e-10)
(488.846 6.25203 -7.78104e-13)
(488.632 7.50271 -9.96264e-11)
(488.518 6.99775 -7.07884e-11)
(488.275 8.57404 -8.9228e-11)
(488.14 7.74168 -5.82347e-11)
(487.887 9.5573 1.31899e-10)
(487.697 8.60429 1.48651e-10)
(487.492 10.2755 1.38022e-11)
(487.175 9.70033 -4.87435e-11)
(487.091 10.7581 2.78974e-11)
(486.578 10.9231 5.15265e-11)
(488.999 0.310156 -1.9334e-09)
(488.989 0.880599 5.86947e-10)
(488.965 1.25015 -9.10123e-11)
(488.932 1.92089 1.23702e-11)
(488.882 2.2878 8.82897e-11)
(488.83 2.93773 -3.15047e-11)
(488.753 3.35196 -1.69324e-10)
(488.685 3.91592 -9.73636e-11)
(488.577 4.4399 2.64178e-11)
(488.496 4.84638 9.21954e-11)
(488.356 5.55092 8.06568e-13)
(488.265 5.72361 8.75567e-11)
(488.089 6.68087 1.57036e-10)
(487.99 6.54826 1.96424e-11)
(487.78 7.81794 -5.4422e-11)
(487.671 7.33197 -1.11189e-11)
(487.432 8.93593 -9.44155e-11)
(487.303 8.1082 -1.21111e-10)
(487.053 9.97403 8.2299e-11)
(486.874 8.98654 1.21935e-10)
(486.667 10.7578 -3.93748e-11)
(486.364 10.1017 -7.68995e-11)
(486.277 11.293 1.54224e-11)
(485.78 11.3473 1.47846e-11)
(488.065 0.324127 -1.91906e-09)
(488.054 0.915094 5.99976e-10)
(488.031 1.30326 -9.16841e-11)
(487.999 1.99849 4.67733e-11)
(487.951 2.38265 1.06879e-10)
(487.9 3.05862 -6.96568e-11)
(487.825 3.48851 -2.15986e-10)
(487.759 4.07972 -1.06838e-10)
(487.654 4.61801 8.18692e-12)
(487.576 5.0524 6.11893e-11)
(487.439 5.77065 9.52746e-13)
(487.352 5.97083 8.37857e-11)
(487.18 6.94265 1.48477e-10)
(487.086 6.83514 4.54259e-11)
(486.879 8.12283 -3.58096e-11)
(486.776 7.65595 -7.07028e-12)
(486.54 9.28618 -5.66097e-11)
(486.419 8.46418 -9.69995e-11)
(486.171 10.3766 5.41749e-11)
(486.003 9.35815 8.98212e-11)
(485.794 11.2261 -3.95527e-11)
(485.507 10.4903 -8.96771e-11)
(485.415 11.8139 -1.10961e-11)
(484.936 11.7567 2.35e-11)
(487.08 0.33758 -1.94411e-09)
(487.069 0.948317 5.54045e-10)
(487.047 1.35436 -1.15514e-10)
(487.016 2.07326 4.7059e-11)
(486.969 2.47396 8.39123e-11)
(486.92 3.17518 -7.01167e-11)
(486.847 3.62002 -1.93209e-10)
(486.783 4.23775 -6.3693e-11)
(486.681 4.78962 7.12795e-11)
(486.606 5.25124 9.94774e-11)
(486.473 5.9824 1.57579e-11)
(486.389 6.20948 7.06912e-11)
(486.221 7.19498 1.05013e-10)
(486.132 7.11216 2.29944e-11)
(485.93 8.41683 -4.10834e-11)
(485.832 7.96905 -2.90873e-11)
(485.601 9.62415 -1.01972e-10)
(485.487 8.80884 -1.18991e-10)
(485.241 10.7646 9.93543e-11)
(485.084 9.71875 1.45676e-10)
(484.874 11.6794 -5.70772e-12)
(484.603 10.8657 -8.13639e-11)
(484.507 12.3203 -2.49926e-11)
(484.046 12.1509 2.8124e-11)
(486.044 0.350476 -1.95358e-09)
(486.033 0.980182 5.56815e-10)
(486.012 1.40332 -1.16289e-10)
(485.981 2.14503 5.26497e-11)
(485.936 2.56148 9.4345e-11)
(485.889 3.28716 -6.51955e-11)
(485.818 3.74617 -1.9418e-10)
(485.757 4.38969 -1.14094e-10)
(485.658 4.95435 2.16627e-11)
(485.586 5.44255 1.05002e-10)
(485.456 6.1858 2.61048e-11)
(485.377 6.43919 8.0981e-11)
(485.213 7.43747 1.1606e-10)
(485.128 7.37888 3.23331e-11)
(484.931 8.69945 -3.10032e-11)
(484.839 8.27065 -2.46396e-11)
(484.612 9.9492 -9.73465e-11)
(484.506 9.14129 -1.10512e-10)
(484.264 11.1378 1.101e-10)
(484.118 10.068 1.55184e-10)
(483.906 12.1168 4.37623e-12)
(483.652 11.2272 -7.27441e-11)
(483.552 12.8115 -1.03439e-11)
(483.109 12.5296 8.11011e-13)
(484.957 0.362785 -1.96827e-09)
(484.946 1.01062 5.99893e-10)
(484.926 1.45002 -9.17383e-11)
(484.896 2.21363 9.09917e-12)
(484.853 2.64499 3.90813e-11)
(484.807 3.39428 -8.16998e-11)
(484.739 3.86666 -1.69491e-10)
(484.68 4.5352 -9.87026e-11)
(484.585 5.11186 2.71076e-11)
(484.516 5.62595 9.54946e-11)
(484.39 6.38046 1.92561e-13)
(484.315 6.65957 9.66354e-11)
(484.155 7.6697 1.75195e-10)
(484.075 7.63489 2.75038e-11)
(483.882 8.97027 -1.00614e-10)
(483.797 8.56028 -4.86224e-11)
(483.575 10.2608 -8.17785e-11)
(483.476 9.46085 -1.06322e-10)
(483.238 11.4956 1.05185e-10)
(483.102 10.4051 1.42003e-10)
(482.891 12.5373 -2.19602e-11)
(482.652 11.5741 -5.90781e-11)
(482.549 13.2866 4.05462e-11)
(482.126 12.892 3.42087e-11)
(483.818 0.374484 -1.94466e-09)
(483.808 1.03957 6.26393e-10)
(483.788 1.49436 -7.69176e-11)
(483.76 2.27892 2.04616e-11)
(483.718 2.72433 4.47263e-11)
(483.675 3.49631 -8.24077e-11)
(483.609 3.9812 -1.75742e-10)
(483.553 4.67396 -5.57466e-11)
(483.461 5.26177 6.51726e-11)
(483.396 5.80106 7.52367e-11)
(483.273 6.56599 -2.68154e-11)
(483.202 6.87023 6.6369e-11)
(483.047 7.89129 1.37867e-10)
(482.973 7.8798 3.75614e-11)
(482.785 9.22888 -4.03342e-11)
(482.706 8.83748 5.74659e-13)
(482.488 10.5585 -9.31831e-11)
(482.397 9.76698 -1.26102e-10)
(482.163 11.8375 7.79927e-11)
(482.039 10.7296 1.14026e-10)
(481.827 12.9403 -5.73938e-12)
(481.605 11.9055 -4.96704e-11)
(481.499 13.7443 4.60612e-11)
(481.095 13.2378 3.43396e-11)
(482.629 0.385558 -1.94717e-09)
(482.619 1.067 5.98536e-10)
(482.599 1.53629 -1.36804e-10)
(482.572 2.34082 3.23805e-11)
(482.532 2.79935 7.20803e-11)
(482.491 3.59309 -8.8678e-11)
(482.428 4.08957 -1.60297e-10)
(482.375 4.80568 -7.81277e-11)
(482.286 5.40375 4.70756e-12)
(482.224 5.96749 9.23062e-11)
(482.106 6.74195 1.24814e-11)
(482.04 7.07074 6.70935e-11)
(481.889 8.1018 1.61311e-10)
(481.82 8.11319 2.72164e-11)
(481.637 9.4749 -9.20894e-11)
(481.565 9.10187 -3.01075e-11)
(481.352 10.842 -1.04901e-10)
(481.269 10.0592 -1.16639e-10)
(481.04 12.163 1.07276e-10)
(480.926 11.0408 1.09639e-10)
(480.715 13.3252 -4.55654e-11)
(480.51 12.2207 -6.97346e-11)
(480.401 14.1833 -1.37828e-11)
(480.017 13.5662 -7.91676e-13)
(481.388 0.395996 -2.01281e-09)
(481.378 1.09289 5.76136e-10)
(481.359 1.57577 -1.37658e-10)
(481.333 2.39924 2.82701e-12)
(481.295 2.86997 7.27983e-11)
(481.256 3.68447 -6.60354e-11)
(481.195 4.19159 -1.7252e-10)
(481.145 4.93013 -6.0971e-11)
(481.06 5.53751 5.07332e-11)
(481.002 6.12491 1.0429e-10)
(480.888 6.90797 4.73884e-11)
(480.826 7.26068 7.33902e-11)
(480.681 8.30079 1.33162e-10)
(480.617 8.33463 2.17344e-11)
(480.44 9.70789 -6.93077e-11)
(480.374 9.35304 -3.54816e-11)
(480.166 11.1108 -8.786e-11)
(480.092 10.337 -8.09931e-11)
(479.867 12.4719 1.19737e-10)
(479.764 11.3378 1.40581e-10)
(479.554 13.6913 -4.58442e-11)
(479.366 12.5193 -9.54545e-11)
(479.255 14.6032 -1.3463e-11)
(478.891 13.8773 1.49736e-11)
(480.095 0.405787 -1.97967e-09)
(480.086 1.1172 6.31759e-10)
(480.068 1.61275 -8.14659e-11)
(480.043 2.45415 1.53795e-11)
(480.007 2.93609 3.90885e-11)
(479.969 3.77036 -9.66077e-11)
(479.912 4.28712 -1.90813e-10)
(479.864 5.04714 -6.71937e-11)
(479.783 5.66282 5.11166e-11)
(479.729 6.27303 1.16622e-10)
(479.619 7.06368 1.23468e-11)
(479.562 7.43963 5.13134e-11)
(479.422 8.48782 1.22096e-10)
(479.364 8.54366 1.61792e-11)
(479.192 9.92744 -6.39045e-11)
(479.133 9.59057 -1.94033e-11)
(478.931 11.3646 -5.83588e-11)
(478.864 10.6001 -4.42043e-11)
(478.645 12.7638 1.0865e-10)
(478.552 11.6198 8.89248e-11)
(478.345 14.0372 -3.39524e-11)
(478.174 12.8015 -7.47776e-11)
(478.06 15.005 2.17639e-11)
(477.716 14.1713 6.30431e-11)
(478.751 0.414918 -1.97478e-09)
(478.742 1.13992 6.01904e-10)
(478.725 1.64718 -1.57853e-10)
(478.702 2.50547 9.07587e-12)
(478.667 2.99766 1.10137e-10)
(478.631 3.85067 -6.00533e-11)
(478.577 4.37606 -2.03833e-10)
(478.532 5.15658 -6.73765e-11)
(478.454 5.77952 1.56307e-11)
(478.404 6.41166 3.99756e-11)
(478.299 7.20884 1.25694e-11)
(478.247 7.6073 1.22005e-10)
(478.112 8.6625 1.47643e-10)
(478.06 8.73983 4.73821e-12)
(477.893 10.133 -5.828e-11)
(477.841 9.81395 2.84113e-12)
(477.645 11.603 -8.35168e-11)
(477.587 10.8481 -1.10078e-10)
(477.373 13.0385 1.22142e-10)
(477.29 11.8861 1.16244e-10)
(477.087 14.3622 -5.27999e-11)
(476.932 13.0673 -8.04539e-11)
(476.815 15.3873 3.38897e-11)
(476.493 14.4468 3.60906e-11)
(477.356 0.423374 -2.04316e-09)
(477.347 1.16101 5.77709e-10)
(477.331 1.67902 -1.4671e-10)
(477.308 2.55314 -3.71217e-12)
(477.275 3.05459 6.27579e-11)
(477.242 3.92532 -8.57642e-11)
(477.19 4.45833 -1.92891e-10)
(477.149 5.25838 -8.00294e-11)
(477.074 5.8875 2.84311e-11)
(477.028 6.54066 7.70546e-11)
(476.928 7.34325 1.89942e-11)
(476.881 7.76344 1.04976e-10)
(476.751 8.82449 1.61353e-10)
(476.705 8.92275 3.97771e-11)
(476.544 10.3242 -5.23344e-11)
(476.499 10.0227 -2.00718e-11)
(476.309 11.8255 -7.74382e-11)
(476.26 11.0804 -7.68035e-11)
(476.051 13.2955 1.29553e-10)
(475.979 12.1363 1.49949e-10)
(475.779 14.6654 1.67421e-11)
(475.641 13.3161 -1.02803e-10)
(475.522 15.7493 -2.80272e-11)
(475.221 14.7033 8.3612e-12)
(475.909 0.431137 -1.97667e-09)
(475.9 1.18042 6.44172e-10)
(475.885 1.70821 -1.0533e-10)
(475.863 2.59708 3.61958e-11)
(475.832 3.10681 9.40782e-11)
(475.801 3.99422 -6.04595e-11)
(475.752 4.53383 -1.75344e-10)
(475.714 5.35244 -6.75088e-11)
(475.643 5.98668 3.52797e-11)
(475.601 6.65997 7.77086e-11)
(475.505 7.46682 1.28763e-11)
(475.463 7.90794 8.74374e-11)
(475.339 8.97361 1.3685e-10)
(475.299 9.09217 1.57853e-11)
(475.144 10.5006 -9.14762e-11)
(475.106 10.2163 -6.71421e-11)
(474.922 12.0316 -1.30131e-10)
(474.881 11.2965 -6.56418e-11)
(474.679 13.5346 1.30902e-10)
(474.617 12.3699 1.39569e-10)
(474.421 14.9469 4.06382e-12)
(474.3 13.5474 -6.39975e-11)
(474.179 16.0899 1.01592e-11)
(473.9 14.9403 3.6954e-11)
(474.41 0.438194 -2.00268e-09)
(474.401 1.19813 6.19045e-10)
(474.387 1.7347 -1.43493e-10)
(474.367 2.63723 3.6109e-11)
(474.338 3.15422 8.23099e-11)
(474.309 4.05727 -8.75348e-11)
(474.262 4.60248 -1.63774e-10)
(474.227 5.43867 -7.40683e-11)
(474.16 6.07699 1.64708e-11)
(474.122 6.76951 1.03984e-10)
(474.031 7.57946 1.95769e-11)
(473.994 8.04072 8.197e-11)
(473.875 9.10973 1.76885e-10)
(473.841 9.24795 3.42152e-11)
(473.692 10.662 -8.56321e-11)
(473.662 10.3945 -1.94345e-11)
(473.484 12.2207 -9.77626e-11)
(473.452 11.4957 -1.1287e-10)
(473.256 13.7551 1.31979e-10)
(473.205 12.5863 1.28685e-10)
(473.014 15.2065 -3.58186e-11)
(472.908 13.7614 -5.27137e-11)
(472.785 16.4084 1.07041e-11)
(472.529 15.1572 1.4239e-11)
(472.859 0.444535 -2.06282e-09)
(472.851 1.21412 6.22188e-10)
(472.838 1.75846 -1.06475e-10)
(472.819 2.67355 -4.59091e-12)
(472.791 3.19677 8.92765e-11)
(472.765 4.11441 -4.08887e-11)
(472.721 4.66418 -2.03574e-10)
(472.689 5.51699 -6.76757e-11)
(472.626 6.15833 6.25675e-11)
(472.592 6.86921 6.57634e-11)
(472.505 7.68116 2.62932e-11)
(472.473 8.16179 1.3377e-10)
(472.359 9.23284 1.44896e-10)
(472.332 9.39007 4.04708e-11)
(472.189 10.8082 -3.25214e-11)
(472.166 10.5571 -5.01247e-11)
(471.995 12.3926 -9.17509e-11)
(471.972 11.6777 -6.54063e-11)
(471.781 13.9564 9.90846e-11)
(471.742 12.7846 1.35225e-10)
(471.556 15.4446 1.8098e-11)
(471.465 13.9586 -8.21871e-11)
(471.341 16.7037 1.75805e-11)
(471.107 15.3534 6.15423e-11)
(471.257 0.45016 -2.0347e-09)
(471.248 1.22839 6.62771e-10)
(471.236 1.7795 -7.51406e-11)
(471.218 2.70601 3.06299e-11)
(471.193 3.23445 5.12111e-11)
(471.169 4.1656 -8.25571e-11)
(471.128 4.71889 -1.71961e-10)
(471.099 5.58733 -4.09737e-11)
(471.04 6.23062 8.97189e-11)
(471.01 6.95901 9.96282e-11)
(470.928 7.77179 -1.37652e-11)
(470.901 8.27108 8.94786e-11)
(470.792 9.34291 1.72957e-10)
(470.771 9.51856 6.60138e-11)
(470.633 10.9393 -1.24746e-11)
(470.618 10.7041 -3.17661e-11)
(470.453 12.5471 -1.40823e-10)
(470.439 11.8421 -1.08504e-10)
(470.255 14.1381 1.13892e-10)
(470.227 12.9639 1.48109e-10)
(470.046 15.6607 3.8761e-11)
(469.97 14.1391 -7.10037e-11)
(469.845 16.9752 -3.69079e-11)
(469.635 15.5285 1.39792e-11)
(469.602 0.455077 -2.10359e-09)
(469.594 1.24095 5.91304e-10)
(469.583 1.79782 -1.60557e-10)
(469.566 2.73465 -1.85171e-11)
(469.543 3.26727 5.1679e-11)
(469.52 4.21085 -1.04092e-10)
(469.483 4.7666 -2.19697e-10)
(469.457 5.64966 -1.09521e-10)
(469.401 6.29381 2.93463e-12)
(469.376 7.03882 5.31942e-11)
(469.298 7.8513 -1.36339e-11)
(469.276 8.36854 7.05293e-11)
(469.173 9.43986 1.26207e-10)
(469.158 9.6334 1.30524e-12)
(469.026 11.0552 -1.02753e-10)
(469.019 10.8355 -7.00837e-11)
(468.86 12.6842 -1.34664e-10)
(468.855 11.9888 -1.27555e-10)
(468.677 14.3001 7.29755e-11)
(468.66 13.124 9.40668e-11)
(468.485 15.8542 -5.23238e-11)
(468.424 14.3023 -1.07756e-10)
(468.299 17.2225 -2.98876e-11)
(468.112 15.6822 2.16027e-12)
(467.896 0.459298 -2.04799e-09)
(467.888 1.25183 6.33483e-10)
(467.878 1.81349 -1.48663e-10)
(467.862 2.75951 4.61058e-11)
(467.841 3.2953 9.23194e-11)
(467.82 4.25021 -8.3718e-11)
(467.785 4.80736 -1.53407e-10)
(467.763 5.704 -6.11646e-11)
(467.711 6.34788 3.06288e-11)
(467.689 7.10859 1.28886e-10)
(467.617 7.91958 4.17629e-11)
(467.6 8.45403 9.81944e-11)
(467.502 9.52358 2.03682e-10)
(467.493 9.73451 5.37885e-11)
(467.367 11.156 -6.82325e-11)
(467.367 10.9515 -5.74576e-11)
(467.215 12.8042 -1.42562e-10)
(467.219 12.1182 -9.01712e-11)
(467.047 14.4423 9.56004e-11)
(467.041 13.2644 9.48409e-11)
(466.872 16.0248 -2.70005e-12)
(466.826 14.4471 -8.38094e-11)
(466.702 17.4446 -2.97859e-11)
(466.538 15.8143 4.56217e-11)
(466.138 0.462834 -2.05091e-09)
(466.13 1.26106 6.45005e-10)
(466.12 1.82654 -1.43281e-10)
(466.106 2.78066 5.37315e-11)
(466.086 3.3186 9.97232e-11)
(466.068 4.28376 -7.74329e-11)
(466.036 4.84123 -1.47621e-10)
(466.016 5.75042 -5.41989e-11)
(465.968 6.39289 3.78546e-11)
(465.951 7.16835 6.75972e-11)
(465.883 7.97663 -2.06266e-11)
(465.871 8.5275 1.12715e-10)
(465.778 9.59394 1.48715e-10)
(465.776 9.82174 6.26441e-13)
(465.656 11.2414 -5.47356e-11)
(465.664 11.052 -4.47632e-11)
(465.517 12.9068 -1.29426e-10)
(465.53 12.2304 -7.76613e-11)
(465.365 14.5652 1.11443e-10)
(465.37 13.3857 1.08144e-10)
(465.207 16.1728 1.12812e-11)
(465.174 14.5719 -7.22027e-11)
(465.053 17.6397 -8.54987e-12)
(464.912 15.9248 6.48417e-11)
(464.327 0.465697 -2.07959e-09)
(464.32 1.26867 6.95614e-10)
(464.311 1.83701 -1.17165e-10)
(464.298 2.79816 -4.82892e-12)
(464.28 3.33725 1.00203e-10)
(464.263 4.31159 -2.03443e-11)
(464.234 4.86832 -1.76231e-10)
(464.217 5.78902 -1.03987e-10)
(464.173 6.42892 4.52743e-11)
(464.159 7.21815 1.31257e-10)
(464.096 8.02244 2.88917e-11)
(464.089 8.58892 7.92496e-11)
(464.002 9.65085 1.71112e-10)
(464.006 9.89497 7.47536e-11)
(463.892 11.3112 -6.93649e-11)
(463.908 11.1366 -7.1491e-11)
(463.767 12.992 -1.01466e-10)
(463.79 12.3252 -6.49532e-11)
(463.631 14.6688 1.12998e-10)
(463.647 13.488 9.62302e-11)
(463.489 16.2992 -1.82805e-11)
(463.47 14.6761 -5.38893e-11)
(463.353 17.8063 -1.05751e-12)
(463.234 16.0137 -3.76134e-12)
(462.464 0.467892 -2.11729e-09)
(462.457 1.27466 6.28839e-10)
(462.449 1.84495 -1.51933e-10)
(462.437 2.81203 -1.97773e-11)
(462.421 3.35131 3.88213e-11)
(462.406 4.33375 -1.30157e-10)
(462.38 4.8887 -1.84473e-10)
(462.366 5.81988 -1.0924e-11)
(462.325 6.45607 9.51806e-11)
(462.315 7.25813 1.39254e-10)
(462.257 8.05714 5.76792e-11)
(462.255 8.63839 1.28713e-10)
(462.174 9.69432 1.79522e-10)
(462.183 9.95414 4.0903e-11)
(462.076 11.3654 -7.70325e-11)
(462.099 11.2053 -5.84741e-11)
(461.965 13.0595 -1.31538e-10)
(461.997 12.4025 -1.30837e-10)
(461.844 14.7528 6.27077e-11)
(461.871 13.5715 7.75898e-11)
(461.718 16.404 -1.15676e-11)
(461.714 14.7603 -2.23662e-11)
(461.599 17.9446 5.83435e-11)
(461.503 16.0801 7.258e-11)
(460.549 0.469421 -2.15545e-09)
(460.542 1.27905 6.40557e-10)
(460.534 1.85035 -1.1893e-10)
(460.523 2.82229 -2.71123e-11)
(460.509 3.36079 5.97189e-11)
(460.497 4.35029 -7.93272e-11)
(460.473 4.90243 -1.7879e-10)
(460.462 5.84308 -4.69556e-11)
(460.425 6.47443 1.08424e-11)
(460.419 7.28835 8.30786e-11)
(460.365 8.08079 3.66396e-11)
(460.368 8.67599 6.66624e-11)
(460.292 9.72442 1.44408e-10)
(460.308 9.99931 3.41057e-11)
(460.206 11.4038 -5.57561e-11)
(460.237 11.2579 -1.15645e-11)
(460.109 13.1089 -1.24928e-10)
(460.151 12.4618 -9.82623e-11)
(460.004 14.8169 1.30703e-10)
(460.043 13.6357 9.10669e-11)
(459.896 16.4872 -4.22528e-11)
(459.905 14.8248 -8.04442e-11)
(459.794 18.0554 2.11745e-11)
(459.719 16.1248 6.00491e-11)
(458.58 0.47028 -2.0958e-09)
(458.573 1.28183 6.68402e-10)
(458.567 1.85321 -1.40655e-10)
(458.557 2.82894 -1.20776e-11)
(458.544 3.36569 4.62692e-11)