/*--------------------------------*- C++ -*----------------------------------*\
  =========                 |
  \\      /  F ield         | OpenFOAM: The Open Source CFD Toolbox
   \\    /   O peration     | Website:  https://openfoam.org
    \\  /    A nd           | Version:  10
     \\/     M anipulation  |
\*---------------------------------------------------------------------------*/
FoamFile
{
    format      ascii;
    class       volScalarField;
    location    "0.07";
    object      Ma;
}
// * * * * * * * * * * * * * * * * * * * * * * * * * * * * * * * * * * * * * //

dimensions      [0 0 0 0 0 0 0];

internalField   nonuniform List<scalar> 
4176
(
1.43563
1.43548
1.43536
1.43521
1.43496
1.43473
1.43434
1.43403
1.4335
1.43313
1.43244
1.43202
1.43118
1.4307
1.42973
1.42917
1.42814
1.42738
1.42642
1.42532
1.42459
1.423
1.42287
1.42052
1.44729
1.44714
1.44701
1.44685
1.44658
1.44632
1.44589
1.44555
1.44496
1.44455
1.4438
1.44332
1.44241
1.44188
1.44083
1.44019
1.43908
1.43823
1.43722
1.43597
1.43526
1.43339
1.43325
1.43051
1.4777
1.47756
1.47743
1.47726
1.47697
1.47669
1.47623
1.47586
1.47524
1.47479
1.47399
1.47347
1.47251
1.47191
1.47081
1.47011
1.46895
1.46803
1.46697
1.46562
1.46493
1.46286
1.46273
1.45967
1.50953
1.50938
1.50924
1.50906
1.50875
1.50844
1.50796
1.50756
1.5069
1.50641
1.50557
1.505
1.50398
1.50333
1.50217
1.50141
1.50017
1.49921
1.49805
1.49668
1.49588
1.49382
1.49365
1.49058
1.53739
1.53726
1.53711
1.53693
1.5366
1.53629
1.53579
1.53537
1.53469
1.53417
1.5333
1.5327
1.53165
1.53096
1.52976
1.52896
1.52767
1.52666
1.52544
1.52405
1.52316
1.52106
1.52089
1.51783
1.56546
1.56533
1.56517
1.56498
1.56464
1.56432
1.5638
1.56338
1.56267
1.56215
1.56124
1.56063
1.55954
1.55883
1.55759
1.55676
1.55544
1.55438
1.55314
1.55165
1.55079
1.54857
1.54838
1.5452
1.5863
1.58618
1.58603
1.58583
1.5855
1.58518
1.58465
1.58423
1.5835
1.58299
1.58205
1.58146
1.58034
1.57964
1.57837
1.57753
1.57619
1.5751
1.57387
1.57231
1.57148
1.56919
1.56898
1.56576
1.60723
1.60711
1.60695
1.60677
1.60641
1.60611
1.60555
1.60517
1.60439
1.60392
1.60293
1.60239
1.60121
1.60055
1.59924
1.59841
1.59706
1.59593
1.59474
1.5931
1.5923
1.58996
1.58974
1.58649
1.62165
1.62153
1.62136
1.62119
1.62082
1.62055
1.61996
1.61961
1.6188
1.61837
1.61734
1.61684
1.61562
1.61501
1.61366
1.61286
1.6115
1.61034
1.60918
1.60753
1.6067
1.6044
1.60414
1.60089
1.63637
1.63626
1.63609
1.63592
1.63556
1.63528
1.6347
1.63435
1.63354
1.63313
1.63209
1.63161
1.63037
1.62979
1.62842
1.62765
1.62628
1.62513
1.62398
1.62232
1.6215
1.61918
1.61893
1.61568
1.64623
1.64612
1.64596
1.64578
1.64543
1.64514
1.64459
1.64422
1.64344
1.64301
1.642
1.64151
1.64029
1.6397
1.63835
1.63758
1.63621
1.6351
1.63393
1.6323
1.63145
1.62918
1.6289
1.62567
1.65634
1.65623
1.65607
1.65589
1.65556
1.65526
1.65473
1.65434
1.6536
1.65314
1.65219
1.65166
1.6505
1.64988
1.64856
1.6478
1.64642
1.64538
1.64417
1.64257
1.64174
1.63947
1.63919
1.63599
1.66292
1.66282
1.66267
1.66248
1.66216
1.66186
1.66135
1.66095
1.66024
1.65977
1.65884
1.6583
1.65717
1.65655
1.65526
1.65451
1.65313
1.65213
1.65089
1.64935
1.64848
1.64629
1.64597
1.64281
1.66961
1.66951
1.66936
1.66917
1.66885
1.66855
1.66805
1.66766
1.66696
1.66649
1.66559
1.66505
1.66395
1.66334
1.66207
1.66134
1.65997
1.65901
1.65774
1.65628
1.65541
1.65323
1.65292
1.64981
1.6738
1.67369
1.67355
1.67336
1.67305
1.67276
1.67227
1.67188
1.67119
1.67072
1.66984
1.66931
1.66823
1.66762
1.66637
1.66566
1.6643
1.66338
1.6621
1.6607
1.65979
1.6577
1.65735
1.6543
1.67789
1.67779
1.67765
1.67747
1.67716
1.67687
1.67638
1.676
1.67533
1.67488
1.67401
1.67348
1.67242
1.67182
1.6706
1.6699
1.66857
1.66768
1.66639
1.66507
1.66416
1.6621
1.66177
1.65878
1.68024
1.68014
1.68
1.67982
1.67952
1.67924
1.67877
1.6784
1.67773
1.67728
1.67643
1.67592
1.67486
1.67427
1.67307
1.67239
1.67107
1.67022
1.66893
1.66766
1.66673
1.66476
1.66441
1.66148
1.68236
1.68227
1.68213
1.68196
1.68166
1.68138
1.68091
1.68054
1.67991
1.67949
1.67866
1.67815
1.67714
1.67658
1.67539
1.67472
1.67343
1.6726
1.67132
1.67011
1.66916
1.66725
1.6669
1.66404
1.68328
1.68318
1.68305
1.68288
1.6826
1.68234
1.6819
1.68155
1.68093
1.6805
1.6797
1.67923
1.67824
1.6777
1.67654
1.67591
1.67462
1.67382
1.67254
1.67137
1.67042
1.66855
1.6682
1.66538
1.68338
1.68329
1.68317
1.683
1.68273
1.68247
1.68203
1.68169
1.68109
1.68069
1.6799
1.67944
1.67848
1.67796
1.67684
1.67624
1.675
1.67425
1.67301
1.67192
1.67097
1.66921
1.66886
1.66616
1.68285
1.68276
1.68264
1.68248
1.68221
1.68196
1.68153
1.6812
1.68062
1.68022
1.67946
1.67902
1.67808
1.67759
1.67649
1.67592
1.6747
1.67398
1.67277
1.67174
1.67079
1.6691
1.66875
1.66612
1.68185
1.68177
1.68165
1.6815
1.68124
1.68099
1.68059
1.68027
1.6797
1.67932
1.67858
1.67816
1.67724
1.67676
1.67569
1.67514
1.67395
1.67326
1.67206
1.67108
1.67013
1.66851
1.66816
1.66559
1.68007
1.67999
1.67988
1.67973
1.67948
1.67925
1.67886
1.67856
1.67801
1.67766
1.67695
1.67655
1.67567
1.67523
1.67419
1.67368
1.67254
1.6719
1.67074
1.66983
1.66889
1.66737
1.66702
1.66456
1.67789
1.67781
1.67769
1.67755
1.67731
1.67709
1.67671
1.67642
1.67589
1.67555
1.67486
1.67448
1.67362
1.6732
1.67219
1.6717
1.67059
1.66997
1.66884
1.66797
1.66704
1.66559
1.66524
1.66286
1.67503
1.67496
1.67485
1.67472
1.67449
1.67428
1.67392
1.67366
1.67315
1.67284
1.67218
1.67184
1.67102
1.67063
1.66967
1.66923
1.66815
1.66759
1.6665
1.66569
1.66479
1.66342
1.66308
1.66079
1.67172
1.67164
1.67154
1.67141
1.67119
1.671
1.67065
1.6704
1.66991
1.66961
1.66897
1.66865
1.66785
1.66749
1.66656
1.66614
1.66511
1.66458
1.66353
1.66277
1.66189
1.66061
1.66027
1.6581
1.66793
1.66786
1.66776
1.66764
1.66744
1.66726
1.66693
1.6667
1.66623
1.66597
1.66536
1.66507
1.66431
1.66399
1.66309
1.66272
1.66172
1.66124
1.66022
1.65952
1.65866
1.65744
1.65712
1.65502
1.66359
1.66353
1.66343
1.66332
1.66312
1.66295
1.66264
1.66243
1.66198
1.66174
1.66116
1.66089
1.66017
1.65988
1.65902
1.65869
1.65773
1.6573
1.65633
1.65569
1.65486
1.65375
1.65344
1.65146
1.65893
1.65886
1.65878
1.65867
1.65849
1.65833
1.65804
1.65784
1.65742
1.6572
1.65665
1.65641
1.65572
1.65546
1.65464
1.65434
1.65342
1.65302
1.65209
1.65149
1.6507
1.64964
1.64935
1.64744
1.6537
1.65364
1.65356
1.65346
1.65329
1.65314
1.65287
1.65269
1.6523
1.65211
1.65159
1.65138
1.65073
1.65051
1.64973
1.64948
1.64861
1.64827
1.64739
1.64686
1.64611
1.64515
1.64488
1.64308
1.64818
1.64812
1.64804
1.64795
1.64779
1.64766
1.6474
1.64724
1.64686
1.64669
1.6462
1.64602
1.64539
1.6452
1.64446
1.64424
1.64341
1.64311
1.64226
1.64177
1.64106
1.64018
1.63992
1.63822
1.64218
1.64212
1.64205
1.64197
1.64182
1.6417
1.64146
1.64133
1.64098
1.64084
1.64037
1.64023
1.63964
1.6395
1.6388
1.63863
1.63785
1.6376
1.63681
1.63638
1.63571
1.63491
1.63466
1.63306
1.63583
1.63577
1.6357
1.63563
1.63549
1.63538
1.63516
1.63504
1.63471
1.63459
1.63415
1.63403
1.63348
1.63336
1.6327
1.63257
1.63182
1.63162
1.63088
1.6305
1.62988
1.62916
1.62893
1.62745
1.62912
1.62906
1.62901
1.62894
1.62881
1.62872
1.62852
1.62842
1.62812
1.62802
1.62762
1.62753
1.62701
1.62694
1.62631
1.62622
1.62552
1.62537
1.62467
1.62435
1.62377
1.62311
1.6229
1.62152
1.622
1.62195
1.62189
1.62183
1.62172
1.62164
1.62145
1.62137
1.62109
1.62102
1.62064
1.62058
1.6201
1.62006
1.61947
1.61943
1.61877
1.61867
1.61802
1.61777
1.61723
1.61666
1.61648
1.61521
1.61461
1.61456
1.61452
1.61446
1.61436
1.61429
1.61412
1.61406
1.6138
1.61375
1.6134
1.61338
1.61292
1.61292
1.61237
1.61236
1.61174
1.61169
1.61107
1.61087
1.61038
1.60986
1.60971
1.60854
1.60681
1.60676
1.60672
1.60667
1.60658
1.60653
1.60637
1.60633
1.6061
1.60607
1.60576
1.60576
1.60534
1.60537
1.60487
1.6049
1.60433
1.60433
1.60376
1.60363
1.60318
1.60275
1.60263
1.60157
1.59876
1.59871
1.59867
1.59863
1.59855
1.59851
1.59837
1.59834
1.59813
1.59813
1.59783
1.59786
1.59748
1.59754
1.59706
1.59714
1.5966
1.59664
1.59611
1.59603
1.59562
1.59525
1.59517
1.59422
1.59034
1.5903
1.59026
1.59023
1.59016
1.59013
1.59001
1.59
1.58981
1.58983
1.58957
1.58963
1.58928
1.58938
1.58894
1.58907
1.58857
1.58867
1.58818
1.58815
1.58779
1.58749
1.58744
1.58659
1.58164
1.5816
1.58157
1.58154
1.58148
1.58146
1.58136
1.58136
1.5812
1.58123
1.58099
1.58108
1.58076
1.58089
1.58049
1.58065
1.58019
1.58034
1.57989
1.57992
1.5796
1.57937
1.57935
1.57861
1.57265
1.57261
1.57259
1.57257
1.57252
1.57251
1.57242
1.57244
1.5723
1.57236
1.57215
1.57226
1.57197
1.57214
1.57177
1.57197
1.57155
1.57174
1.57134
1.57142
1.57114
1.57097
1.57099
1.57033
1.56336
1.56332
1.5633
1.56328
1.56324
1.56324
1.56317
1.5632
1.56308
1.56316
1.56298
1.56311
1.56285
1.56305
1.56272
1.56296
1.56258
1.56283
1.56246
1.56261
1.56237
1.56228
1.56233
1.56176
1.55381
1.55377
1.55376
1.55375
1.55372
1.55373
1.55367
1.55372
1.55362
1.55372
1.55356
1.55372
1.55349
1.55371
1.55341
1.55369
1.55334
1.55363
1.55329
1.55351
1.55329
1.55327
1.55335
1.55288
1.54396
1.54393
1.54392
1.54391
1.54389
1.54392
1.54387
1.54394
1.54386
1.54398
1.54384
1.54403
1.54383
1.54409
1.54382
1.54415
1.54383
1.54417
1.54387
1.54414
1.54396
1.54402
1.54413
1.54375
1.53387
1.53384
1.53383
1.53383
1.53382
1.53385
1.53382
1.5339
1.53384
1.53398
1.53386
1.53408
1.5339
1.53419
1.53395
1.53431
1.53403
1.53441
1.53414
1.53447
1.53431
1.53445
1.53457
1.5343
1.52352
1.52349
1.52349
1.5235
1.52349
1.52354
1.52352
1.52362
1.52357
1.52374
1.52365
1.52388
1.52374
1.52406
1.52385
1.52425
1.524
1.52443
1.52418
1.52458
1.52444
1.52466
1.52479
1.52461
1.51291
1.51288
1.51288
1.51289
1.5129
1.51295
1.51295
1.51306
1.51303
1.51321
1.51315
1.51341
1.51329
1.51364
1.51346
1.51389
1.51367
1.51416
1.51393
1.51439
1.51427
1.51457
1.51471
1.51464
1.50208
1.50205
1.50206
1.50208
1.50209
1.50216
1.50217
1.50229
1.50229
1.50248
1.50244
1.50273
1.50263
1.50301
1.50286
1.50333
1.50314
1.50367
1.50347
1.50399
1.50388
1.50426
1.5044
1.50443
1.49099
1.49096
1.49097
1.49099
1.49102
1.49109
1.49112
1.49125
1.49127
1.49148
1.49146
1.49177
1.4917
1.49211
1.49199
1.4925
1.49233
1.49292
1.49274
1.49333
1.49323
1.49371
1.49384
1.49397
1.47971
1.47968
1.47969
1.47972
1.47975
1.47983
1.47987
1.48002
1.48005
1.48028
1.48028
1.48062
1.48057
1.48101
1.48091
1.48146
1.48131
1.48194
1.48178
1.48244
1.48234
1.48291
1.48304
1.48326
1.46817
1.46815
1.46816
1.4682
1.46824
1.46833
1.46838
1.46855
1.46859
1.46884
1.46887
1.46922
1.4692
1.46967
1.4696
1.47018
1.47006
1.47074
1.4706
1.47132
1.47123
1.47188
1.47201
1.47233
1.45646
1.45643
1.45645
1.45649
1.45654
1.45664
1.4567
1.45687
1.45694
1.4572
1.45724
1.45762
1.45762
1.45812
1.45806
1.45869
1.45858
1.45932
1.45918
1.45998
1.45988
1.46062
1.46076
1.46117
1.44452
1.4445
1.44452
1.44457
1.44463
1.44473
1.44481
1.44499
1.44507
1.44536
1.44542
1.44582
1.44584
1.44637
1.44633
1.447
1.4469
1.4477
1.44755
1.44843
1.44834
1.44914
1.44929
1.44978
1.4324
1.43238
1.43241
1.43245
1.43252
1.43263
1.43272
1.43292
1.43301
1.43331
1.43339
1.43381
1.43384
1.43441
1.43438
1.4351
1.435
1.43587
1.43572
1.43666
1.43658
1.43745
1.43761
1.43818
1.4201
1.42008
1.42011
1.42016
1.42024
1.42035
1.42046
1.42066
1.42077
1.42109
1.42117
1.42162
1.42166
1.42227
1.42224
1.42301
1.4229
1.42383
1.42369
1.42468
1.42462
1.42554
1.42572
1.42636
1.40763
1.40761
1.40764
1.40769
1.40777
1.4079
1.40801
1.40823
1.40835
1.40868
1.40878
1.40925
1.4093
1.40995
1.40991
1.41074
1.41064
1.4116
1.41149
1.41252
1.41248
1.41345
1.41364
1.41435
1.39499
1.39497
1.395
1.39506
1.39515
1.39527
1.3954
1.39562
1.39575
1.3961
1.3962
1.39671
1.39675
1.39744
1.39741
1.39826
1.39818
1.39917
1.39908
1.40015
1.40013
1.40115
1.40135
1.40213
1.3822
1.38218
1.38222
1.38227
1.38237
1.3825
1.38263
1.38287
1.383
1.38337
1.38347
1.38401
1.38405
1.38477
1.38475
1.38563
1.38557
1.38659
1.38652
1.38762
1.38762
1.38868
1.38889
1.38974
1.36925
1.36923
1.36927
1.36932
1.36943
1.36956
1.36971
1.36994
1.37008
1.37047
1.37057
1.37113
1.37119
1.37191
1.37192
1.37281
1.37278
1.37381
1.37377
1.37489
1.37492
1.37602
1.37624
1.37715
1.35618
1.35616
1.35621
1.35626
1.35637
1.3565
1.35666
1.35689
1.35704
1.35744
1.35756
1.35812
1.35819
1.35893
1.35895
1.35986
1.35984
1.3609
1.36087
1.36202
1.36206
1.3632
1.36343
1.3644
1.34296
1.34294
1.34299
1.34304
1.34316
1.34329
1.34346
1.34368
1.34386
1.34425
1.34438
1.34495
1.34504
1.34578
1.34583
1.34674
1.34675
1.34781
1.34781
1.34898
1.34904
1.35022
1.35045
1.35147
1.32964
1.32962
1.32967
1.32972
1.32984
1.32997
1.33014
1.33037
1.33057
1.33094
1.3311
1.33166
1.33177
1.33251
1.33257
1.33349
1.33352
1.33459
1.33461
1.3358
1.33587
1.33708
1.33732
1.33839
1.31619
1.31617
1.31621
1.31627
1.31639
1.31652
1.3167
1.31692
1.31714
1.31749
1.31769
1.31823
1.31836
1.3191
1.31918
1.3201
1.32015
1.32123
1.32127
1.32247
1.32256
1.32379
1.32404
1.32516
1.30263
1.30261
1.30266
1.30272
1.30284
1.30297
1.30315
1.30337
1.3036
1.30394
1.30416
1.30468
1.30484
1.30557
1.30567
1.3066
1.30665
1.30775
1.30779
1.30901
1.30911
1.31037
1.31062
1.31178
1.28897
1.28894
1.28899
1.28905
1.28917
1.2893
1.28949
1.28971
1.28994
1.29028
1.29051
1.29102
1.29121
1.29193
1.29204
1.29297
1.29304
1.29414
1.2942
1.29543
1.29554
1.29682
1.29708
1.29827
1.2752
1.27518
1.27522
1.27528
1.2754
1.27553
1.27572
1.27594
1.27618
1.27651
1.27676
1.27726
1.27746
1.27818
1.27831
1.27924
1.27932
1.28043
1.2805
1.28174
1.28186
1.28316
1.28342
1.28465
1.26133
1.2613
1.26135
1.26141
1.26153
1.26166
1.26185
1.26207
1.26232
1.26264
1.2629
1.2634
1.26362
1.26433
1.26448
1.2654
1.2655
1.26661
1.26669
1.26794
1.26807
1.26938
1.26964
1.2709
1.24736
1.24733
1.24738
1.24743
1.24756
1.24769
1.24789
1.24811
1.24836
1.24869
1.24896
1.24945
1.24969
1.25039
1.25055
1.25148
1.25159
1.2527
1.25279
1.25405
1.25419
1.25552
1.25578
1.25706
1.23328
1.23325
1.23331
1.23336
1.23349
1.23362
1.23382
1.23405
1.23431
1.23463
1.23492
1.2354
1.23566
1.23636
1.23653
1.23747
1.23758
1.2387
1.2388
1.24007
1.24021
1.24155
1.24181
1.24312
1.21912
1.21909
1.21915
1.2192
1.21934
1.21947
1.21968
1.21991
1.22017
1.2205
1.22081
1.22129
1.22156
1.22225
1.22245
1.22338
1.2235
1.22463
1.22474
1.22601
1.22616
1.2275
1.22777
1.22909
1.20487
1.20484
1.20489
1.20495
1.20509
1.20524
1.20545
1.20568
1.20596
1.20629
1.20661
1.20708
1.20739
1.20806
1.20829
1.20921
1.20934
1.21048
1.21059
1.21187
1.21202
1.21337
1.21364
1.21497
1.19056
1.19053
1.19059
1.19065
1.19079
1.19094
1.19116
1.1914
1.19169
1.19202
1.19236
1.19282
1.19315
1.19381
1.19407
1.19497
1.19513
1.19626
1.19638
1.19765
1.19781
1.19917
1.19943
1.20077
1.1762
1.17617
1.17623
1.17629
1.17644
1.17659
1.17681
1.17706
1.17735
1.17769
1.17804
1.1785
1.17885
1.1795
1.17978
1.18066
1.18085
1.18196
1.1821
1.18336
1.18353
1.18488
1.18514
1.18649
1.16184
1.16181
1.16186
1.16193
1.16207
1.16223
1.16245
1.16269
1.16298
1.16333
1.16368
1.16413
1.1645
1.16512
1.16544
1.16629
1.16651
1.1676
1.16774
1.169
1.16917
1.17052
1.17078
1.17213
1.14749
1.14747
1.14752
1.14758
1.14771
1.14786
1.14807
1.14831
1.1486
1.14893
1.14927
1.14972
1.15009
1.15069
1.15103
1.15185
1.15209
1.15315
1.15331
1.15456
1.15473
1.15607
1.15632
1.15767
1.1332
1.13317
1.13322
1.13327
1.13339
1.13353
1.13372
1.13394
1.13421
1.13452
1.13485
1.13528
1.13564
1.13621
1.13655
1.13733
1.1376
1.13862
1.1388
1.14003
1.14019
1.14153
1.14177
1.14312
1.11896
1.11893
1.11896
1.119
1.11911
1.11922
1.1194
1.11959
1.11984
1.12012
1.12042
1.12081
1.12115
1.12169
1.12202
1.12275
1.12303
1.124
1.12419
1.1254
1.12555
1.12689
1.12712
1.12847
1.10475
1.10471
1.10473
1.10476
1.10485
1.10494
1.10509
1.10526
1.10547
1.10571
1.10598
1.10633
1.10664
1.10713
1.10743
1.10812
1.10838
1.1093
1.10949
1.11066
1.1108
1.11214
1.11236
1.11371
1.0905
1.09045
1.09047
1.09048
1.09056
1.09063
1.09076
1.09089
1.09108
1.09128
1.09152
1.09182
1.0921
1.09254
1.09279
1.09344
1.09365
1.09454
1.09468
1.09582
1.09592
1.09726
1.09745
1.09882
1.07611
1.07606
1.07608
1.07608
1.07616
1.0762
1.07633
1.07643
1.07661
1.07678
1.077
1.07726
1.07751
1.07791
1.07811
1.07875
1.07886
1.07976
1.0798
1.08094
1.08096
1.08227
1.08242
1.08376
1.06146
1.06141
1.06143
1.06142
1.0615
1.06154
1.06168
1.06177
1.06196
1.06211
1.06233
1.06258
1.06282
1.06319
1.06337
1.064
1.06403
1.06496
1.06489
1.06603
1.06597
1.06724
1.06732
1.06858
1.0464
1.04635
1.04637
1.04639
1.04646
1.04654
1.04667
1.0468
1.04699
1.04718
1.04741
1.04768
1.04794
1.0483
1.04853
1.04911
1.04918
1.05006
1.04999
1.05111
1.05099
1.05226
1.05227
1.05345
1.0308
1.03075
1.03078
1.03082
1.03092
1.03102
1.03119
1.03136
1.03159
1.03183
1.03211
1.03243
1.03274
1.03314
1.03344
1.03401
1.03418
1.03503
1.035
1.03615
1.036
1.03731
1.03727
1.03847
1.01457
1.01452
1.01457
1.01462
1.01475
1.01489
1.01511
1.01533
1.01562
1.01593
1.01629
1.01668
1.01708
1.01756
1.01796
1.01859
1.01888
1.01978
1.01983
1.02106
1.02092
1.02233
1.02224
1.02354
0.997649
0.9976
0.997669
0.997731
0.997903
0.998071
0.998348
0.998614
0.998994
0.999353
0.999824
1.00028
1.00081
1.00139
1.00193
1.00267
1.00309
1.00413
1.00429
1.00568
1.0056
1.00717
1.00709
1.00855
0.980055
0.980008
0.980086
0.980169
0.980364
0.98057
0.980885
0.981207
0.981644
0.982076
0.982629
0.983179
0.983821
0.984507
0.985193
0.986055
0.986666
0.987857
0.988198
0.989779
0.989853
0.991668
0.991644
0.993384
0.961837
0.961796
0.961871
0.961978
0.96218
0.962421
0.962756
0.963129
0.963594
0.964102
0.964693
0.96534
0.966049
0.966843
0.96765
0.96861
0.96945
0.970693
0.971366
0.973045
0.973413
0.975508
0.975647
0.977811
0.943097
0.943059
0.943133
0.943249
0.943458
0.943713
0.944063
0.944458
0.944947
0.945486
0.946113
0.946804
0.947565
0.948419
0.949304
0.950341
0.951323
0.952602
0.953585
0.95525
0.956034
0.958276
0.958714
0.961436
0.923946
0.92391
0.923981
0.924097
0.924307
0.924564
0.924916
0.925315
0.925811
0.926357
0.926996
0.927698
0.928478
0.929349
0.930267
0.931328
0.932367
0.933671
0.934783
0.936421
0.937507
0.939709
0.94047
0.943634
0.904517
0.904478
0.904545
0.904656
0.90486
0.90511
0.905455
0.905844
0.906332
0.906866
0.907497
0.908183
0.908957
0.909809
0.910722
0.911761
0.912799
0.914077
0.91519
0.916802
0.917898
0.920058
0.920867
0.924029
0.884926
0.884883
0.884944
0.885046
0.885241
0.885476
0.885808
0.886176
0.886648
0.887154
0.887766
0.888418
0.889167
0.889978
0.890862
0.891849
0.892855
0.89407
0.89513
0.896687
0.897671
0.899786
0.900469
0.90337
0.865285
0.865236
0.865292
0.865381
0.865565
0.86578
0.866095
0.866436
0.866885
0.867355
0.867939
0.868545
0.869262
0.870016
0.87086
0.87178
0.872738
0.873867
0.87487
0.876331
0.877233
0.879225
0.879851
0.882536
0.845684
0.845627
0.84568
0.845753
0.845926
0.846116
0.846415
0.846721
0.847149
0.847573
0.84813
0.848678
0.849363
0.850047
0.85085
0.851691
0.852597
0.853631
0.854575
0.855929
0.856762
0.858604
0.859192
0.86167
0.826203
0.826138
0.826191
0.82624
0.826412
0.826564
0.826859
0.827113
0.827534
0.827891
0.82844
0.828904
0.829578
0.830165
0.830948
0.831687
0.83255
0.833484
0.834365
0.835612
0.836384
0.838068
0.838624
0.840894
0.806902
0.806833
0.806883
0.806912
0.807076
0.807198
0.80748
0.80769
0.808097
0.808392
0.808927
0.809311
0.80997
0.810459
0.811224
0.811851
0.812685
0.813508
0.814332
0.815465
0.816187
0.817707
0.818237
0.820299
0.78784
0.787767
0.787807
0.787831
0.787968
0.788083
0.788325
0.788522
0.788879
0.789153
0.78963
0.78998
0.790579
0.791015
0.791723
0.79227
0.793056
0.79377
0.794557
0.795557
0.796236
0.797594
0.7981
0.799956
0.769055
0.768981
0.769008
0.769029
0.769139
0.769247
0.769449
0.769638
0.769938
0.770201
0.770608
0.770942
0.771461
0.771868
0.772495
0.772992
0.773705
0.77433
0.775079
0.775932
0.776581
0.777779
0.778265
0.77992
0.750583
0.750508
0.750524
0.750539
0.750629
0.750724
0.750894
0.751064
0.751322
0.751561
0.751915
0.752218
0.752673
0.753041
0.753597
0.754039
0.754684
0.755227
0.755928
0.756637
0.75727
0.758309
0.758775
0.760232
0.732449
0.732374
0.732382
0.732388
0.732461
0.73254
0.732685
0.732831
0.733055
0.733263
0.733572
0.733838
0.734238
0.734561
0.735055
0.735438
0.736021
0.736483
0.73713
0.737717
0.738334
0.73921
0.739658
0.740922
0.714679
0.714603
0.714603
0.714602
0.714658
0.714722
0.714843
0.714966
0.715157
0.715335
0.715602
0.715831
0.71618
0.716456
0.716893
0.717218
0.71774
0.718125
0.718716
0.719197
0.719793
0.720507
0.72094
0.722017
0.697287
0.697211
0.697204
0.697195
0.697236
0.697285
0.697383
0.697484
0.697644
0.697792
0.69802
0.698212
0.698514
0.698744
0.699128
0.699395
0.69986
0.700173
0.700708
0.701091
0.701655
0.702218
0.702641
0.703536
0.680289
0.680212
0.680199
0.680182
0.68021
0.680244
0.680321
0.6804
0.680531
0.680651
0.680842
0.680997
0.681256
0.681441
0.681774
0.681986
0.682397
0.682641
0.683122
0.683417
0.683937
0.68436
0.684775
0.685499
0.663692
0.663616
0.663596
0.663573
0.663588
0.663608
0.663665
0.663723
0.663827
0.663919
0.664075
0.664195
0.664412
0.664554
0.664839
0.664999
0.665358
0.665536
0.665964
0.666177
0.666652
0.666948
0.667354
0.667916
0.647506
0.64743
0.647405
0.647376
0.647379
0.647386
0.647423
0.647462
0.647539
0.647605
0.647728
0.647816
0.647993
0.648094
0.648333
0.648443
0.648752
0.648868
0.649245
0.649379
0.649807
0.649996
0.650389
0.650796
0.631735
0.631659
0.63163
0.631594
0.631585
0.63158
0.6316
0.63162
0.631673
0.631714
0.631806
0.631862
0.632001
0.632064
0.63226
0.632322
0.632583
0.632641
0.632969
0.63303
0.633412
0.633504
0.633883
0.634139
0.616381
0.616307
0.616273
0.616231
0.616212
0.616196
0.616198
0.616202
0.616231
0.616249
0.616311
0.616337
0.61644
0.616467
0.616622
0.61664
0.616856
0.616859
0.617141
0.617133
0.617472
0.617477
0.617832
0.617949
0.601446
0.601373
0.601335
0.601289
0.60126
0.601233
0.601219
0.601206
0.601213
0.60121
0.601243
0.601242
0.601311
0.601304
0.601419
0.601396
0.601569
0.601521
0.601759
0.601687
0.601986
0.601909
0.602236
0.602225
0.586931
0.586858
0.586817
0.586766
0.586728
0.586691
0.586663
0.586635
0.58662
0.586597
0.586603
0.586577
0.586613
0.586574
0.586652
0.58659
0.586722
0.586626
0.586822
0.586689
0.586949
0.586795
0.587092
0.586968
0.572832
0.572761
0.572716
0.572662
0.572615
0.572569
0.572526
0.572485
0.57245
0.572408
0.572389
0.572339
0.572344
0.572276
0.572318
0.57222
0.572312
0.572172
0.572327
0.572138
0.572359
0.572131
0.572398
0.572174
0.559147
0.559078
0.55903
0.558972
0.558918
0.558864
0.558808
0.558753
0.5587
0.558641
0.558598
0.558526
0.558502
0.558407
0.558415
0.558283
0.558339
0.558157
0.558274
0.558032
0.558218
0.55792
0.558162
0.55784
0.545873
0.545805
0.545755
0.545694
0.545632
0.545571
0.545502
0.545436
0.545366
0.545291
0.545225
0.545133
0.545081
0.544961
0.544938
0.544776
0.544797
0.544577
0.544659
0.544368
0.544522
0.544159
0.544379
0.543967
0.533004
0.532938
0.532886
0.532822
0.532753
0.532685
0.532605
0.532529
0.532442
0.532353
0.532266
0.532155
0.532079
0.531936
0.531883
0.531693
0.531682
0.531427
0.531476
0.531141
0.531265
0.530843
0.531044
0.530548
0.520534
0.52047
0.520416
0.52035
0.520275
0.520201
0.520111
0.520024
0.519923
0.51982
0.519714
0.519587
0.519486
0.519323
0.519243
0.519027
0.518986
0.518699
0.518719
0.518343
0.518441
0.517964
0.518148
0.517576
0.508457
0.508395
0.508339
0.508271
0.508191
0.508111
0.508012
0.507917
0.507802
0.507687
0.507563
0.50742
0.507298
0.507116
0.507011
0.506772
0.506704
0.506388
0.50638
0.505967
0.50604
0.505514
0.505682
0.505042
0.496765
0.496706
0.496649
0.496579
0.496494
0.496409
0.496301
0.496198
0.496071
0.495945
0.495805
0.495648
0.495506
0.495307
0.495178
0.494918
0.494825
0.494483
0.49445
0.494003
0.494054
0.493483
0.493637
0.492935
0.485452
0.485395
0.485336
0.485265
0.485176
0.485087
0.484971
0.484861
0.484722
0.484587
0.484432
0.484263
0.484102
0.483887
0.483738
0.483459
0.483342
0.482977
0.48292
0.482443
0.482473
0.481861
0.482003
0.481244
0.47451
0.474454
0.474395
0.474323
0.47423
0.474137
0.474014
0.473898
0.473748
0.473604
0.473435
0.473255
0.473078
0.472849
0.47268
0.472384
0.472246
0.471859
0.471781
0.471276
0.471287
0.470639
0.470768
0.469958
0.463929
0.463876
0.463816
0.463743
0.463647
0.463551
0.463421
0.463299
0.46314
0.462988
0.462807
0.462616
0.462424
0.462182
0.461996
0.461684
0.461527
0.46112
0.461023
0.460493
0.460487
0.459805
0.459923
0.459066
0.453703
0.453652
0.453591
0.453518
0.453418
0.453319
0.453184
0.453057
0.45289
0.45273
0.452539
0.452338
0.452133
0.451878
0.451677
0.45135
0.451176
0.450752
0.450637
0.450083
0.450062
0.449349
0.449456
0.448559
0.443822
0.443773
0.443712
0.443638
0.443537
0.443434
0.443295
0.443162
0.442989
0.442822
0.442621
0.442411
0.442195
0.441929
0.441714
0.441374
0.441185
0.440743
0.440613
0.440038
0.440003
0.439262
0.439359
0.438424
0.434278
0.434231
0.434171
0.434096
0.433993
0.433888
0.433745
0.433607
0.433429
0.433254
0.433047
0.432827
0.432602
0.432325
0.4321
0.431745
0.431544
0.431087
0.430943
0.430349
0.4303
0.429534
0.429622
0.428651
0.425063
0.425018
0.424958
0.424883
0.424778
0.424671
0.424525
0.424383
0.4242
0.424019
0.423806
0.423577
0.423346
0.423057
0.422824
0.422456
0.422245
0.421772
0.421617
0.421005
0.420945
0.420156
0.420235
0.419232
0.416169
0.416126
0.416066
0.41599
0.415885
0.415775
0.415628
0.415481
0.415296
0.415108
0.414891
0.414653
0.414417
0.414117
0.413879
0.413497
0.41328
0.412792
0.412628
0.412
0.411929
0.411121
0.41119
0.410158
0.407586
0.407545
0.407485
0.40741
0.407304
0.407192
0.407044
0.406893
0.406706
0.406511
0.406293
0.406046
0.405808
0.405497
0.405255
0.404861
0.40464
0.404137
0.403968
0.403324
0.403245
0.40242
0.402481
0.401426
0.399307
0.399268
0.399209
0.399133
0.399028
0.398914
0.398765
0.39861
0.398423
0.398222
0.398003
0.397747
0.397509
0.397186
0.396945
0.396537
0.396316
0.395798
0.395628
0.394967
0.394886
0.394044
0.394101
0.393028
0.391323
0.391285
0.391228
0.391152
0.391048
0.390931
0.390784
0.390624
0.390438
0.39023
0.390013
0.389749
0.389513
0.389179
0.38894
0.388518
0.3883
0.387766
0.387598
0.386922
0.386842
0.385984
0.38604
0.384953
0.383626
0.38359
0.383534
0.383457
0.383354
0.383235
0.38309
0.382926
0.382742
0.382528
0.382313
0.382041
0.381807
0.381464
0.381227
0.380795
0.380579
0.380033
0.379868
0.379178
0.3791
0.378229
0.378284
0.377188
0.37621
0.376175
0.37612
0.376043
0.375942
0.375821
0.375678
0.37551
0.375329
0.375109
0.374897
0.374618
0.374387
0.374035
0.373801
0.373359
0.373146
0.372589
0.372426
0.371725
0.371648
0.370766
0.370821
0.369716
0.369062
0.369028
0.368975
0.368898
0.368799
0.368677
0.368535
0.368365
0.368186
0.367963
0.367754
0.36747
0.367242
0.366884
0.366653
0.366204
0.365992
0.365428
0.365266
0.364557
0.36448
0.363588
0.363644
0.362528
0.362179
0.362147
0.362095
0.362018
0.361921
0.361798
0.361658
0.361486
0.361309
0.361082
0.360875
0.360586
0.36036
0.359997
0.359768
0.359313
0.359103
0.358534
0.358372
0.357658
0.357581
0.356684
0.356738
0.355617
0.355551
0.355521
0.35547
0.355394
0.355298
0.355175
0.355037
0.354864
0.35469
0.354461
0.354257
0.353966
0.353743
0.353376
0.35315
0.352691
0.352483
0.351908
0.351747
0.351026
0.350949
0.350043
0.350096
0.348967
0.349171
0.349142
0.349092
0.349016
0.348922
0.348798
0.348663
0.348488
0.348316
0.348086
0.347884
0.34759
0.34737
0.347
0.346776
0.346314
0.346109
0.345531
0.345372
0.344647
0.344572
0.343662
0.343715
0.342584
0.343034
0.343006
0.342957
0.342882
0.34279
0.342666
0.342534
0.342358
0.34219
0.341957
0.34176
0.341463
0.341248
0.340874
0.340655
0.340187
0.339987
0.339402
0.339247
0.338516
0.338443
0.337526
0.337578
0.336441
0.33713
0.337104
0.337057
0.336982
0.336892
0.336767
0.336638
0.336461
0.336296
0.336061
0.335869
0.335568
0.335359
0.33498
0.334768
0.334295
0.334102
0.33351
0.333363
0.332624
0.332558
0.331634
0.331688
0.33055
0.331454
0.331428
0.331383
0.331308
0.331221
0.331095
0.33097
0.330791
0.330632
0.330394
0.330209
0.329903
0.329702
0.329316
0.329114
0.328632
0.328449
0.327848
0.327712
0.326962
0.326907
0.325973
0.32603
0.32489
0.326001
0.325976
0.325932
0.325857
0.325773
0.325647
0.325526
0.325344
0.325192
0.324948
0.324772
0.324459
0.324269
0.323875
0.323685
0.323193
0.323023
0.322411
0.322288
0.321526
0.321482
0.320542
0.320601
0.319462
0.320763
0.320739
0.320697
0.320621
0.320541
0.320412
0.320298
0.320111
0.319968
0.319718
0.319552
0.319231
0.319053
0.318649
0.318473
0.317969
0.317815
0.317189
0.317082
0.316309
0.316274
0.315331
0.31539
0.314255
0.315732
0.315708
0.315669
0.315592
0.315516
0.315384
0.315277
0.315085
0.314951
0.314694
0.31454
0.31421
0.314047
0.313631
0.313472
0.312955
0.312819
0.312181
0.312089
0.311309
0.31128
0.310338
0.310397
0.309268
0.310912
0.310889
0.310851
0.310773
0.310703
0.310566
0.310467
0.310269
0.310146
0.30988
0.30974
0.309398
0.309251
0.308821
0.308679
0.308149
0.308027
0.307379
0.307295
0.306512
0.306485
0.305547
0.305602
0.304482
0.306278
0.306255
0.30622
0.30614
0.306075
0.305935
0.305843
0.305639
0.305527
0.305253
0.305126
0.304776
0.304641
0.304205
0.304075
0.30354
0.303427
0.30278
0.302701
0.301923
0.301897
0.300966
0.301019
0.299908
0.301851
0.301828
0.301794
0.301714
0.301652
0.301511
0.301423
0.301218
0.30111
0.300834
0.300712
0.300359
0.30023
0.299791
0.299665
0.299129
0.299018
0.298371
0.298292
0.297516
0.297488
0.296563
0.296613
0.295512
0.297596
0.297574
0.297541
0.297462
0.2974
0.29726
0.297175
0.29697
0.296865
0.296591
0.296471
0.296121
0.295994
0.295559
0.295435
0.294904
0.294795
0.294154
0.294075
0.293307
0.293279
0.292361
0.292407
0.291314
0.293536
0.293514
0.293482
0.293403
0.293342
0.293204
0.293119
0.292916
0.292811
0.292539
0.29242
0.292071
0.291945
0.291512
0.291388
0.290859
0.29075
0.290111
0.290032
0.289267
0.289236
0.288325
0.288367
0.287283
0.289641
0.28962
0.289588
0.289511
0.289451
0.289314
0.289229
0.289028
0.288925
0.288655
0.288537
0.288191
0.288068
0.287637
0.287516
0.28699
0.286883
0.286249
0.286171
0.285412
0.285381
0.284477
0.284515
0.28344
0.285928
0.285907
0.285875
0.285798
0.285739
0.285603
0.285519
0.285319
0.285217
0.284948
0.284832
0.284486
0.284364
0.283934
0.283814
0.283291
0.283184
0.282553
0.282474
0.28172
0.281687
0.28079
0.280826
0.279761
0.282371
0.282351
0.28232
0.282243
0.282185
0.282049
0.281967
0.281768
0.281668
0.281399
0.281286
0.280942
0.280822
0.280394
0.280277
0.279755
0.279651
0.279023
0.278946
0.278197
0.278163
0.277273
0.277305
0.276249
0.278989
0.278969
0.278939
0.278863
0.278805
0.278669
0.278588
0.27839
0.27829
0.278022
0.277911
0.277567
0.277449
0.277022
0.276906
0.276386
0.276283
0.275658
0.275581
0.274836
0.274802
0.273919
0.273948