/*--------------------------------*- C++ -*----------------------------------*\
  =========                 |
  \\      /  F ield         | OpenFOAM: The Open Source CFD Toolbox
   \\    /   O peration     | Website:  https://openfoam.org
    \\  /    A nd           | Version:  10
     \\/     M anipulation  |
\*---------------------------------------------------------------------------*/
FoamFile
{
    format      ascii;
    class       volScalarField;
    location    "0.07";
    object      p;
}
// * * * * * * * * * * * * * * * * * * * * * * * * * * * * * * * * * * * * * //

dimensions      [1 -1 -2 0 0 0 0];

internalField   nonuniform List<scalar> 
4176
(
2473.78
2473.94
2474.4
2474.99
2475.92
2476.91
2478.31
2479.67
2481.53
2483.27
2485.55
2487.69
2490.35
2492.93
2495.87
2499.02
2502.03
2506.01
2508.81
2513.85
2516.25
2522.42
2523.69
2531.03
2384.28
2384.44
2384.89
2385.49
2386.45
2387.45
2388.89
2390.28
2392.2
2393.98
2396.35
2398.54
2401.29
2403.93
2406.97
2410.17
2413.27
2417.35
2420.09
2425.56
2427.47
2434.76
2435.83
2445.01
2318.69
2318.87
2319.34
2319.97
2320.95
2322
2323.49
2324.94
2326.93
2328.78
2331.23
2333.5
2336.36
2339.08
2342.25
2345.53
2348.77
2352.89
2355.82
2361.22
2363.3
2370.44
2371.57
2380.77
2243.71
2243.88
2244.36
2244.99
2245.99
2247.05
2248.57
2250.04
2252.07
2253.95
2256.45
2258.76
2261.68
2264.46
2267.7
2271.03
2274.38
2278.51
2281.66
2286.87
2289.36
2296.21
2297.34
2306.07
2179.88
2180.05
2180.53
2181.17
2182.17
2183.23
2184.76
2186.23
2188.27
2190.14
2192.67
2194.97
2197.92
2200.7
2203.98
2207.32
2210.71
2214.85
2218.05
2223.31
2225.79
2232.78
2233.91
2242.67
2125.12
2125.29
2125.77
2126.39
2127.4
2128.43
2129.97
2131.4
2133.47
2135.29
2137.85
2140.09
2143.07
2145.8
2149.1
2152.41
2155.82
2159.97
2163.11
2168.54
2170.79
2177.98
2179.12
2188.07
2080.18
2080.36
2080.83
2081.44
2082.45
2083.45
2085
2086.37
2088.47
2090.2
2092.8
2094.94
2097.96
2100.59
2103.91
2107.15
2110.56
2114.7
2117.74
2123.24
2125.44
2132.57
2133.75
2142.64
2044.31
2044.47
2044.95
2045.51
2046.55
2047.46
2049.08
2050.31
2052.51
2054.06
2056.79
2058.71
2061.88
2064.29
2067.7
2070.81
2074.21
2078.36
2081.25
2086.78
2088.92
2096
2097.18
2106
2015.01
2015.16
2015.66
2016.18
2017.24
2018.09
2019.74
2020.88
2023.12
2024.55
2027.36
2029.12
2032.39
2034.59
2038.13
2041.04
2044.44
2048.57
2051.41
2056.83
2059.04
2065.95
2067.2
2075.9
1992.91
1993.07
1993.54
1994.1
1995.08
1995.98
1997.52
1998.72
2000.84
2002.32
2005.01
2006.8
2009.96
2012.17
2015.62
2018.48
2021.91
2025.86
2028.69
2034.05
2036.23
2043.05
2044.29
2052.89
1974.45
1974.61
1975.05
1975.62
1976.56
1977.48
1978.94
1980.19
1982.18
1983.74
1986.26
1988.14
1991.14
1993.4
1996.74
1999.56
2002.99
2006.73
2009.65
2014.85
2017.09
2023.71
2025.02
2033.47
1961.51
1961.68
1962.11
1962.68
1963.59
1964.51
1965.92
1967.17
1969.1
1970.66
1973.1
1974.98
1977.88
1980.13
1983.4
1986.15
1989.58
1993.12
1996.17
2001.17
2003.39
2009.92
2011.23
2019.54
1951.01
1951.18
1951.6
1952.16
1953.05
1953.97
1955.33
1956.58
1958.45
1960
1962.37
1964.24
1967.06
1969.28
1972.49
1975.17
1978.58
1981.97
1985.11
1989.87
1992.19
1998.49
1999.87
2008.02
1944.56
1944.73
1945.15
1945.71
1946.58
1947.49
1948.83
1950.06
1951.88
1953.42
1955.72
1957.56
1960.32
1962.5
1965.65
1968.26
1971.63
1974.89
1978.08
1982.61
1984.97
1991.17
1992.53
2000.51
1939.98
1940.15
1940.56
1941.11
1941.96
1942.85
1944.15
1945.36
1947.15
1948.67
1950.92
1952.72
1955.43
1957.56
1960.65
1963.18
1966.52
1969.65
1972.88
1977.19
1979.65
1985.57
1987.01
1994.8
1938.51
1938.67
1939.06
1939.6
1940.43
1941.31
1942.59
1943.78
1945.52
1947
1949.21
1950.99
1953.65
1955.73
1958.77
1961.23
1964.52
1967.54
1970.78
1974.89
1977.37
1983.13
1984.56
1992.15
1938.52
1938.69
1939.07
1939.6
1940.41
1941.26
1942.5
1943.66
1945.37
1946.83
1948.98
1950.71
1953.32
1955.36
1958.35
1960.73
1963.98
1966.89
1970.13
1974.04
1976.57
1982.09
1983.55
1990.93
1940.94
1941.1
1941.48
1942
1942.79
1943.64
1944.88
1946.02
1947.66
1949.04
1951.15
1952.85
1955.38
1957.32
1960.27
1962.59
1965.8
1968.6
1971.83
1975.57
1978.15
1983.47
1984.95
1992.13
1944.66
1944.82
1945.19
1945.69
1946.46
1947.27
1948.43
1949.53
1951.14
1952.52
1954.55
1956.16
1958.62
1960.53
1963.37
1965.6
1968.77
1971.47
1974.69
1978.26
1980.89
1986.03
1987.51
1994.53
1950.98
1951.13
1951.5
1951.99
1952.73
1953.52
1954.68
1955.74
1957.31
1958.63
1960.62
1962.2
1964.61
1966.44
1969.23
1971.37
1974.45
1977.03
1980.19
1983.54
1986.18
1991.06
1992.55
1999.33
1958.54
1958.7
1959.05
1959.53
1960.26
1961.02
1962.14
1963.17
1964.7
1965.98
1967.91
1969.42
1971.75
1973.51
1976.22
1978.26
1981.26
1983.71
1986.82
1989.97
1992.62
1997.22
1998.74
2005.25
1967.37
1967.52
1967.86
1968.33
1969.03
1969.77
1970.85
1971.85
1973.33
1974.56
1976.44
1977.9
1980.19
1981.89
1984.55
1986.52
1989.48
1991.83
1994.91
1997.92
2000.59
2005.01
2006.56
2012.87
1977.91
1978.07
1978.39
1978.84
1979.52
1980.23
1981.27
1982.23
1983.65
1984.83
1986.64
1988.03
1990.23
1991.83
1994.4
1996.26
1999.13
2001.35
2004.34
2007.17
2009.82
2013.96
2015.53
2021.56
1989.79
1989.94
1990.25
1990.68
1991.34
1992.02
1993.02
1993.93
1995.3
1996.42
1998.18
1999.5
2001.63
2003.15
2005.65
2007.41
2010.2
2012.29
2015.22
2017.89
2020.53
2024.44
2026.03
2031.81
2003.13
2003.28
2003.58
2003.99
2004.61
2005.26
2006.22
2007.09
2008.4
2009.46
2011.15
2012.39
2014.45
2015.89
2018.29
2019.95
2022.65
2024.62
2027.46
2029.96
2032.58
2036.23
2037.81
2043.31
2017.82
2017.96
2018.25
2018.64
2019.24
2019.85
2020.77
2021.59
2022.84
2023.84
2025.46
2026.63
2028.6
2029.95
2032.27
2033.81
2036.42
2038.26
2041.02
2043.35
2045.94
2049.36
2050.93
2056.14
2033.86
2034
2034.28
2034.65
2035.22
2035.8
2036.67
2037.44
2038.64
2039.57
2041.11
2042.2
2044.1
2045.35
2047.58
2049.01
2051.53
2053.22
2055.9
2058.05
2060.59
2063.76
2065.33
2070.26
2051.23
2051.36
2051.62
2051.98
2052.52
2053.06
2053.89
2054.6
2055.74
2056.61
2058.07
2059.08
2060.89
2062.03
2064.17
2065.49
2067.91
2069.47
2072.05
2074.03
2076.5
2079.42
2080.98
2085.65
2069.9
2070.04
2070.29
2070.62
2071.13
2071.64
2072.42
2073.08
2074.15
2074.95
2076.34
2077.26
2078.98
2080.03
2082.07
2083.26
2085.58
2087
2089.48
2091.29
2093.68
2096.34
2097.88
2102.27
2089.88
2090.01
2090.24
2090.55
2091.03
2091.5
2092.23
2092.84
2093.85
2094.58
2095.9
2096.73
2098.36
2099.29
2101.24
2102.3
2104.52
2105.79
2108.17
2109.8
2112.12
2114.51
2116.04
2120.12
2111.14
2111.27
2111.49
2111.78
2112.22
2112.66
2113.34
2113.9
2114.85
2115.5
2116.74
2117.48
2119.02
2119.84
2121.68
2122.62
2124.73
2125.85
2128.12
2129.57
2131.8
2133.93
2135.45
2139.21
2133.69
2133.81
2134.02
2134.29
2134.7
2135.09
2135.73
2136.23
2137.11
2137.7
2138.85
2139.5
2140.95
2141.67
2143.4
2144.21
2146.2
2147.17
2149.33
2150.6
2152.73
2154.62
2156.1
2159.54
2157.52
2157.64
2157.83
2158.08
2158.46
2158.81
2159.4
2159.84
2160.66
2161.17
2162.25
2162.8
2164.16
2164.76
2166.4
2167.07
2168.95
2169.75
2171.8
2172.87
2174.9
2176.55
2178.01
2181.11
2182.64
2182.76
2182.93
2183.16
2183.5
2183.82
2184.35
2184.74
2185.49
2185.92
2186.92
2187.38
2188.64
2189.13
2190.67
2191.2
2192.97
2193.61
2195.54
2196.42
2198.34
2199.75
2201.18
2203.92
2209.04
2209.15
2209.31
2209.51
2209.82
2210.1
2210.58
2210.91
2211.6
2211.95
2212.87
2213.24
2214.41
2214.78
2216.21
2216.6
2218.26
2218.74
2220.55
2221.24
2223.04
2224.2
2225.6
2227.99
2236.72
2236.83
2236.98
2237.16
2237.44
2237.68
2238.11
2238.38
2239
2239.28
2240.11
2240.38
2241.45
2241.71
2243.04
2243.29
2244.84
2245.15
2246.85
2247.34
2249.02
2249.94
2251.27
2253.31
2265.7
2265.81
2265.93
2266.1
2266.34
2266.54
2266.92
2267.14
2267.69
2267.89
2268.64
2268.82
2269.79
2269.93
2271.15
2271.26
2272.7
2272.85
2274.44
2274.73
2276.3
2276.98
2278.21
2279.9
2295.98
2296.08
2296.2
2296.34
2296.55
2296.71
2297.04
2297.2
2297.68
2297.81
2298.48
2298.56
2299.44
2299.46
2300.57
2300.53
2301.86
2301.83
2303.31
2303.4
2304.86
2305.3
2306.44
2307.76
2327.57
2327.67
2327.76
2327.89
2328.07
2328.19
2328.47
2328.57
2328.99
2329.05
2329.63
2329.61
2330.4
2330.29
2331.3
2331.11
2332.33
2332.12
2333.48
2333.36
2334.73
2334.92
2335.98
2336.94
2360.47
2360.57
2360.66
2360.76
2360.9
2360.99
2361.22
2361.27
2361.62
2361.6
2362.1
2361.99
2362.68
2362.45
2363.35
2363.02
2364.12
2363.73
2364.97
2364.64
2365.89
2365.84
2366.81
2367.43
2394.72
2394.81
2394.88
2394.96
2395.08
2395.13
2395.31
2395.3
2395.58
2395.49
2395.91
2395.7
2396.29
2395.95
2396.74
2396.26
2397.25
2396.67
2397.8
2397.24
2398.38
2398.07
2398.94
2399.27
2430.31
2430.4
2430.46
2430.52
2430.6
2430.61
2430.74
2430.67
2430.89
2430.72
2431.06
2430.75
2431.25
2430.78
2431.47
2430.84
2431.72
2430.95
2431.98
2431.19
2432.23
2431.63
2432.41
2432.41
2467.27
2467.36
2467.39
2467.44
2467.48
2467.45
2467.53
2467.41
2467.56
2467.31
2467.57
2467.16
2467.57
2466.98
2467.57
2466.78
2467.56
2466.6
2467.53
2466.49
2467.45
2466.55
2467.26
2466.89
2505.6
2505.69
2505.71
2505.73
2505.74
2505.68
2505.7
2505.52
2505.6
2505.28
2505.45
2504.95
2505.26
2504.54
2505.03
2504.08
2504.77
2503.61
2504.45
2503.17
2504.04
2502.85
2503.49
2502.74
2545.33
2545.41
2545.42
2545.42
2545.4
2545.29
2545.27
2545.03
2545.04
2544.64
2544.73
2544.12
2544.33
2543.49
2543.88
2542.77
2543.35
2542
2542.75
2541.22
2542.03
2540.52
2541.12
2540
2586.46
2586.55
2586.54
2586.52
2586.46
2586.31
2586.24
2585.94
2585.88
2585.4
2585.4
2584.69
2584.81
2583.84
2584.12
2582.86
2583.33
2581.78
2582.44
2580.66
2581.4
2579.58
2580.16
2578.63
2629.02
2629.1
2629.08
2629.03
2628.94
2628.76
2628.63
2628.27
2628.14
2627.58
2627.5
2626.69
2626.7
2625.61
2625.78
2624.36
2624.73
2622.97
2623.54
2621.5
2622.19
2620.02
2620.63
2618.66
2673.02
2673.09
2673.06
2672.99
2672.86
2672.64
2672.45
2672.03
2671.83
2671.19
2671.02
2670.11
2670.03
2668.8
2668.87
2667.28
2667.55
2665.58
2666.07
2663.75
2664.4
2661.86
2662.51
2660.11
2718.46
2718.53
2718.48
2718.39
2718.22
2717.96
2717.72
2717.25
2716.97
2716.25
2715.99
2714.97
2714.8
2713.43
2713.41
2711.64
2711.82
2709.63
2710.05
2707.44
2708.07
2705.14
2705.81
2703
2765.35
2765.43
2765.36
2765.25
2765.05
2764.74
2764.45
2763.91
2763.57
2762.76
2762.42
2761.29
2761.03
2759.52
2759.4
2757.45
2757.55
2755.12
2755.49
2752.56
2753.22
2749.87
2750.55
2747.34
2813.72
2813.79
2813.7
2813.57
2813.34
2812.99
2812.64
2812.05
2811.63
2810.74
2810.32
2809.08
2808.72
2807.07
2806.86
2804.73
2804.76
2802.07
2802.41
2799.14
2799.83
2796.09
2796.76
2793.15
2863.55
2863.62
2863.52
2863.37
2863.09
2862.72
2862.31
2861.65
2861.17
2860.2
2859.69
2858.34
2857.9
2856.1
2855.81
2853.48
2853.45
2850.49
2850.84
2847.2
2847.89
2843.81
2844.44
2840.44
2914.86
2914.93
2914.81
2914.64
2914.33
2913.91
2913.45
2912.74
2912.19
2911.13
2910.55
2909.08
2908.57
2906.6
2906.26
2903.7
2903.65
2900.39
2900.76
2896.77
2897.43
2893.03
2893.61
2889.24
2967.65
2967.71
2967.58
2967.39
2967.04
2966.59
2966.08
2965.31
2964.69
2963.54
2962.9
2961.3
2960.73
2958.58
2958.21
2955.39
2955.38
2951.77
2952.16
2947.88
2948.46
2943.77
2944.29
2939.55
3021.91
3021.97
3021.82
3021.61
3021.23
3020.75
3020.18
3019.35
3018.67
3017.44
3016.74
3015
3014.4
3012.04
3011.69
3008.58
3008.59
3004.71
3005.02
3000.52
3001
2996.03
2996.49
2991.38
3077.63
3077.69
3077.54
3077.31
3076.89
3076.38
3075.76
3074.88
3074.14
3072.81
3072.08
3070.17
3069.6
3066.98
3066.67
3063.3
3063.26
3059.19
3059.39
3054.68
3055.06
3049.82
3050.22
3044.76
3134.81
3134.89
3134.71
3134.47
3134.02
3133.48
3132.81
3131.87
3131.1
3129.64
3128.94
3126.81
3126.27
3123.46
3123.09
3119.58
3119.43
3115.2
3115.29
3110.37
3110.66
3105.16
3105.49
3099.68
3193.45
3193.53
3193.32
3193.1
3192.6
3192.05
3191.32
3190.32
3189.55
3187.95
3187.24
3185
3184.39
3181.46
3181
3177.36
3177.11
3172.73
3172.71
3167.59
3167.79
3162.03
3162.3
3156.16
3253.54
3253.63
3253.39
3253.18
3252.62
3252.08
3251.28
3250.26
3249.44
3247.77
3247
3244.68
3243.98
3240.97
3240.41
3236.66
3236.29
3231.77
3231.65
3226.35
3226.45
3220.45
3220.66
3214.19
3315.06
3315.15
3314.9
3314.68
3314.1
3313.54
3312.68
3311.68
3310.75
3309.06
3308.22
3305.83
3305.05
3301.96
3301.31
3297.45
3296.99
3292.33
3292.11
3286.63
3286.65
3280.42
3280.57
3273.78
3378.01
3378.1
3377.86
3377.61
3377.02
3376.43
3375.53
3374.54
3373.47
3371.84
3370.88
3368.44
3367.6
3364.43
3363.69
3359.75
3359.18
3354.41
3354.08
3348.45
3348.37
3341.92
3342.01
3334.93
3442.37
3442.46
3442.22
3441.96
3441.36
3440.75
3439.82
3438.82
3437.66
3436.08
3434.95
3432.55
3431.61
3428.37
3427.55
3423.52
3422.87
3417.98
3417.56
3411.77
3411.61
3404.96
3404.99
3397.62
3508.15
3508.24
3508
3507.73
3507.12
3506.5
3505.54
3504.53
3503.29
3501.74
3500.48
3498.13
3497.03
3493.79
3492.88
3488.77
3488.03
3483.03
3482.53
3476.6
3476.36
3469.51
3469.49
3461.85
3575.33
3575.43
3575.19
3574.91
3574.29
3573.66
3572.67
3571.65
3570.36
3568.82
3567.45
3565.13
3563.9
3560.66
3559.65
3555.48
3554.65
3549.55
3548.97
3542.9
3542.59
3535.56
3535.49
3527.6
3643.93
3644.04
3643.79
3643.51
3642.88
3642.24
3641.22
3640.19
3638.85
3637.32
3635.86
3633.55
3632.21
3628.97
3627.85
3623.62
3622.72
3617.53
3616.87
3610.67
3610.29
3603.09
3602.97
3594.84
3713.95
3714.06
3713.81
3713.53
3712.88
3712.23
3711.2
3710.15
3708.77
3707.23
3705.69
3703.38
3701.94
3698.68
3697.48
3693.18
3692.21
3686.92
3686.19
3679.88
3679.42
3672.07
3671.9
3663.55
3785.4
3785.52
3785.26
3784.98
3784.31
3783.66
3782.59
3781.52
3780.09
3778.55
3776.92
3774.61
3773.08
3769.78
3768.5
3764.13
3763.1
3757.72
3756.92
3750.49
3749.97
3742.47
3742.25
3733.7
3858.28
3858.41
3858.14
3857.86
3857.17
3856.49
3855.39
3854.3
3852.82
3851.26
3849.53
3847.23
3845.59
3842.26
3840.9
3836.45
3835.37
3829.89
3829.02
3822.49
3821.89
3814.27
3813.99
3805.27
3932.6
3932.73
3932.44
3932.16
3931.43
3930.74
3929.59
3928.47
3926.93
3925.34
3923.51
3921.21
3919.44
3916.1
3914.65
3910.12
3908.98
3903.4
3902.46
3895.84
3895.17
3887.43
3887.1
3878.22
4008.32
4008.46
4008.15
4007.85
4007.09
4006.36
4005.17
4004
4002.39
4000.75
3998.82
3996.52
3994.61
3991.28
3989.68
3985.13
3983.91
3978.23
3977.23
3970.51
3969.78
3961.94
3961.57
3952.54
4085.38
4085.52
4085.2
4084.87
4084.09
4083.31
4082.06
4080.84
4079.17
4077.47
4075.45
4073.14
4071.06
4067.76
4065.99
4061.45
4060.11
4054.37
4053.3
4046.52
4045.72
4037.79
4037.37
4028.22
4163.67
4163.81
4163.48
4163.13
4162.32
4161.5
4160.21
4158.93
4157.2
4155.45
4153.33
4151.01
4148.77
4145.51
4143.55
4139.06
4137.56
4131.81
4130.69
4123.83
4122.98
4114.98
4114.51
4105.26
4243.02
4243.16
4242.84
4242.46
4241.65
4240.79
4239.49
4238.17
4236.4
4234.61
4232.43
4230.09
4227.72
4224.52
4222.35
4217.96
4216.28
4210.56
4209.36
4202.46
4201.55
4193.5
4193.01
4183.68
4323.23
4323.38
4323.07
4322.69
4321.89
4321.05
4319.75
4318.43
4316.66
4314.86
4312.67
4310.33
4307.88
4304.75
4302.42
4298.15
4296.27
4290.65
4289.33
4282.42
4281.47
4273.39
4272.88
4263.49
4404.12
4404.27
4404
4403.65
4402.9
4402.09
4400.85
4399.58
4397.86
4396.12
4393.96
4391.69
4389.23
4386.18
4383.76
4379.63
4377.57
4372.09
4370.64
4363.74
4362.78
4354.67
4354.17
4344.74
4485.55
4485.73
4485.49
4485.21
4484.52
4483.81
4482.66
4481.51
4479.9
4478.28
4476.22
4474.07
4471.69
4468.78
4466.35
4462.4
4460.24
4454.93
4453.35
4446.52
4445.54
4437.38
4436.91
4427.45
4567.56
4567.75
4567.58
4567.36
4566.78
4566.18
4565.17
4564.17
4562.71
4561.27
4559.38
4557.43
4555.19
4552.49
4550.16
4546.42
4544.26
4539.18
4537.53
4530.81
4529.84
4521.6
4521.16
4511.62
4650.35
4650.58
4650.45
4650.32
4649.83
4649.36
4648.48
4647.65
4646.37
4645.13
4643.44
4641.72
4639.68
4637.23
4635.1
4631.62
4629.6
4624.77
4623.2
4616.63
4615.74
4607.44
4607.02
4597.33
4734.38
4734.66
4734.54
4734.51
4734.06
4733.73
4732.92
4732.27
4731.1
4730.07
4728.53
4727.05
4725.19
4722.99
4721.14
4717.82
4716.17
4711.43
4710.27
4703.76
4703.21
4694.93
4694.61
4684.79
4820.36
4820.71
4820.53
4820.63
4820.07
4819.92
4818.99
4818.58
4817.27
4816.52
4814.93
4813.68
4811.91
4809.86
4808.38
4804.86
4804.04
4798.88
4798.58
4791.9
4791.92
4783.81
4783.8
4774.35
4909.17
4909.49
4909.37
4909.33
4908.87
4908.51
4907.69
4907.03
4905.86
4904.89
4903.37
4902.04
4900.23
4898.37
4896.71
4893.41
4892.68
4887.61
4887.56
4880.98
4881.4
4873.42
4873.87
4865.05
5001.69
5001.99
5001.83
5001.69
5001.13
5000.61
4999.63
4998.76
4997.39
4996.17
4994.45
4992.89
4990.87
4988.88
4986.81
4983.81
4982.5
4977.71
4977.56
4970.93
4971.59
4963.44
4964.26
4955.52
5098.7
5098.97
5098.73
5098.47
5097.73
5096.99
5095.74
5094.56
5092.84
5091.24
5089.11
5087.12
5084.65
5082.25
5079.64
5076.43
5074.46
5069.67
5069.03
5062.09
5062.83
5054.21
5055.29
5046.17
5200.7
5200.99
5200.62
5200.26
5199.28
5198.31
5196.71
5195.2
5192.99
5190.96
5188.22
5185.7
5182.54
5179.52
5176.13
5172.32
5169.57
5164.13
5162.93
5155.18
5155.75
5146.28
5147.48
5137.56
5307.92
5308.25
5307.72
5307.3
5306.06
5304.91
5302.92
5301.14
5298.34
5296.01
5292.44
5289.54
5285.39
5281.75
5277.43
5272.7
5269.09
5262.33
5260.41
5251.39
5251.32
5240.56
5241.6
5230.33
5420.23
5420.52
5420.02
5419.38
5418.09
5416.63
5414.51
5412.26
5409.29
5406.28
5402.48
5398.71
5394.14
5389.6
5384.38
5378.97
5373.7
5366.32
5362.79
5352.46
5351.07
5338.49
5338.84
5325.44
5537.15
5537.41
5536.9
5536.17
5534.81
5533.19
5530.92
5528.44
5525.25
5521.91
5517.79
5513.57
5508.54
5503.41
5497.53
5491.4
5484.88
5477.28
5471.13
5460.71
5456.86
5442.44
5441.31
5424.68
5657.98
5658.22
5657.73
5656.96
5655.57
5653.89
5651.55
5648.97
5645.66
5642.16
5637.88
5633.44
5628.16
5622.73
5616.47
5609.92
5602.81
5594.78
5587.26
5576.92
5570.14
5555.56
5551.92
5531.43
5781.91
5782.16
5781.69
5780.93
5779.55
5777.87
5775.54
5772.96
5769.64
5766.14
5761.83
5757.37
5752.05
5746.57
5740.24
5733.63
5726.36
5718.25
5710.4
5700.13
5692.32
5678.29
5672.76
5650.45
5908.08
5908.36
5907.91
5907.2
5905.86
5904.25
5901.97
5899.47
5896.23
5892.83
5888.6
5884.28
5879.05
5873.73
5867.52
5861.09
5853.97
5846.08
5838.53
5828.33
5821.33
5807.14
5802.71
5782.26
6035.65
6035.96
6035.55
6034.91
6033.63
6032.13
6029.94
6027.58
6024.46
6021.25
6017.17
6013.07
6008.04
6003
5997.02
5990.92
5984.09
5976.61
5969.45
5959.7
5953.3
5939.68
5935.66
5916.63
6163.84
6164.21
6163.82
6163.27
6162.06
6160.7
6158.62
6156.45
6153.48
6150.5
6146.61
6142.81
6138.01
6133.32
6127.64
6121.95
6115.48
6108.52
6101.75
6092.61
6086.68
6073.92
6070.15
6052.44
6291.99
6292.41
6292.03
6291.61
6290.44
6289.26
6287.26
6285.35
6282.49
6279.85
6276.1
6272.71
6268.09
6263.88
6258.44
6253.26
6247.15
6240.76
6234.41
6225.89
6220.44
6208.61
6205.06
6188.67
6419.49
6419.95
6419.56
6419.32
6418.12
6417.24
6415.2
6413.71
6410.79
6408.69
6404.89
6402.14
6397.5
6394.01
6388.62
6384.16
6378.31
6372.52
6366.65
6358.75
6353.69
6342.87
6339.52
6324.46
6545.82
6546.3
6545.95
6545.79
6544.72
6543.94
6542.09
6540.76
6538.07
6536.23
6532.66
6530.3
6525.87
6522.9
6517.72
6513.94
6508.26
6503.22
6497.7
6490.55
6485.83
6476.03
6472.88
6459.15
6670.51
6671.01
6670.76
6670.59
6669.73
6668.95
6667.43
6666.09
6663.84
6661.99
6658.96
6656.64
6652.8
6649.97
6645.37
6641.89
6636.73
6632.28
6627
6620.72
6616.34
6607.53
6604.57
6592.16
6793.21
6793.72
6793.54
6793.41
6792.69
6791.99
6790.69
6789.46
6787.51
6785.8
6783.17
6781
6777.64
6775.01
6770.95
6767.77
6763.12
6759.17
6754.25
6748.92
6744.72
6736.91
6734.12
6723.01
6913.6
6914.1
6913.99
6913.9
6913.31
6912.7
6911.58
6910.5
6908.8
6907.27
6904.96
6903.02
6900.06
6897.7
6894.09
6891.27
6887.09
6883.63
6879.1
6874.62
6870.57
6863.78
6861.18
6851.33
7031.38
7031.89
7031.82
7031.79
7031.31
7030.81
7029.84
7028.92
7027.44
7026.11
7024.08
7022.39
7019.78
7017.72
7014.52
7012.07
7008.33
7005.36
7001.26
6997.46
6993.59
6987.84
6985.43
6976.8
7146.34
7146.85
7146.83
7146.85
7146.46
7146.06
7145.25
7144.48
7143.2
7142.08
7140.31
7138.87
7136.58
7134.82
7132
7129.92
7126.6
7124.09
7120.42
7117.25
7113.61
7108.83
7106.6
7099.15
7258.28
7258.79
7258.81
7258.88
7258.58
7258.29
7257.61
7256.99
7255.9
7254.98
7253.45
7252.25
7250.27
7248.81
7246.34
7244.61
7241.69
7239.62
7236.35
7233.74
7230.44
7226.59
7224.44
7218.14
7367.06
7367.57
7367.62
7367.74
7367.52
7367.32
7366.77
7366.29
7365.39
7364.65
7363.36
7362.39
7360.69
7359.51
7357.38
7355.99
7353.44
7351.78
7348.9
7346.81
7343.87
7340.86
7338.83
7333.58
7472.56
7473.06
7473.15
7473.31
7473.17
7473.05
7472.63
7472.28
7471.54
7470.98
7469.9
7469.16
7467.72
7466.81
7464.99
7463.93
7461.73
7460.46
7457.97
7456.36
7453.78
7451.49
7449.6
7445.33
7574.69
7575.18
7575.3
7575.5
7575.42
7575.39
7575.08
7574.85
7574.27
7573.88
7573
7572.47
7571.28
7570.62
7569.09
7568.33
7566.47
7565.57
7563.43
7562.29
7560.07
7558.37
7556.63
7553.32
7673.38
7673.87
7674.01
7674.24
7674.23
7674.28
7674.06
7673.96
7673.52
7673.28
7672.6
7672.26
7671.29
7670.88
7669.62
7669.15
7667.59
7667.04
7665.23
7664.51
7662.62
7661.48
7659.9
7657.49
7768.61
7769.08
7769.25
7769.51
7769.55
7769.67
7769.55
7769.56
7769.25
7769.16
7768.64
7768.49
7767.74
7767.55
7766.54
7766.33
7765.05
7764.83
7763.32
7762.99
7761.4
7760.74
7759.42
7757.8
7860.35
7860.81
7860.99
7861.28
7861.38
7861.56
7861.53
7861.63
7861.44
7861.49
7861.13
7861.15
7860.6
7860.61
7859.83
7859.88
7858.86
7858.93
7857.71
7857.75
7856.43
7856.24
7855.14
7854.25
7948.6
7949.05
7949.25
7949.57
7949.71
7949.95
7949.99
7950.19
7950.11
7950.28
7950.07
7950.24
7949.87
7950.07
7949.52
7949.78
7949.02
7949.36
7948.41
7948.78
7947.74
7947.98
7947.12
7946.82
8033.4
8033.83
8034.04
8034.38
8034.56
8034.85
8034.97
8035.24
8035.27
8035.55
8035.48
8035.79
8035.59
8035.96
8035.6
8036.08
8035.54
8036.14
8035.42
8036.11
8035.31
8035.96
8035.3
8035.58
8114.77
8115.18
8115.41
8115.76
8115.98
8116.32
8116.5
8116.85
8116.96
8117.35
8117.39
8117.83
8117.78
8118.32
8118.13
8118.8
8118.46
8119.29
8118.8
8119.77
8119.18
8120.21
8119.71
8120.52
8192.76
8193.16
8193.4
8193.76
8194.01
8194.39
8194.62
8195.04
8195.24
8195.71
8195.87
8196.43
8196.5
8197.18
8197.16
8198
8197.84
8198.88
8198.58
8199.82
8199.41
8200.78
8200.42
8201.71
8267.44
8267.82
8268.06
8268.44
8268.72
8269.13
8269.41
8269.89
8270.16
8270.72
8270.97
8271.63
8271.83
8272.63
8272.76
8273.75
8273.75
8274.97
8274.85
8276.31
8276.07
8277.74
8277.5
8279.22
8338.88
8339.24
8339.49
8339.87
8340.17
8340.62
8340.94
8341.47
8341.81
8342.43
8342.77
8343.52
8343.83
8344.75
8344.99
8346.12
8346.27
8347.66
8347.68
8349.36
8349.25
8351.2
8351.05
8353.15
8407.16
8407.5
8407.75
8408.14
8408.46
8408.93
8409.29
8409.86
8410.26
8410.95
8411.36
8412.19
8412.59
8413.61
8413.97
8415.22
8415.49
8417.03
8417.18
8419.04
8419.06
8421.24
8421.18
8423.6
8472.36
8472.69
8472.94
8473.33
8473.66
8474.15
8474.55
8475.16
8475.6
8476.35
8476.82
8477.73
8478.21
8479.32
8479.78
8481.13
8481.52
8483.17
8483.44
8485.46
8485.59
8487.98
8487.99
8490.71
8534.58
8534.89
8535.14
8535.53
8535.88
8536.39
8536.81
8537.45
8537.94
8538.73
8539.26
8540.23
8540.79
8541.97
8542.51
8543.96
8544.44
8546.21
8546.58
8548.74
8548.96
8551.54
8551.62
8554.58
8593.91
8594.2
8594.45
8594.84
8595.2
8595.73
8596.17
8596.84
8597.36
8598.2
8598.78
8599.8
8600.42
8601.67
8602.29
8603.81
8604.38
8606.25
8606.71
8608.99
8609.29
8612.03
8612.14
8615.37
8650.45
8650.73
8650.97
8651.37
8651.73
8652.27
8652.73
8653.43
8653.98
8654.85
8655.47
8656.54
8657.21
8658.52
8659.21
8660.79
8661.44
8663.39
8663.93
8666.31
8666.69
8669.56
8669.73
8673.14
8704.3
8704.56
8704.81
8705.2
8705.57
8706.12
8706.6
8707.31
8707.89
8708.79
8709.45
8710.56
8711.27
8712.63
8713.37
8715.02
8715.73
8717.75
8718.36
8720.83
8721.27
8724.26
8724.47
8728.05
8755.56
8755.81
8756.05
8756.44
8756.82
8757.37
8757.86
8758.59
8759.19
8760.12
8760.81
8761.95
8762.71
8764.1
8764.89
8766.59
8767.36
8769.43
8770.11
8772.65
8773.15
8776.24
8776.5
8780.21
8804.34
8804.57
8804.81
8805.2
8805.57
8806.13
8806.63
8807.38
8807.99
8808.94
8809.65
8810.82
8811.61
8813.04
8813.88
8815.61
8816.44
8818.55
8819.29
8821.88
8822.44
8825.62
8825.91
8829.75
8850.73
8850.95
8851.18
8851.56
8851.94
8852.5
8853.01
8853.76
8854.39
8855.35
8856.09
8857.28
8858.1
8859.55
8860.42
8862.19
8863.06
8865.21
8866
8868.63
8869.25
8872.49
8872.82
8876.76
8894.83
8895.04
8895.26
8895.64
8896.02
8896.58
8897.09
8897.85
8898.49
8899.47
8900.21
8901.42
8902.26
8903.74
8904.63
8906.43
8907.33
8909.51
8910.34
8913.01
8913.67
8916.95
8917.32
8921.35
8936.74
8936.93
8937.16
8937.53
8937.9
8938.47
8938.98
8939.75
8940.39
8941.38
8942.13
8943.36
8944.21
8945.71
8946.61
8948.44
8949.35
8951.57
8952.42
8955.12
8955.8
8959.12
8959.51
8963.6
8976.56
8976.74
8976.95
8977.32
8977.69
8978.25
8978.77
8979.54
8980.18
8981.18
8981.94
8983.18
8984.03
8985.55
8986.46
8988.31
8989.23
8991.47
8992.32
8995.06
8995.74
8999.1
8999.49
9003.6
9014.37
9014.54
9014.75
9015.11
9015.48
9016.04
9016.55
9017.33
9017.97
9018.97
9019.73
9020.98
9021.83
9023.37
9024.28
9026.14
9027.06
9029.33
9030.17
9032.94
9033.61
9036.99
9037.37
9041.5
9050.28
9050.44
9050.64
9051
9051.36
9051.92
9052.42
9053.2
9053.84
9054.84
9055.6
9056.86
9057.71
9059.25
9060.16
9062.04
9062.95
9065.23
9066.07
9068.86
9069.51
9072.92
9073.28
9077.41
9084.36
9084.51
9084.71
9085.06
9085.41
9085.97
9086.47
9087.25
9087.88
9088.89
9089.64
9090.9
9091.75
9093.3
9094.2
9096.09
9096.99
9099.29
9100.11
9102.91
9103.56
9106.97
9107.32
9111.45
9116.71
9116.85
9117.04
9117.39
9117.74
9118.29
9118.78
9119.56
9120.19
9121.2
9121.94
9123.2
9124.04
9125.59
9126.49
9128.38
9129.28
9131.57
9132.39
9135.19
9135.83
9139.25
9139.59
9143.72
9147.4
9147.54
9147.73
9148.07
9148.41
9148.96
9149.44
9150.22
9150.83
9151.85
9152.58
9153.85
9154.67
9156.23
9157.11
9159
9159.89
9162.19
9163
9165.8
9166.43
9169.83
9170.17
9174.29
9176.52
9176.65
9176.83
9177.17
9177.5
9178.05
9178.53
9179.3
9179.9
9180.92
9181.64
9182.91
9183.72
9185.28
9186.15
9188.04
9188.91
9191.21
9192.01
9194.8
9195.41
9198.84
9199.16
9203.26
9204.15
9204.27
9204.44
9204.77
9205.1
9205.65
9206.11
9206.89
9207.48
9208.49
9209.19
9210.47
9211.26
9212.83
9213.67
9215.57
9216.42
9218.72
9219.5
9222.29
9222.91
9226.28
9226.61
9230.69
9230.34
9230.46
9230.63
9230.96
9231.27
9231.82
9232.27
9233.05
9233.62
9234.64
9235.32
9236.6
9237.37
9238.94
9239.76
9241.67
9242.49
9244.8
9245.55
9248.34
9248.91
9252.32
9252.61
9256.68
9255.18
9255.29
9255.46
9255.78
9256.09
9256.64
9257.07
9257.85
9258.4
9259.43
9260.09
9261.38
9262.11
9263.7
9264.48
9266.4
9267.19
9269.51
9270.21
9273.02
9273.55
9276.96
9277.23
9281.27
9278.74
9278.84
9279
9279.32
9279.61
9280.16
9280.58
9281.37
9281.89
9282.93
9283.55
9284.86
9285.56
9287.16
9287.9
9289.85
9290.58
9292.93
9293.58
9296.41
9296.87
9300.3
9300.53
9304.55
9301.06
9301.16
9301.31
9301.63
9301.91
9302.47
9302.86
9303.66
9304.15
9305.21
9305.79
9307.12
9307.77
9309.4
9310.08
9312.07
9312.72
9315.12
9315.67
9318.58
9318.95
9322.39
9322.59
9326.57
9322.22
9322.31
9322.45
9322.78
9323.04
9323.61
9323.97
9324.79
9325.24
9326.33
9326.85
9328.22
9328.8
9330.49
9331.08
9333.12
9333.67
9336.16
9336.59
9339.54
9339.86
9343.28
9343.47
9347.41
9342.26
9342.36
9342.49
9342.83
9343.06
9343.65
9343.97
9344.82
9345.21
9346.35
9346.79
9348.23
9348.71
9350.47
9350.96
9353.07
9353.52
9356.05
9356.42
9359.37
9359.66
9363.05
9363.22
9367.11
9361.25
9361.35
9361.46
9361.82
9362.01
9362.63
9362.9
9363.8
9364.12
9365.32
9365.67
9367.17
9367.55
9369.39
9369.77
9371.95
9372.32
9374.87
9375.2
9378.13
9378.4
9381.76
9381.92
9385.74
9379.24
9379.34
9379.44
9379.8
9379.97
9380.62
9380.83
9381.77
9382.03
9383.27
9383.56
9385.1
9385.43
9387.28
9387.62
9389.8
9390.14
9392.67
9392.98
9395.88
9396.14
9399.45
9399.6
9403.36
9396.27
9396.37
9396.46
9396.82
9396.98
9397.62
9397.83
9398.76
9399.01
9400.24
9400.52
9402.05
9402.36
9404.2
9404.52
9406.69
9407.01
9409.51
9409.81
9412.68
9412.93
9416.19
9416.34
9420.05
9412.39
9412.48
9412.57
9412.93
9413.09
9413.72
9413.92
9414.85
9415.08
9416.3
9416.57
9418.09
9418.38
9420.21
9420.52
9422.66
9422.97
9425.44
9425.73
9428.57
9428.8
9432.03
9432.17
9435.83
9427.64
9427.73
9427.82
9428.18
9428.32
9428.95
9429.15
9430.06
9430.29
9431.5
9431.76
9433.26
9433.55
9435.35
9435.65
9437.76
9438.07
9440.51
9440.8
9443.59
9443.82
9447
9447.14
9450.75
9442.07
9442.16
9442.25
9442.59
9442.74
9443.36
9443.55
9444.45
9444.68
9445.86
9446.13
9447.6
9447.89
9449.66
9449.96
9452.05
9452.35
9454.75
9455.03
9457.78
9458.01
9461.14
9461.28
9464.83
9455.71
9455.8
9455.88
9456.22
9456.37
9456.98
9457.17
9458.05
9458.28
9459.45
9459.71
9461.16
9461.45
9463.19
9463.49
9465.54
9465.84
9468.21
9468.48
9471.2
9471.42
9474.51
9474.64
9478.14
9468.6
9468.68
9468.77
9469.1
9469.25
9469.85
9470.04
9470.91
9471.14
9472.28
9472.54
9473.97
9474.26
9475.97
9476.27
9478.29
9478.58
9480.92
9481.19
9483.86
9484.08
9487.12
9487.26
9490.7
9480.77
9480.85
9480.94
9481.27
9481.41
9482
9482.19
9483.04
9483.28
9484.4
9484.66
9486.06
9486.35
9488.04
9488.33
9490.32
9490.61
9492.92
9493.18
9495.82
9496.03
9499.03
9499.16
9502.55
9492.26
9492.34
9492.43
9492.75
9492.9
9493.47
9493.67
9494.5
9494.73
9495.84
9496.1
9497.48
9497.76
9499.43
9499.72
9501.68
9501.96
9504.24
9504.5
9507.1
9507.31
9510.26
9510.39
9513.72
9503.1
9503.17
9503.26
9503.57
9503.72
9504.28
9504.48
9505.3
9505.53
9506.62
9506.88
9508.24
9508.52
9510.16
9510.45
9512.38
9512.66
9514.9
9515.16
9517.72
9517.92
9520.84
9520.96
9524.25
9513.31
9513.38
9513.47
9513.78
9513.93
9514.47
9514.68
9515.47
9515.71
9516.78
9517.04
9518.38
9518.65
9520.27
9520.56
9522.47
9522.74
9524.95
9525.2
9527.73
9527.93
9530.8
9530.92
9534.17
9522.91
9522.99
9523.07
9523.37
9523.53
9524.06
9524.26
9525.05
9525.29
9526.33
9526.59
9527.91
9528.19
9529.78
9530.06
9531.95
9532.21
9534.4
9534.64
9537.14
9537.33
9540.17
9540.28
9543.49
9531.95
9532.02
9532.11
9532.4
9532.56
9533.08
9533.28
9534.05
9534.29
9535.32
9535.58
9536.88
9537.15
9538.73
9538.99
9540.86
9541.12
9543.28
9543.51
9545.98
9546.17
9548.97
9549.08
9552.24
9540.43
9540.5
9540.6
9540.86
9541.04
9541.53
9541.76
9542.5
9542.74
9543.75
9544.01
9545.29
9545.55
9547.12
9547.38
9549.22
9549.47
9551.61
9551.83
9554.27
9554.45
9557.22
9557.33
9560.45
9548.38
9548.44
9548.56
9548.8
9549
9549.45
9549.71
9550.4
9550.68
9551.65
9551.92
9553.18
9553.43
9554.98
9555.23
9557.05
9557.29
9559.41
9559.62
9562.04
9562.21
9564.95
9565.05
9568.13
9555.83
9555.88
9556.01
9556.22
9556.46
9556.86
9557.16
9557.79
9558.12
9559.02
9559.33
9560.53
9560.81
9562.33
9562.57
9564.38
9564.61
9566.7
9566.91
9569.29
9569.46
9572.16