/*--------------------------------*- C++ -*----------------------------------*\
  =========                 |
  \\      /  F ield         | OpenFOAM: The Open Source CFD Toolbox
   \\    /   O peration     | Website:  https://openfoam.org
    \\  /    A nd           | Version:  10
     \\/     M anipulation  |
\*---------------------------------------------------------------------------*/
FoamFile
{
    format      ascii;
    class       surfaceScalarField;
    location    "0.07";
    object      phi;
}
// * * * * * * * * * * * * * * * * * * * * * * * * * * * * * * * * * * * * * //

dimensions      [1 0 -1 0 0 0 0];

internalField   nonuniform List<scalar> 
8154
(
-1.04017e-07
-4.26173e-07
-9.54958e-07
-1.68202e-06
-2.58912e-06
-3.66707e-06
-4.87751e-06
-6.21541e-06
-7.61783e-06
-9.09132e-06
-1.0547e-05
-1.20042e-05
-1.33523e-05
-1.46143e-05
-1.56783e-05
-1.6567e-05
-1.72174e-05
-1.74267e-05
-1.77731e-05
-1.65897e-05
-1.66798e-05
-1.29656e-05
-9.70175e-06
-0.000296611
-0.000889732
-6.93362e-08
-0.001483
-2.88173e-07
-0.00207643
-6.46708e-07
-0.0026701
-1.13773e-06
-0.00326407
-1.74611e-06
-0.00385837
-2.4635e-06
-0.0044532
-3.25746e-06
-0.00504831
-4.12434e-06
-0.00564437
-5.00658e-06
-0.00624037
-5.91701e-06
-0.00683809
-6.76297e-06
-0.00743499
-7.58679e-06
-0.00803484
-8.24527e-06
-0.00863255
-8.82174e-06
-0.00923506
-9.10827e-06
-0.00983337
-9.25379e-06
-0.0104392
-8.97399e-06
-0.0110378
-8.55504e-06
-0.0116476
-7.55791e-06
-0.0122468
-6.52509e-06
-0.0128605
-4.96202e-06
-0.0134627
-3.55615e-06
-0.0140774
-1.92654e-06
-0.000295037
-0.000885025
-6.34013e-08
-0.00147516
-2.55922e-07
-0.00206547
-5.70301e-07
-0.00265604
-1.0006e-06
-0.00324692
-1.53499e-06
-0.00383817
-2.1655e-06
-0.00442997
-2.86719e-06
-0.00502209
-3.63385e-06
-0.00561518
-4.42202e-06
-0.00620829
-5.23611e-06
-0.0068031
-6.0064e-06
-0.00739724
-6.75878e-06
-0.00799426
-7.38179e-06
-0.00858934
-7.93379e-06
-0.0091891
-8.24018e-06
-0.00978494
-8.4112e-06
-0.010388
-8.18544e-06
-0.0109844
-7.84081e-06
-0.0115914
-6.69482e-06
-0.0121882
-5.9259e-06
-0.0127989
-3.60606e-06
-0.0133985
-1.97101e-06
-0.0140111
-3.09124e-07
-0.000293602
-0.00088073
-6.0976e-08
-0.00146801
-2.47446e-07
-0.00205547
-5.525e-07
-0.0026432
-9.72543e-07
-0.00323126
-1.49546e-06
-0.00381971
-2.12046e-06
-0.00440873
-2.81882e-06
-0.00499811
-3.6002e-06
-0.00558847
-4.40887e-06
-0.00617892
-5.27795e-06
-0.00677106
-6.11419e-06
-0.00736264
-6.98582e-06
-0.00795707
-7.75033e-06
-0.00854972
-8.50876e-06
-0.00914697
-9.06873e-06
-0.00974053
-9.56232e-06
-0.0103411
-9.7616e-06
-0.0109356
-9.75846e-06
-0.0115397
-9.43393e-06
-0.0121354
-8.62246e-06
-0.0127428
-7.64053e-06
-0.0133398
-5.57153e-06
-0.0139485
-3.43168e-06
-0.000292312
-0.000876869
-4.79031e-08
-0.00146158
-1.94268e-07
-0.00204647
-4.32576e-07
-0.00263166
-7.61584e-07
-0.00321717
-1.16899e-06
-0.00380311
-1.66132e-06
-0.0043896
-2.20509e-06
-0.00497653
-2.82754e-06
-0.00556439
-3.45681e-06
-0.00615246
-4.1595e-06
-0.00674215
-4.81153e-06
-0.00733141
-5.53181e-06
-0.00792345
-6.1401e-06
-0.0085139
-6.78561e-06
-0.00910882
-7.26199e-06
-0.00970027
-7.71303e-06
-0.0102987
-7.92896e-06
-0.0108911
-7.96015e-06
-0.0114933
-7.92395e-06
-0.0120868
-7.09024e-06
-0.012693
-6.76447e-06
-0.0132877
-5.20116e-06
-0.0138955
-3.5297e-06
-0.000291185
-0.000873495
-3.1396e-08
-0.00145596
-1.27625e-07
-0.00203861
-2.82777e-07
-0.00262157
-4.97864e-07
-0.00320485
-7.59889e-07
-0.00378859
-1.08357e-06
-0.00437286
-1.42748e-06
-0.00495764
-1.84186e-06
-0.00554329
-2.2287e-06
-0.00612927
-2.701e-06
-0.00671677
-3.08353e-06
-0.00730402
-3.56844e-06
-0.00789391
-3.90983e-06
-0.0084824
-4.33637e-06
-0.00907526
-4.6046e-06
-0.00966482
-4.88293e-06
-0.0102614
-4.93229e-06
-0.0108517
-4.8964e-06
-0.0114527
-4.78987e-06
-0.0120434
-4.27952e-06
-0.012649
-3.62658e-06
-0.0132417
-2.73095e-06
-0.0138493
-1.69621e-06
-0.000290214
-0.000870591
-1.95711e-08
-0.00145112
-8.05022e-08
-0.00203184
-1.75277e-07
-0.00261288
-3.14226e-07
-0.00319423
-4.68195e-07
-0.00377609
-6.86075e-07
-0.00435842
-8.77386e-07
-0.00494137
-1.17453e-06
-0.00552507
-1.37179e-06
-0.00610928
-1.73497e-06
-0.00669482
-1.90237e-06
-0.00728036
-2.29681e-06
-0.00786832
-2.42025e-06
-0.00845514
-2.78284e-06
-0.00904615
-2.9024e-06
-0.00963409
-3.14838e-06
-0.0102289
-3.20758e-06
-0.0108175
-3.12496e-06
-0.0114171
-3.03806e-06
-0.0120061
-2.89829e-06
-0.0126101
-2.34699e-06
-0.0132011
-1.83563e-06
-0.0138077
-1.13171e-06
-0.000289376
-0.000868081
-7.92022e-09
-0.00144695
-3.8346e-08
-0.00202599
-7.98567e-08
-0.00260538
-1.50651e-07
-0.00318503
-2.13668e-07
-0.00376529
-3.25685e-07
-0.00434587
-4.04135e-07
-0.00492731
-5.58546e-07
-0.0055092
-6.42073e-07
-0.006092
-8.38117e-07
-0.00667566
-8.96664e-07
-0.00725989
-1.13885e-06
-0.00784595
-1.12221e-06
-0.00843144
-1.42329e-06
-0.00902069
-1.30817e-06
-0.00960721
-1.55494e-06
-0.0102006
-1.62361e-06
-0.0107874
-1.66554e-06
-0.0113857
-1.53975e-06
-0.0119733
-1.48093e-06
-0.0125759
-1.29003e-06
-0.0131654
-9.436e-07
-0.013771
-6.25801e-07
-0.000288657
-0.000865923
2.24682e-10
-0.00144336
1.29892e-09
-0.00202095
-4.68539e-09
-0.00259893
8.44762e-09
-0.0031771
-8.20285e-09
-0.003756
2.13406e-08
-0.00433506
-1.22467e-08
-0.00491519
2.72312e-08
-0.0054955
-2.14488e-08
-0.00607709
1.14611e-08
-0.00665908
-3.87461e-08
-0.00724222
-1.79009e-08
-0.0078265
-6.07115e-08
-0.00841105
-5.8914e-08
-0.00899851
-1.02403e-07
-0.00958378
-1.7142e-07
-0.0101759
-2.9549e-08
-0.0107614
-2.44768e-07
-0.0113582
-2.0139e-07
-0.0119447
-3.5269e-07
-0.0125459
-1.73703e-07
-0.0131342
-2.45949e-07
-0.0137386
-1.72102e-07
-0.000288045
-0.000864094
8.50707e-09
-0.0014403
3.3373e-08
-0.00201669
6.97067e-08
-0.00259342
1.33816e-07
-0.00317043
1.9111e-07
-0.00374802
2.96519e-07
-0.00432596
3.57578e-07
-0.00490476
5.0349e-07
-0.00548397
5.42386e-07
-0.00606422
7.3222e-07
-0.00664511
7.22802e-07
-0.00722693
9.16638e-07
-0.00781007
9.0614e-07
-0.00839335
1.05943e-06
-0.00897959
1.07431e-06
-0.00956386
1.0868e-06
-0.0101545
1.25007e-06
-0.010739
9.21049e-07
-0.0113344
9.2976e-07
-0.0119199
8.18876e-07
-0.0125199
6.75534e-07
-0.013107
5.07518e-07
-0.0137105
2.37325e-07
-0.000287497
-0.000862456
1.58137e-08
-0.00143756
6.11816e-08
-0.00201287
1.37454e-07
-0.00258848
2.42794e-07
-0.00316444
3.76712e-07
-0.00374086
5.34254e-07
-0.00431782
7.11448e-07
-0.00489535
9.06674e-07
-0.00547367
1.10276e-06
-0.00605256
1.31554e-06
-0.00663263
1.5033e-06
-0.00721304
1.70317e-06
-0.00779537
1.86974e-06
-0.0083773
2.00822e-06
-0.00896251
2.15053e-06
-0.00954585
2.16745e-06
-0.0101348
2.26941e-06
-0.0107186
2.01022e-06
-0.0113128
2.15851e-06
-0.0118974
1.7288e-06
-0.0124961
1.59011e-06
-0.0130822
1.02211e-06
-0.0136846
6.08088e-07
-0.000287031
-0.000861063
2.22474e-08
-0.00143524
8.69059e-08
-0.00200962
1.95875e-07
-0.0025843
3.44145e-07
-0.00315933
5.36029e-07
-0.00373481
7.54536e-07
-0.00431083
1.01438e-06
-0.0048874
1.27981e-06
-0.00546479
1.58215e-06
-0.00604269
1.86192e-06
-0.00662184
2.17253e-06
-0.00720124
2.42684e-06
-0.00778261
2.70877e-06
-0.00836359
2.89064e-06
-0.00894773
3.10202e-06
-0.00953022
3.15384e-06
-0.0101179
3.23151e-06
-0.0107012
3.04416e-06
-0.011294
2.96609e-06
-0.0118776
2.6203e-06
-0.0124752
2.18791e-06
-0.0130604
1.62246e-06
-0.0136618
9.20233e-07
-0.000286607
-0.000859795
2.78442e-08
-0.00143313
1.10387e-07
-0.00200666
2.47569e-07
-0.00258049
4.37648e-07
-0.00315466
6.76369e-07
-0.00372929
9.58282e-07
-0.00430445
1.27716e-06
-0.00488016
1.62244e-06
-0.00545665
1.99269e-06
-0.00603369
2.36511e-06
-0.00661192
2.74378e-06
-0.00719045
3.09025e-06
-0.00777086
3.43098e-06
-0.00835097
3.69348e-06
-0.0089341
3.94432e-06
-0.00951574
4.04554e-06
-0.0101023
4.13096e-06
-0.0106849
3.96329e-06
-0.0112763
3.92041e-06
-0.0118593
3.27311e-06
-0.0124557
2.97824e-06
-0.0130401
2.05881e-06
-0.0136404
1.25168e-06
-0.000286243
-0.000858706
3.3062e-08
-0.00143131
1.31941e-07
-0.00200412
2.96246e-07
-0.00257721
5.22622e-07
-0.00315065
8.06574e-07
-0.00372453
1.14163e-06
-0.00429894
1.52289e-06
-0.00487389
1.93704e-06
-0.00544961
2.37742e-06
-0.00602587
2.82392e-06
-0.00660331
3.27583e-06
-0.00718105
3.69474e-06
-0.00776062
4.10054e-06
-0.00833994
4.42465e-06
-0.00892215
4.72455e-06
-0.00950302
4.86528e-06
-0.0100885
4.97476e-06
-0.0106706
4.82512e-06
-0.0112607
4.70428e-06
-0.0118431
4.14048e-06
-0.0124384
3.56544e-06
-0.013022
2.63974e-06
-0.0136212
1.53562e-06
-0.000285911
-0.000857712
3.81911e-08
-0.00142965
1.53026e-07
-0.00200179
3.42258e-07
-0.00257421
6.03367e-07
-0.00314697
9.2986e-07
-0.00372016
1.31639e-06
-0.00429387
1.74906e-06
-0.00486812
2.21963e-06
-0.00544312
2.72242e-06
-0.00601865
3.24099e-06
-0.00659533
3.75793e-06
-0.00717233
4.24022e-06
-0.0077511
4.70263e-06
-0.00832966
5.08131e-06
-0.008911
5.41969e-06
-0.00949111
5.59582e-06
-0.0100756
5.72339e-06
-0.010657
5.56299e-06
-0.0112459
5.42992e-06
-0.0118278
4.74894e-06
-0.0124218
4.44256e-06
-0.0130047
2.98937e-06
-0.0136028
1.79063e-06
-0.000285625
-0.000856856
4.38148e-08
-0.00142822
1.7344e-07
-0.00199978
3.87156e-07
-0.00257162
6.80797e-07
-0.00314379
1.047e-06
-0.00371638
1.47804e-06
-0.00428948
1.9664e-06
-0.00486309
2.49916e-06
-0.00543746
3.0588e-06
-0.00601234
3.62388e-06
-0.00658834
4.19813e-06
-0.00716467
4.74218e-06
-0.00774271
5.2593e-06
-0.00832058
5.68978e-06
-0.00890112
6.06098e-06
-0.00948054
6.26234e-06
-0.0100641
6.39838e-06
-0.0106449
6.23975e-06
-0.0112327
6.04972e-06
-0.011814
5.38075e-06
-0.0124067
4.28677e-06
-0.012989
3.41909e-06
-0.0135859
2.01306e-06
-0.000285362
-0.000856068
4.86683e-08
-0.00142691
1.9264e-07
-0.00199793
4.29307e-07
-0.00256923
7.55486e-07
-0.00314085
1.16322e-06
-0.00371288
1.64533e-06
-0.00428542
2.1819e-06
-0.00485845
2.76521e-06
-0.00543222
3.37721e-06
-0.00600647
4.01339e-06
-0.00658182
4.64466e-06
-0.00715749
5.22005e-06
-0.00773483
5.77686e-06
-0.00831202
6.25337e-06
-0.00889179
6.64828e-06
-0.00947052
6.8678e-06
-0.0100532
6.99944e-06
-0.0106334
6.83332e-06
-0.01122
6.60219e-06
-0.0118008
5.8243e-06
-0.0123922
5.10313e-06
-0.0129738
3.69247e-06
-0.0135695
2.21826e-06
-0.000285134
-0.000855387
5.32076e-08
-0.00142577
2.10718e-07
-0.00199634
4.71413e-07
-0.00256717
8.28657e-07
-0.00313832
1.27428e-06
-0.00370987
1.79545e-06
-0.00428191
2.3936e-06
-0.00485443
3.04246e-06
-0.00542766
3.72931e-06
-0.00600137
4.40152e-06
-0.00657616
5.07175e-06
-0.00715122
5.73404e-06
-0.00772792
6.33329e-06
-0.00830448
6.78758e-06
-0.00888353
7.20539e-06
-0.00946163
7.44315e-06
-0.0100435
7.56281e-06
-0.0106231
7.38163e-06
-0.0112086
7.09656e-06
-0.0117888
6.25479e-06
-0.0123792
5.42388e-06
-0.0129601
3.92846e-06
-0.0135545
2.31841e-06
-0.000284921
-0.00085475
5.7765e-08
-0.00142471
2.29259e-07
-0.00199484
5.11205e-07
-0.00256523
8.9966e-07
-0.00313594
1.38449e-06
-0.00370702
1.9571e-06
-0.00427859
2.59527e-06
-0.00485063
3.2891e-06
-0.00542337
4.01884e-06
-0.00599656
4.77329e-06
-0.00657079
5.51859e-06
-0.00714531
6.21151e-06
-0.00772141
6.83837e-06
-0.00829735
7.38543e-06
-0.0088757
7.80144e-06
-0.00945317
8.02032e-06
-0.0100342
8.13308e-06
-0.0106132
7.9345e-06
-0.0111976
7.59833e-06
-0.0117774
6.73626e-06
-0.0123665
5.81261e-06
-0.0129468
4.18447e-06
-0.0135399
2.40978e-06
-0.000284732
-0.000854184
6.18326e-08
-0.00142376
2.44836e-07
-0.00199351
5.46366e-07
-0.00256351
9.60676e-07
-0.00313381
1.47719e-06
-0.00370448
2.08488e-06
-0.00427563
2.77172e-06
-0.00484721
3.51682e-06
-0.00541948
4.29936e-06
-0.00599219
5.09615e-06
-0.00656592
5.88881e-06
-0.00713992
6.63896e-06
-0.00771544
7.34041e-06
-0.00829085
7.91463e-06
-0.00886854
8.39185e-06
-0.00944541
8.65832e-06
-0.0100257
8.77723e-06
-0.010604
8.5709e-06
-0.0111875
8.20203e-06
-0.0117667
7.31023e-06
-0.0123547
6.29884e-06
-0.0129344
4.54296e-06
-0.0135264
2.68303e-06
-0.000284564
-0.000853682
6.54233e-08
-0.00142292
2.59744e-07
-0.00199232
5.79613e-07
-0.00256196
1.01899e-06
-0.0031319
1.56724e-06
-0.00370218
2.21214e-06
-0.00427292
2.93934e-06
-0.00484407
3.72806e-06
-0.00541589
4.55798e-06
-0.00598811
5.40763e-06
-0.00656133
6.24819e-06
-0.00713478
7.04566e-06
-0.00770973
7.78041e-06
-0.00828454
8.39809e-06
-0.00886157
8.89536e-06
-0.00943783
9.17934e-06
-0.0100173
9.29885e-06
-0.010595
9.07639e-06
-0.0111775
8.6897e-06
-0.0117562
7.71928e-06
-0.0123429
6.70361e-06
-0.012922
4.84533e-06
-0.0135128
2.92538e-06
-0.000284417
-0.000853241
6.902e-08
-0.00142218
2.74015e-07
-0.00199128
6.11365e-07
-0.0025606
1.07452e-06
-0.00313022
1.6522e-06
-0.00370016
2.33252e-06
-0.00427054
3.09277e-06
-0.00484131
3.91999e-06
-0.00541275
4.79228e-06
-0.00598454
5.6754e-06
-0.00655732
6.55363e-06
-0.0071303
7.38623e-06
-0.00770472
8.15271e-06
-0.00827901
8.79551e-06
-0.00885542
9.3104e-06
-0.00943111
9.60522e-06
-0.0100099
9.71352e-06
-0.010587
9.47917e-06
-0.0111685
9.01765e-06
-0.0117467
8.0569e-06
-0.0123322
6.9234e-06
-0.0129109
4.99347e-06
-0.0135002
2.93642e-06
-0.000284281
-0.000852835
7.24216e-08
-0.0014215
2.876e-07
-0.00199032
6.41623e-07
-0.00255935
1.12754e-06
-0.00312866
1.73326e-06
-0.00369828
2.44535e-06
-0.00426833
3.24652e-06
-0.00483874
4.11554e-06
-0.00540979
5.02933e-06
-0.00598117
5.9608e-06
-0.0065535
6.88407e-06
-0.007126
7.75958e-06
-0.0076999
8.5666e-06
-0.00827366
9.24534e-06
-0.00884946
9.79078e-06
-0.00942456
1.01077e-05
-0.0100026
1.02307e-05
-0.0105791
9.99615e-06
-0.0111597
9.52651e-06
-0.0117374
8.52854e-06
-0.0123217
7.36284e-06
-0.0128998
5.35107e-06
-0.0134879
3.18409e-06
-0.000284158
-0.000852465
7.52324e-08
-0.00142088
2.98805e-07
-0.00198944
6.6662e-07
-0.0025582
1.17148e-06
-0.00312723
1.80088e-06
-0.00369654
2.54094e-06
-0.00426627
3.37217e-06
-0.00483633
4.27413e-06
-0.00540701
5.22236e-06
-0.00597798
6.18784e-06
-0.00654988
7.14438e-06
-0.00712192
8.05146e-06
-0.00769532
8.88648e-06
-0.00826855
9.58981e-06
-0.00884374
1.0153e-05
-0.00941826
1.04822e-05
-0.00999555
1.06056e-05
-0.0105715
1.03656e-05
-0.0111512
9.87462e-06
-0.0117283
8.84077e-06
-0.0123114
7.61496e-06
-0.0128891
5.56181e-06
-0.0134759
3.2996e-06
-0.000284056
-0.000852159
7.7596e-08
-0.00142036
3.0827e-07
-0.00198871
6.87791e-07
-0.00255724
1.20875e-06
-0.00312603
1.85836e-06
-0.00369508
2.6223e-06
-0.00426453
3.48074e-06
-0.00483429
4.41212e-06
-0.00540464
5.391e-06
-0.00597525
6.38767e-06
-0.00654676
7.37424e-06
-0.00711837
8.30985e-06
-0.00769129
9.16994e-06
-0.00826402
9.89551e-06
-0.00883864
1.04757e-05
-0.00941259
1.08184e-05
-0.00998916
1.09464e-05
-0.0105645
1.07058e-05
-0.0111432
1.01965e-05
-0.0117198
9.13941e-06
-0.0123016
7.86581e-06
-0.0128788
5.77041e-06
-0.013464
3.43045e-06
-0.000283953
-0.000851853
7.94113e-08
-0.00141985
3.15536e-07
-0.00198798
7.04062e-07
-0.00255628
1.2375e-06
-0.00312482
1.90285e-06
-0.00369361
2.68559e-06
-0.00426278
3.56528e-06
-0.00483222
4.52013e-06
-0.00540224
5.52348e-06
-0.00597249
6.54525e-06
-0.0065436
7.55547e-06
-0.00711478
8.51346e-06
-0.00768723
9.39151e-06
-0.00825947
1.01324e-05
-0.00883352
1.07206e-05
-0.00940692
1.10688e-05
-0.00998281
1.11919e-05
-0.0105575
1.09449e-05
-0.0111355
1.04118e-05
-0.0117115
9.33039e-06
-0.0122923
7.98509e-06
-0.0128689
5.81213e-06
-0.0134528
3.41871e-06
-0.000283874
-0.000851615
8.10716e-08
-0.00141944
3.22191e-07
-0.0019874
7.18971e-07
-0.00255552
1.26386e-06
-0.00312387
1.94373e-06
-0.00369243
2.74397e-06
-0.00426136
3.64385e-06
-0.00483053
4.62142e-06
-0.00540025
5.64928e-06
-0.00597016
6.69704e-06
-0.0065409
7.73338e-06
-0.00711167
8.71721e-06
-0.00768366
9.61861e-06
-0.0082554
1.03808e-05
-0.00882888
1.09852e-05
-0.00940171
1.13473e-05
-0.00997688
1.14775e-05
-0.0105509
1.1237e-05
-0.011128
1.07014e-05
-0.0117034
9.62157e-06
-0.012283
8.21996e-06
-0.012859
5.97014e-06
-0.0134415
3.49255e-06
-0.000283792
-0.000851371
8.23079e-08
-0.00141903
3.27144e-07
-0.00198682
7.30056e-07
-0.00255475
1.28341e-06
-0.00312289
1.97402e-06
-0.00369124
2.78723e-06
-0.00425993
3.70219e-06
-0.00482884
4.69687e-06
-0.00539826
5.74367e-06
-0.00596785
6.81195e-06
-0.00653823
7.86959e-06
-0.00710862
8.87488e-06
-0.00768018
9.7965e-06
-0.00825147
1.05765e-05
-0.00882442
1.11949e-05
-0.00939674
1.15668e-05
-0.00997127
1.17007e-05
-0.0105448
1.14617e-05
-0.011121
1.09203e-05
-0.0116958
9.83658e-06
-0.0122743
8.41536e-06
-0.0128498
6.12749e-06
-0.013431
3.58438e-06
-0.000283727
-0.000851175
8.3015e-08
-0.0014187
3.29968e-07
-0.00198634
7.3633e-07
-0.00255411
1.29444e-06
-0.00312208
1.99098e-06
-0.00369023
2.81134e-06
-0.0042587
3.73459e-06
-0.00482736
4.73896e-06
-0.00539651
5.79666e-06
-0.00596578
6.87744e-06
-0.0065358
7.94873e-06
-0.00710579
8.9689e-06
-0.00767689
9.90535e-06
-0.0082477
1.06997e-05
-0.00882009
1.13294e-05
-0.00939184
1.17094e-05
-0.00996568
1.18449e-05
-0.0105386
1.16043e-05
-0.0111139
1.10525e-05
-0.0116881
9.95966e-06
-0.0122654
8.52961e-06
-0.0128403
6.23315e-06
-0.0134203
3.6874e-06
-0.000283666
-0.000850991
8.32242e-08
-0.00141839
3.30815e-07
-0.0019859
7.38181e-07
-0.00255352
1.29759e-06
-0.00312133
1.99569e-06
-0.0036893
2.81788e-06
-0.00425758
3.74317e-06
-0.004826
4.75007e-06
-0.0053949
5.81078e-06
-0.00596389
6.89571e-06
-0.00653359
7.97213e-06
-0.00710323
8.99919e-06
-0.00767393
9.94366e-06
-0.00824431
1.07472e-05
-0.00881619
1.13855e-05
-0.00938743
1.17727e-05
-0.00996063
1.19104e-05
-0.0105329
1.16684e-05
-0.0111075
1.11054e-05
-0.0116811
1.00054e-05
-0.0122572
8.55544e-06
-0.0128316
6.26648e-06
-0.0134101
3.82801e-06
-0.000283608
-0.00085082
8.29954e-08
-0.0014181
3.29902e-07
-0.00198548
7.36108e-07
-0.00255296
1.29389e-06
-0.00312061
1.98987e-06
-0.0036884
2.80953e-06
-0.00425648
3.73183e-06
-0.00482467
4.73557e-06
-0.00539331
5.79295e-06
-0.005962
6.87511e-06
-0.00653137
7.94935e-06
-0.00710063
8.97609e-06
-0.0076709
9.92198e-06
-0.00824083
1.07298e-05
-0.00881218
1.13741e-05
-0.00938288
1.1769e-05
-0.00995544
1.19127e-05
-0.0105271
1.16742e-05
-0.0111009
1.11052e-05
-0.0116739
9.9974e-06
-0.0122489
8.52053e-06
-0.0128228
6.24834e-06
-0.0133999
3.48755e-06
-0.000283562
-0.000850682
8.23133e-08
-0.00141786
3.27208e-07
-0.00198514
7.30104e-07
-0.0025525
1.28337e-06
-0.00312002
1.9737e-06
-0.00368766
2.78675e-06
-0.00425556
3.70148e-06
-0.00482356
4.69705e-06
-0.00539197
5.74555e-06
-0.0059604
6.81888e-06
-0.00652947
7.88427e-06
-0.0070984
8.90369e-06
-0.00766829
9.84379e-06
-0.00823779
1.06495e-05
-0.00880864
1.12953e-05
-0.00937883
1.16965e-05
-0.00995073
1.18497e-05
-0.0105218
1.1623e-05
-0.0110948
1.10607e-05
-0.0116671
9.95482e-06
-0.012241
8.45468e-06
-0.0128144
6.21939e-06
-0.01339
3.72285e-06
-0.000283512
-0.000850532
8.1234e-08
-0.00141761
3.22928e-07
-0.00198477
7.20608e-07
-0.002552
1.26682e-06
-0.00311939
1.94846e-06
-0.00368686
2.7515e-06
-0.00425458
3.65502e-06
-0.00482237
4.63856e-06
-0.00539055
5.67416e-06
-0.0059587
6.73437e-06
-0.00652748
7.78621e-06
-0.00709606
8.79291e-06
-0.00766556
9.72125e-06
-0.00823465
1.05183e-05
-0.00880502
1.11593e-05
-0.00937471
1.15618e-05
-0.00994601
1.17233e-05
-0.0105165
1.15124e-05
-0.0110887
1.09705e-05
-0.0116604
9.88969e-06
-0.0122334
8.40868e-06
-0.0128063
6.17687e-06
-0.0133806
3.67023e-06
-0.000283474
-0.000850418
7.9773e-08
-0.00141741
3.17143e-07
-0.00198448
7.07784e-07
-0.00255162
1.24453e-06
-0.00311889
1.91458e-06
-0.00368622
2.70437e-06
-0.00425379
3.59329e-06
-0.00482138
4.56148e-06
-0.00538935
5.58095e-06
-0.00595725
6.62499e-06
-0.00652574
7.66032e-06
-0.007094
8.65116e-06
-0.00766312
9.56397e-06
-0.0082318
1.03478e-05
-0.00880167
1.09782e-05
-0.00937087
1.13762e-05
-0.00994153
1.15405e-05
-0.0105115
1.13429e-05
-0.0110828
1.08252e-05
-0.0116539
9.7798e-06
-0.0122258
8.33376e-06
-0.0127982
6.13322e-06
-0.013371
3.63698e-06
-0.000283432
-0.00085029
7.79942e-08
-0.00141719
3.10092e-07
-0.00198417
6.92142e-07
-0.00255119
1.21729e-06
-0.00311834
1.87316e-06
-0.00368554
2.64676e-06
-0.00425294
3.51793e-06
-0.00482035
4.4676e-06
-0.00538811
5.46803e-06
-0.00595577
6.49333e-06
-0.00652398
7.51015e-06
-0.00709193
8.48343e-06
-0.00766071
9.37913e-06
-0.00822901
1.01476e-05
-0.00879843
1.07639e-05
-0.00936718
1.11522e-05
-0.00993727
1.13122e-05
-0.0105067
1.1121e-05
-0.0110773
1.06234e-05
-0.0116477
9.6163e-06
-0.0122187
8.21855e-06
-0.0127905
6.09099e-06
-0.013362
3.60033e-06
-0.000283396
-0.000850184
7.59717e-08
-0.00141701
3.02061e-07
-0.0019839
6.74294e-07
-0.00255083
1.18617e-06
-0.00311787
1.8257e-06
-0.00368493
2.5806e-06
-0.00425219
3.43123e-06
-0.00481941
4.35949e-06
-0.00538696
5.33817e-06
-0.00595438
6.34244e-06
-0.00652231
7.33916e-06
-0.00708995
8.29422e-06
-0.00765836
9.17308e-06
-0.00822627
9.92701e-06
-0.00879522
1.05298e-05
-0.0093635
1.09077e-05
-0.00993299
1.10597e-05
-0.0105018
1.08677e-05
-0.0110717
1.03797e-05
-0.0116415
9.40029e-06
-0.0122115
8.05705e-06
-0.0127828
6.02999e-06
-0.013353
3.55376e-06
-0.000283361
-0.000850077
7.37621e-08
-0.00141683
2.93282e-07
-0.00198364
6.54748e-07
-0.00255047
1.15197e-06
-0.00311741
1.77337e-06
-0.00368435
2.50733e-06
-0.00425146
3.33477e-06
-0.00481853
4.23866e-06
-0.00538588
5.1925e-06
-0.00595308
6.17274e-06
-0.00652076
7.1469e-06
-0.00708812
8.08215e-06
-0.00765619
8.94403e-06
-0.00822374
9.68469e-06
-0.00879226
1.0277e-05
-0.00936011
1.06476e-05
-0.00992905
1.07941e-05
-0.0104974
1.06001e-05
-0.0110666
1.01138e-05
-0.0116358
9.14711e-06
-0.0122049
7.83258e-06
-0.0127755
5.8563e-06
-0.0133443
3.4738e-06
-0.000283325
-0.000849969
7.14486e-08
-0.00141664
2.8407e-07
-0.00198337
6.34198e-07
-0.00255011
1.11591e-06
-0.00311694
1.71801e-06
-0.00368375
2.42947e-06
-0.00425072
3.23177e-06
-0.00481762
4.10889e-06
-0.00538478
5.0351e-06
-0.00595175
5.98831e-06
-0.00651917
6.93688e-06
-0.00708623
7.84978e-06
-0.00765396
8.69319e-06
-0.00822114
9.4207e-06
-0.00878922
1.00052e-05
-0.00935662
1.03733e-05
-0.00992501
1.05215e-05
-0.0104929
1.03323e-05
-0.0110614
9.85251e-06
-0.01163
8.89637e-06
-0.0121983
7.59813e-06
-0.0127683
5.6562e-06
-0.0133358
3.36173e-06
-0.000283293
-0.000849875
6.90502e-08
-0.00141648
2.74518e-07
-0.00198314
6.12857e-07
-0.00254979
1.07839e-06
-0.00311653
1.66024e-06
-0.00368323
2.34792e-06
-0.00425007
3.1234e-06
-0.00481681
3.97162e-06
-0.0053838
4.86754e-06
-0.00595057
5.79054e-06
-0.00651775
6.70988e-06
-0.00708453
7.59655e-06
-0.00765194
8.41789e-06
-0.00821878
9.12955e-06
-0.00878644
9.70574e-06
-0.00935341
1.00734e-05
-0.00992125
1.02304e-05
-0.0104886
1.00555e-05
-0.0110564
9.59591e-06
-0.0116245
8.65973e-06
-0.0121918
7.38033e-06
-0.0127613
5.46757e-06
-0.0133275
3.20522e-06
-0.000283258
-0.000849768
6.65954e-08
-0.0014163
2.6473e-07
-0.00198287
5.90971e-07
-0.00254944
1.03985e-06
-0.00311607
1.60077e-06
-0.00368265
2.26376e-06
-0.00424936
3.01122e-06
-0.00481594
3.82892e-06
-0.00538274
4.69245e-06
-0.0059493
5.58247e-06
-0.00651625
6.46914e-06
-0.00708277
7.3253e-06
-0.00764987
8.11971e-06
-0.00821637
8.81021e-06
-0.00878362
9.3735e-06
-0.0093502
9.7376e-06
-0.00991751
9.90471e-06
-0.0104844
9.74907e-06
-0.0110515
9.32509e-06
-0.0116191
8.42591e-06
-0.0121856
7.19003e-06
-0.0127546
5.30749e-06
-0.0133197
3.03202e-06
-0.000283227
-0.000849675
6.40615e-08
-0.00141614
2.54627e-07
-0.00198264
5.68367e-07
-0.00254913
1.00002e-06
-0.00311567
1.53927e-06
-0.00368214
2.17659e-06
-0.00424872
2.89482e-06
-0.00481515
3.68049e-06
-0.00538179
4.50976e-06
-0.00594815
5.36442e-06
-0.00651486
6.21544e-06
-0.00708112
7.03719e-06
-0.00764791
7.79972e-06
-0.00821409
8.46292e-06
-0.00878094
9.00623e-06
-0.00934711
9.35897e-06
-0.00991389
9.53017e-06
-0.0104803
9.38964e-06
-0.0110467
9.0069e-06
-0.0116138
8.1553e-06
-0.0121795
6.99956e-06
-0.0127478
5.18614e-06
-0.0133119
3.01586e-06
-0.000283192
-0.000849572
6.14126e-08
-0.00141596
2.44068e-07
-0.00198239
5.44749e-07
-0.00254878
9.58374e-07
-0.00311523
1.47492e-06
-0.00368159
2.08533e-06
-0.00424804
2.77284e-06
-0.00481433
3.5247e-06
-0.0053808
4.3177e-06
-0.00594697
5.13451e-06
-0.00651346
5.94703e-06
-0.00707948
6.73068e-06
-0.00764599
7.45694e-06
-0.00821187
8.08678e-06
-0.00877834
8.60269e-06
-0.00934415
8.93426e-06
-0.00991044
9.09827e-06
-0.0104764
8.96021e-06
-0.0110422
8.60896e-06
-0.0116088
7.797e-06
-0.0121736
6.72949e-06
-0.0127414
5.00008e-06
-0.0133045
2.96879e-06
-0.000283159
-0.000849473
5.85914e-08
-0.0014158
2.32814e-07
-0.00198214
5.19572e-07
-0.00254845
9.13992e-07
-0.0031148
1.40633e-06
-0.00368105
1.98805e-06
-0.00424738
2.64272e-06
-0.00481352
3.35846e-06
-0.00537982
4.11243e-06
-0.00594579
4.88867e-06
-0.00651206
5.65913e-06
-0.00707784
6.4016e-06
-0.00764405
7.08672e-06
-0.00820962
7.67943e-06
-0.00877571
8.15991e-06
-0.00934117
8.46437e-06
-0.00990696
8.60617e-06
-0.0104725
8.4606e-06
-0.0110377
8.11646e-06
-0.0116038
7.3324e-06
-0.0121678
6.33061e-06
-0.0127351
4.68784e-06
-0.0132971
2.80291e-06
-0.000283126
-0.000849372
5.58621e-08
-0.00141563
2.21919e-07
-0.0019819
4.95213e-07
-0.00254812
8.71092e-07
-0.00311438
1.34012e-06
-0.00368052
1.89429e-06
-0.00424673
2.51753e-06
-0.00481273
3.19892e-06
-0.00537887
3.91576e-06
-0.00594466
4.65399e-06
-0.00651073
5.38488e-06
-0.00707627
6.08981e-06
-0.00764221
6.73679e-06
-0.0082075
7.29748e-06
-0.00877323
7.74535e-06
-0.00933836
8.02881e-06
-0.00990368
8.14763e-06
-0.0104689
7.9988e-06
-0.0110334
7.64932e-06
-0.0115991
6.89199e-06
-0.0121623
5.92749e-06
-0.0127292
4.36273e-06
-0.01329
2.5913e-06
-0.00028309
-0.000849264
5.34582e-08
-0.00141544
2.12336e-07
-0.00198163
4.73821e-07
-0.00254777
8.33508e-07
-0.00311392
1.2823e-06
-0.00367995
1.81269e-06
-0.00424603
2.40912e-06
-0.00481189
3.06143e-06
-0.00537786
3.74763e-06
-0.00594347
4.45451e-06
-0.00650932
5.15456e-06
-0.00707463
5.82987e-06
-0.00764029
6.45047e-06
-0.0082053
6.9881e-06
-0.00877068
7.41963e-06
-0.00933547
7.69157e-06
-0.00990034
7.80951e-06
-0.0104652
7.6642e-06
-0.0110291
7.33321e-06
-0.0115945
6.59829e-06
-0.0121568
5.68741e-06
-0.0127234
4.17148e-06
-0.0132832
2.52728e-06
-0.000283056
-0.000849163
5.08591e-08
-0.00141527
2.01974e-07
-0.00198139
4.5069e-07
-0.00254744
7.92856e-07
-0.0031135
1.21974e-06
-0.00367942
1.72442e-06
-0.00424539
2.29186e-06
-0.0048111
2.91266e-06
-0.00537693
3.56568e-06
-0.00594236
4.23853e-06
-0.00650801
4.90505e-06
-0.00707309
5.5479e-06
-0.0076385
6.13951e-06
-0.00820322
6.65134e-06
-0.00876827
7.06463e-06
-0.00933272
7.32348e-06
-0.00989715
7.44146e-06
-0.0104616
7.30071e-06
-0.011025
6.99246e-06
-0.01159
6.27977e-06
-0.0121515
5.41178e-06
-0.0127178
3.93704e-06
-0.0132766
2.43642e-06
-0.000283018
-0.000849049
4.80622e-08
-0.00141508
1.90821e-07
-0.00198111
4.25796e-07
-0.00254707
7.49108e-07
-0.00311304
1.15241e-06
-0.00367885
1.6294e-06
-0.00424469
2.16559e-06
-0.00481026
2.75246e-06
-0.00537593
3.36972e-06
-0.00594118
4.00588e-06
-0.00650663
4.63623e-06
-0.0070715
5.24392e-06
-0.00763666
5.80398e-06
-0.00820112
6.28733e-06
-0.00876584
6.6799e-06
-0.00933
6.92328e-06
-0.009894
7.04026e-06
-0.0104582
6.90504e-06
-0.0110209
6.62758e-06
-0.0115856
5.94438e-06
-0.0121464
5.12504e-06
-0.0127125
3.67242e-06
-0.0132702
2.24403e-06
-0.000282982
-0.00084894
4.50673e-08
-0.00141489
1.78876e-07
-0.00198085
3.99135e-07
-0.00254672
7.02243e-07
-0.00311259
1.08027e-06
-0.00367829
1.52758e-06
-0.00424401
2.0303e-06
-0.00480945
2.58079e-06
-0.00537497
3.15978e-06
-0.00594005
3.75658e-06
-0.0065053
4.34832e-06
-0.00706995
4.91827e-06
-0.00763485
5.44488e-06
-0.00819906
5.89734e-06
-0.00876345
6.26784e-06
-0.00932732
6.49297e-06
-0.00989088
6.607e-06
-0.0104547
6.4741e-06
-0.0110169
6.22976e-06
-0.0115813
5.58017e-06
-0.0121413
4.86636e-06
-0.0127072
3.63642e-06
-0.0132639
2.12503e-06
-0.000282942
-0.000848821
4.18674e-08
-0.00141469
1.66116e-07
-0.00198056
3.70657e-07
-0.00254634
6.52192e-07
-0.00311211
1.00322e-06
-0.00367771
1.41884e-06
-0.0042433
1.88576e-06
-0.00480861
2.39736e-06
-0.00537398
2.93547e-06
-0.00593889
3.49015e-06
-0.00650396
4.04076e-06
-0.00706841
4.57019e-06
-0.00763307
5.06151e-06
-0.00819705
5.48072e-06
-0.00876113
5.82889e-06
-0.00932473
6.0339e-06
-0.00988789
6.14552e-06
-0.0104515
6.0105e-06
-0.0110131
5.78901e-06
-0.0115772
5.16377e-06
-0.0121364
4.57272e-06
-0.0127022
3.30899e-06
-0.0132579
1.97837e-06
-0.000282901
-0.000848699
3.84651e-08
-0.00141448
1.52547e-07
-0.00198026
3.40369e-07
-0.00254595
5.98938e-07
-0.00311162
9.21242e-07
-0.0036771
1.30315e-06
-0.00424258
1.73197e-06
-0.00480775
2.20216e-06
-0.00537296
2.69685e-06
-0.00593771
3.2066e-06
-0.00650258
3.71364e-06
-0.00706684
4.19957e-06
-0.00763125
4.65383e-06
-0.008195
5.03695e-06
-0.00875876
5.36303e-06
-0.00932211
5.54628e-06
-0.00988485
5.66104e-06
-0.0104482
5.52364e-06
-0.0110092
5.33318e-06
-0.0115733
4.73016e-06
-0.0121316
4.15333e-06
-0.0126971
3.03824e-06
-0.0132521
1.80864e-06
-0.000282859
-0.000848572
3.4859e-08
-0.00141427
1.38152e-07
-0.00197996
3.08211e-07
-0.00254555
5.42381e-07
-0.00311112
8.34139e-07
-0.00367649
1.18023e-06
-0.00424185
1.56857e-06
-0.00480688
1.99472e-06
-0.00537195
2.44335e-06
-0.00593655
2.90521e-06
-0.00650124
3.3663e-06
-0.00706531
3.80547e-06
-0.00762949
4.22106e-06
-0.00819303
4.56452e-06
-0.00875648
4.86857e-06
-0.00931962
5.02582e-06
-0.00988194
5.14811e-06
-0.0104451
5.00541e-06
-0.0110055
4.8996e-06
-0.0115695
4.50004e-06
-0.0121271
3.75196e-06
-0.0126923
2.77228e-06
-0.0132465
1.64359e-06
-0.000282812
-0.000848433
3.10611e-08
-0.00141404
1.22964e-07
-0.00197963
2.74229e-07
-0.00254511
4.82568e-07
-0.00311057
7.41933e-07
-0.00367583
1.05013e-06
-0.00424106
1.39568e-06
-0.00480596
1.77519e-06
-0.00537088
2.17515e-06
-0.00593532
2.58602e-06
-0.00649982
2.99904e-06
-0.00706371
3.38808e-06
-0.00762766
3.76448e-06
-0.00819101
4.06405e-06
-0.00875416
4.34852e-06
-0.00931711
4.47309e-06
-0.00987901
4.60825e-06
-0.010442
4.46616e-06
-0.0110018
4.39403e-06
-0.0115657
3.93057e-06
-0.0121227
3.35404e-06
-0.0126877
2.49488e-06
-0.0132412
1.47352e-06
-0.000282765
-0.000848291
2.70626e-08
-0.0014138
1.06953e-07
-0.00197929
2.38357e-07
-0.00254468
4.19412e-07
-0.00311003
6.44557e-07
-0.00367516
9.12848e-07
-0.00424027
1.21332e-06
-0.00480504
1.5436e-06
-0.00536981
1.89217e-06
-0.0059341
2.24862e-06
-0.00649842
2.61196e-06
-0.00706215
2.94694e-06
-0.00762586
3.28588e-06
-0.00818904
3.535e-06
-0.00875186
3.80837e-06
-0.00931468
3.89473e-06
-0.00987613
4.05217e-06
-0.0104391
3.68782e-06
-0.0109983
3.7459e-06
-0.0115619
3.43261e-06
-0.0121185
2.92856e-06
-0.0126831
2.18904e-06
-0.013236
1.29351e-06
-0.000282713
-0.000848135