/*--------------------------------*- C++ -*----------------------------------*\
  =========                 |
  \\      /  F ield         | OpenFOAM: The Open Source CFD Toolbox
   \\    /   O peration     | Website:  https://openfoam.org
    \\  /    A nd           | Version:  10
     \\/     M anipulation  |
\*---------------------------------------------------------------------------*/
FoamFile
{
    format      ascii;
    class       volScalarField;
    location    "0.07";
    object      rho;
}
// * * * * * * * * * * * * * * * * * * * * * * * * * * * * * * * * * * * * * //

dimensions      [1 -3 0 0 0 0 0];

internalField   nonuniform List<scalar> 
4176
(
0.0391765
0.0391732
0.0391787
0.0391861
0.039197
0.0392092
0.0392253
0.0392426
0.0392635
0.0392862
0.0393112
0.0393398
0.039368
0.0394032
0.0394334
0.0394767
0.0395066
0.0395603
0.0395877
0.0396532
0.0396776
0.0397534
0.0397688
0.0398509
0.0380344
0.0380313
0.0380365
0.0380439
0.0380549
0.0380673
0.0380837
0.0381013
0.0381226
0.0381457
0.0381714
0.0382004
0.0382295
0.0382651
0.0382964
0.0383399
0.0383707
0.0384253
0.0384514
0.0385223
0.0385397
0.0386301
0.0386425
0.0387491
0.0374268
0.0374247
0.0374303
0.0374381
0.0374496
0.0374626
0.0374798
0.0374981
0.0375205
0.0375445
0.0375715
0.0376016
0.0376322
0.037669
0.037702
0.0377466
0.0377795
0.0378347
0.0378637
0.0379332
0.037954
0.0380406
0.0380542
0.0381587
0.0367903
0.036788
0.0367936
0.0368015
0.0368132
0.0368264
0.0368439
0.0368627
0.0368856
0.0369102
0.0369378
0.0369686
0.0370001
0.0370377
0.0370719
0.0371173
0.0371518
0.0372074
0.0372395
0.037307
0.0373335
0.0374174
0.0374308
0.0375295
0.0361346
0.036133
0.0361388
0.0361467
0.0361586
0.0361719
0.0361897
0.0362085
0.0362319
0.0362564
0.0362847
0.0363153
0.0363477
0.0363853
0.0364203
0.0364659
0.0365013
0.0365573
0.0365901
0.0366592
0.0366847
0.0367721
0.0367856
0.0368877
0.0357319
0.0357302
0.0357359
0.0357437
0.0357557
0.0357688
0.0357868
0.0358053
0.035829
0.0358531
0.035882
0.0359122
0.0359451
0.0359823
0.0360179
0.0360634
0.0360993
0.0361558
0.0361881
0.03626
0.0362827
0.0363732
0.036387
0.0364922
0.0352557
0.0352546
0.0352605
0.0352681
0.0352803
0.035293
0.0353115
0.0353292
0.0353537
0.0353767
0.0354065
0.0354354
0.0354694
0.0355055
0.0355418
0.0355866
0.035623
0.0356795
0.035711
0.0357841
0.0358066
0.0358967
0.0359109
0.0360165
0.0350325
0.0350311
0.035037
0.0350442
0.0350568
0.0350686
0.0350879
0.0351041
0.03513
0.035151
0.0351826
0.0352091
0.035245
0.0352787
0.0353165
0.0353599
0.0353966
0.0354538
0.0354839
0.0355571
0.0355802
0.0356696
0.0356843
0.0357896
0.0347185
0.0347171
0.0347233
0.03473
0.034743
0.0347539
0.0347738
0.0347889
0.0348155
0.034835
0.0348677
0.0348921
0.0349298
0.0349606
0.0350008
0.0350414
0.0350784
0.0351354
0.0351652
0.0352374
0.035261
0.0353493
0.0353645
0.0354691
0.0346148
0.0346138
0.0346195
0.0346269
0.0346387
0.0346508
0.0346691
0.0346855
0.0347103
0.0347311
0.0347621
0.0347877
0.0348237
0.0348555
0.0348941
0.034935
0.0349727
0.0350274
0.0350579
0.0351293
0.0351535
0.0352406
0.0352563
0.0353602
0.0344257
0.0344248
0.0344302
0.0344378
0.0344491
0.0344616
0.0344787
0.034496
0.034519
0.0345412
0.0345697
0.034597
0.0346305
0.0346635
0.0347006
0.034741
0.0347791
0.0348307
0.0348629
0.0349327
0.034957
0.0350425
0.0350586
0.0351611
0.0343934
0.0343927
0.0343981
0.0344056
0.0344168
0.0344291
0.0344461
0.0344632
0.0344859
0.0345078
0.0345361
0.034563
0.0345962
0.0346287
0.0346656
0.0347052
0.0347436
0.0347934
0.0348273
0.0348944
0.0349195
0.0350036
0.0350203
0.0351217
0.0343007
0.0343001
0.0343054
0.0343128
0.0343237
0.034336
0.0343525
0.0343696
0.0343916
0.0344134
0.0344409
0.0344676
0.0344999
0.034532
0.0345682
0.034607
0.0346452
0.0346929
0.0347282
0.0347924
0.0348181
0.0349004
0.0349175
0.0350171
0.0343193
0.0343188
0.034324
0.0343314
0.0343421
0.0343543
0.0343705
0.0343874
0.034409
0.0344306
0.0344576
0.034484
0.0345159
0.0345476
0.0345834
0.0346214
0.0346594
0.034706
0.0347418
0.0348036
0.0348307
0.034911
0.0349285
0.0350266
0.0343005
0.0343001
0.0343052
0.0343125
0.0343229
0.0343349
0.0343507
0.0343673
0.0343884
0.0344096
0.0344359
0.0344618
0.034493
0.0345239
0.0345591
0.034596
0.0346336
0.0346786
0.034715
0.0347739
0.0348017
0.0348795
0.0348974
0.0349931
0.0343601
0.0343597
0.0343647
0.0343718
0.0343821
0.0343939
0.0344093
0.0344257
0.0344464
0.0344674
0.0344931
0.0345186
0.0345492
0.0345796
0.0346143
0.0346504
0.0346877
0.0347314
0.0347681
0.0348248
0.0348537
0.0349285
0.034947
0.035041
0.0343999
0.0343994
0.0344043
0.0344113
0.0344213
0.0344329
0.034448
0.0344641
0.0344842
0.0345046
0.0345298
0.0345547
0.0345845
0.0346141
0.034648
0.034683
0.0347197
0.0347618
0.0347986
0.0348526
0.0348818
0.0349541
0.0349727
0.0350635
0.0344943
0.0344941
0.0344989
0.0345059
0.0345157
0.0345271
0.0345419
0.0345577
0.0345775
0.0345977
0.0346223
0.0346467
0.034676
0.034705
0.0347382
0.0347724
0.0348086
0.0348494
0.0348861
0.0349378
0.0349678
0.0350375
0.0350564
0.0351449
0.0345829
0.0345827
0.0345874
0.0345942
0.0346038
0.0346149
0.0346293
0.0346448
0.034664
0.0346836
0.0347076
0.0347314
0.03476
0.0347881
0.0348207
0.0348537
0.0348892
0.0349284
0.0349648
0.0350139
0.0350445
0.0351111
0.0351302
0.0352158
0.0347051
0.0347049
0.0347095
0.0347161
0.0347254
0.0347362
0.0347502
0.0347652
0.0347839
0.034803
0.0348263
0.0348495
0.0348774
0.0349048
0.0349368
0.034969
0.0350042
0.0350423
0.0350785
0.035126
0.0351568
0.0352216
0.0352407
0.0353251
0.0348435
0.0348433
0.0348477
0.0348541
0.0348631
0.0348736
0.0348871
0.0349016
0.0349196
0.034938
0.0349605
0.0349828
0.0350096
0.0350358
0.0350666
0.0350973
0.0351313
0.0351674
0.0352027
0.0352471
0.0352781
0.0353386
0.0353583
0.0354382
0.0349984
0.0349983
0.0350025
0.0350088
0.0350175
0.0350277
0.0350408
0.0350549
0.0350723
0.0350902
0.035112
0.0351336
0.0351597
0.0351851
0.0352152
0.0352448
0.0352781
0.035313
0.0353479
0.0353902
0.0354216
0.0354794
0.0354996
0.0355766
0.0351664
0.0351663
0.0351704
0.0351765
0.0351849
0.0351948
0.0352074
0.0352211
0.0352379
0.0352552
0.0352764
0.0352973
0.0353226
0.0353472
0.0353764
0.035405
0.0354374
0.0354709
0.0355051
0.0355458
0.035577
0.0356322
0.0356527
0.035727
0.035356
0.0353559
0.0353598
0.0353657
0.0353736
0.035383
0.035395
0.0354079
0.0354239
0.0354403
0.0354603
0.0354801
0.0355042
0.0355274
0.0355552
0.0355822
0.0356132
0.0356447
0.0356778
0.0357157
0.0357468
0.0357982
0.0358189
0.0358896
0.0355574
0.0355574
0.0355612
0.0355669
0.0355746
0.0355837
0.0355953
0.0356079
0.0356234
0.0356393
0.0356588
0.0356779
0.0357013
0.0357238
0.0357509
0.0357769
0.0358073
0.0358374
0.0358698
0.0359059
0.0359368
0.0359851
0.0360059
0.0360725
0.0357765
0.0357763
0.0357799
0.0357853
0.0357925
0.0358011
0.0358119
0.0358237
0.0358382
0.0358531
0.0358713
0.0358892
0.0359113
0.0359323
0.035958
0.0359823
0.0360112
0.0360395
0.0360707
0.0361045
0.036135
0.0361806
0.0362013
0.0362651
0.0360118
0.0360117
0.0360152
0.0360204
0.0360273
0.0360356
0.036046
0.0360573
0.0360712
0.0360855
0.036103
0.0361201
0.0361413
0.0361613
0.036186
0.0362089
0.0362368
0.0362632
0.0362933
0.0363245
0.0363544
0.036396
0.0364168
0.0364759
0.0362587
0.0362586
0.0362618
0.0362667
0.0362732
0.036281
0.0362906
0.0363012
0.0363142
0.0363276
0.036344
0.03636
0.03638
0.0363987
0.0364222
0.0364438
0.0364705
0.0364954
0.0365245
0.0365541
0.0365832
0.0366224
0.0366432
0.0366999
0.0365259
0.0365258
0.0365288
0.0365335
0.0365396
0.036547
0.0365561
0.036566
0.0365782
0.0365907
0.0366061
0.036621
0.0366397
0.036657
0.036679
0.0366989
0.036724
0.0367467
0.0367742
0.0368009
0.036829
0.0368637
0.0368845
0.0369365
0.0368019
0.0368018
0.0368047
0.0368091
0.0368148
0.0368218
0.0368303
0.0368396
0.0368511
0.0368628
0.0368773
0.0368913
0.0369091
0.0369253
0.0369463
0.0369648
0.0369889
0.0370102
0.0370368
0.0370619
0.0370891
0.0371213
0.0371419
0.0371905
0.037098
0.0370978
0.0371005
0.0371046
0.0371099
0.0371162
0.037124
0.0371326
0.0371431
0.0371537
0.037167
0.0371797
0.0371959
0.0372105
0.0372298
0.0372464
0.0372688
0.0372877
0.0373127
0.0373349
0.037361
0.0373893
0.0374099
0.0374539
0.0374049
0.0374047
0.0374072
0.0374111
0.037416
0.037422
0.0374293
0.0374373
0.0374471
0.0374571
0.0374696
0.0374814
0.0374967
0.0375102
0.0375285
0.0375437
0.0375649
0.0375822
0.0376059
0.037626
0.037651
0.0376763
0.0376966
0.0377361
0.0377278
0.0377275
0.0377298
0.0377334
0.0377378
0.0377432
0.0377497
0.0377569
0.0377657
0.0377746
0.0377858
0.0377962
0.0378102
0.0378221
0.0378388
0.0378522
0.0378718
0.0378869
0.0379091
0.0379267
0.0379504
0.0379729
0.037993
0.0380287
0.0380658
0.0380656
0.0380677
0.038071
0.038075
0.0380801
0.038086
0.0380926
0.0381007
0.0381088
0.0381191
0.0381285
0.0381414
0.038152
0.0381675
0.0381793
0.0381975
0.0382105
0.0382311
0.0382461
0.0382684
0.0382872
0.038307
0.0383374
0.0384155
0.0384152
0.0384171
0.0384202
0.0384237
0.0384282
0.0384334
0.0384393
0.0384464
0.0384535
0.0384628
0.038471
0.0384826
0.0384918
0.0385061
0.0385162
0.0385331
0.0385443
0.0385637
0.0385765
0.0385975
0.0386137
0.0386331
0.0386597
0.0387833
0.038783
0.0387847
0.0387875
0.0387907
0.0387947
0.0387993
0.0388045
0.0388107
0.0388169
0.038825
0.0388321
0.0388424
0.0388501
0.0388628
0.038871
0.0388864
0.0388952
0.038913
0.0389229
0.0389424
0.0389549
0.0389735
0.038995
0.0391611
0.0391608
0.0391624
0.0391649
0.0391677
0.0391713
0.0391753
0.0391798
0.0391853
0.0391906
0.0391978
0.0392038
0.0392131
0.0392195
0.0392311
0.0392378
0.039252
0.0392591
0.0392757
0.0392835
0.0393018
0.0393118
0.0393292
0.0393465
0.039557
0.0395566
0.039558
0.0395603
0.0395626
0.0395656
0.039569
0.0395727
0.0395773
0.0395816
0.0395876
0.0395922
0.0396001
0.0396049
0.0396149
0.0396196
0.0396321
0.0396369
0.0396519
0.039657
0.0396739
0.0396806
0.0396971
0.0397097
0.0399644
0.0399641
0.0399653
0.0399673
0.0399693
0.039972
0.0399748
0.039978
0.0399818
0.0399854
0.0399905
0.0399942
0.040001
0.0400045
0.0400133
0.0400165
0.0400277
0.0400305
0.0400441
0.0400468
0.0400624
0.0400661
0.0400817
0.0400894
0.0403873
0.040387
0.040388
0.0403897
0.0403913
0.0403934
0.0403955
0.040398
0.0404009
0.0404034
0.0404074
0.0404098
0.0404153
0.0404173
0.0404247
0.040426
0.0404358
0.0404363
0.0404485
0.0404486
0.0404629
0.0404638
0.0404784
0.0404824
0.0408247
0.0408244
0.0408252
0.0408268
0.0408279
0.0408297
0.0408313
0.0408331
0.0408353
0.040837
0.0408401
0.0408414
0.0408458
0.0408464
0.0408525
0.040852
0.0408604
0.0408586
0.0408693
0.0408665
0.0408794
0.0408766
0.04089
0.04089
0.0412753
0.0412749
0.0412755
0.0412768
0.0412776
0.0412788
0.0412798
0.0412809
0.0412823
0.0412831
0.0412851
0.0412853
0.0412886
0.0412878
0.0412928
0.0412906
0.0412977
0.0412939
0.0413035
0.0412981
0.0413099
0.0413041
0.0413165
0.0413127
0.0417419
0.0417415
0.041742
0.041743
0.0417434
0.0417442
0.0417445
0.0417449
0.0417455
0.0417453
0.0417464
0.0417454
0.0417474
0.0417451
0.0417487
0.0417445
0.0417503
0.041744
0.0417523
0.0417438
0.0417545
0.0417447
0.0417562
0.0417476
0.0422213
0.0422209
0.0422212
0.042222
0.042222
0.0422223
0.0422221
0.0422219
0.0422217
0.0422207
0.0422209
0.0422188
0.0422198
0.0422161
0.0422187
0.0422129
0.0422176
0.0422092
0.0422165
0.0422053
0.0422152
0.042202
0.042213
0.0421998
0.0427163
0.0427158
0.0427159
0.0427164
0.0427159
0.0427158
0.0427149
0.042714
0.0427129
0.0427109
0.04271
0.0427066
0.0427064
0.0427012
0.0427023
0.0426946
0.0426979
0.0426872
0.0426932
0.0426792
0.0426882
0.0426713
0.0426818
0.0426644
0.0432255
0.043225
0.0432249
0.0432252
0.0432244
0.0432239
0.0432224
0.0432209
0.043219
0.0432162
0.0432144
0.04321
0.0432086
0.0432021
0.043202
0.0431927
0.0431947
0.0431818
0.0431868
0.0431698
0.0431781
0.0431573
0.0431678
0.043145
0.0437484
0.0437478
0.0437476
0.0437476
0.0437463
0.0437453
0.0437432
0.0437409
0.0437382
0.0437344
0.0437315
0.0437259
0.0437234
0.0437154
0.0437141
0.0437028
0.0437037
0.0436884
0.0436924
0.0436725
0.0436802
0.0436557
0.0436666
0.043639
0.0442873
0.0442868
0.0442864
0.0442862
0.0442845
0.0442831
0.0442803
0.0442774
0.0442739
0.0442693
0.0442654
0.0442586
0.044255
0.0442454
0.0442429
0.0442298
0.0442294
0.0442117
0.0442147
0.0441914
0.0441985
0.0441694
0.0441809
0.044148
0.0448386
0.044838
0.0448374
0.0448369
0.0448349
0.044833
0.0448296
0.0448261
0.0448217
0.0448162
0.0448114
0.0448035
0.0447988
0.0447878
0.0447842
0.0447693
0.044768
0.0447478
0.0447502
0.0447238
0.0447309
0.0446975
0.0447093
0.0446718
0.0454064
0.0454058
0.045405
0.0454043
0.0454019
0.0453995
0.0453955
0.0453913
0.0453861
0.0453796
0.0453738
0.0453646
0.0453588
0.0453462
0.0453415
0.0453244
0.045322
0.0452992
0.0453008
0.0452707
0.0452782
0.0452398
0.0452516
0.0452095
0.0459866
0.045986
0.0459851
0.0459841
0.0459813
0.0459785
0.045974
0.0459691
0.0459632
0.0459559
0.0459492
0.0459389
0.0459322
0.0459181
0.0459125
0.0458934
0.0458904
0.0458648
0.0458662
0.0458322
0.0458403
0.0457976
0.0458092
0.0457627
0.0465823
0.0465817
0.0465806
0.0465794
0.0465761
0.0465729
0.0465677
0.0465622
0.0465555
0.0465472
0.0465396
0.046528
0.0465203
0.0465045
0.046498
0.0464766
0.046473
0.0464443
0.0464459
0.0464078
0.0464158
0.0463696
0.0463807
0.0463301
0.0471913
0.0471907
0.0471895
0.0471881
0.0471844
0.0471809
0.0471752
0.047169
0.0471617
0.0471525
0.0471441
0.0471313
0.0471229
0.0471053
0.0470983
0.0470744
0.0470707
0.0470388
0.0470405
0.0469987
0.047006
0.0469565
0.0469669
0.046912
0.0478143
0.0478137
0.0478123
0.0478107
0.0478067
0.0478027
0.0477964
0.0477896
0.0477816
0.0477714
0.0477624
0.0477481
0.0477392
0.0477196
0.0477125
0.0476858
0.0476825
0.0476468
0.0476488
0.0476043
0.0476106
0.0475582
0.0475679
0.0475093
0.0484513
0.0484506
0.0484491
0.0484472
0.0484429
0.0484386
0.0484318
0.0484243
0.0484157
0.0484046
0.0483951
0.0483792
0.0483702
0.0483481
0.0483413
0.0483114
0.0483084
0.0482698
0.0482708
0.0482239
0.048229
0.0481736
0.0481826
0.04812
0.0491012
0.0491006
0.0490989
0.0490969
0.0490923
0.0490876
0.0490803
0.0490723
0.0490632
0.049051
0.0490414
0.0490236
0.0490151
0.0489903
0.0489841
0.0489516
0.048948
0.0489078
0.0489075
0.0488586
0.0488627
0.0488046
0.0488129
0.0487467
0.0497644
0.049764
0.049762
0.04976
0.0497549
0.04975
0.0497421
0.0497336
0.0497242
0.0497106
0.0497013
0.0496812
0.0496731
0.0496462
0.0496393
0.0496054
0.0496005
0.0495587
0.0495572
0.0495063
0.0495092
0.0494486
0.0494562
0.0493865
0.0504409
0.0504405
0.0504382
0.0504364
0.0504308
0.0504259
0.0504174
0.0504083
0.0503991
0.0503839
0.0503748
0.0503536
0.0503446
0.0503169
0.0503089
0.050274
0.050268
0.0502248
0.0502221
0.0501693
0.0501712
0.050108
0.0501149
0.0500417
0.0511293
0.0511289
0.0511264
0.0511247
0.0511184
0.0511137
0.0511046
0.0510952
0.0510854
0.0510698
0.0510598
0.0510379
0.0510282
0.0509996
0.0509906
0.0509547
0.0509476
0.0509031
0.0508993
0.0508449
0.0508458
0.0507805
0.0507866
0.0507104
0.0518311
0.0518308
0.0518281
0.0518263
0.05182
0.0518149
0.0518052
0.0517963
0.0517853
0.0517696
0.051759
0.0517365
0.051726
0.0516966
0.0516868
0.0516499
0.0516418
0.0515961
0.0515911
0.0515351
0.0515349
0.0514674
0.0514729
0.0513935
0.0525436
0.0525434
0.0525408
0.0525387
0.0525324
0.0525271
0.0525171
0.0525083
0.0524958
0.052481
0.0524692
0.0524463
0.0524353
0.0524053
0.0523946
0.052357
0.052348
0.0523013
0.0522954
0.0522381
0.052237
0.0521676
0.0521723
0.0520903
0.0532694
0.0532691
0.0532666
0.0532644
0.053258
0.0532525
0.0532423
0.0532333
0.05322
0.0532058
0.0531921
0.05317
0.0531578
0.0531273
0.0531159
0.0530775
0.0530676
0.0530199
0.053013
0.0529543
0.0529523
0.0528811
0.0528852
0.0528006
0.0540056
0.0540054
0.0540029
0.0540006
0.0539942
0.0539886
0.0539782
0.0539692
0.0539554
0.0539414
0.0539267
0.0539051
0.0538914
0.0538612
0.053849
0.05381
0.0537993
0.0537507
0.0537431
0.0536833
0.0536804
0.0536076
0.0536111
0.053524
0.0547542
0.054754
0.0547516
0.0547492
0.0547427
0.054737
0.0547265
0.0547173
0.0547031
0.0546892
0.0546735
0.0546524
0.0546375
0.0546073
0.0545941
0.0545546
0.0545431
0.0544939
0.0544854
0.0544246
0.054421
0.0543468
0.0543496
0.0542605
0.0555136
0.0555135
0.055511
0.0555087
0.0555022
0.0554964
0.0554857
0.0554764
0.0554619
0.0554482
0.0554318
0.0554108
0.0553949
0.0553649
0.0553508
0.0553108
0.0552987
0.0552487
0.0552395
0.0551777
0.0551733
0.0550978
0.0551
0.055009
0.0562847
0.0562846
0.0562821
0.0562798
0.0562732
0.0562674
0.0562565
0.0562471
0.0562323
0.0562186
0.0562014
0.0561806
0.0561639
0.0561337
0.056119
0.0560785
0.0560659
0.0560151
0.0560054
0.0559427
0.0559376
0.0558611
0.0558627
0.05577
0.0570668
0.0570668
0.0570643
0.0570619
0.0570552
0.0570493
0.0570382
0.0570287
0.0570135
0.0569997
0.0569818
0.056961
0.0569435
0.0569131
0.0568978
0.0568566
0.0568436
0.056792
0.0567817
0.0567182
0.0567124
0.0566348
0.0566358
0.0565417
0.0578603
0.0578605
0.0578578
0.0578554
0.0578485
0.0578425
0.0578312
0.0578214
0.0578059
0.0577919
0.0577732
0.0577525
0.0577342
0.0577036
0.0576877
0.0576458
0.0576324
0.0575802
0.0575692
0.0575051
0.0574986
0.0574202
0.0574206
0.0573253
0.0586644
0.0586646
0.0586618
0.0586594
0.0586522
0.0586459
0.0586342
0.0586241
0.0586081
0.0585938
0.0585743
0.0585536
0.0585342
0.0585035
0.0584869
0.0584443
0.0584306
0.0583776
0.0583661
0.0583014
0.0582942
0.0582152
0.058215
0.0581188
0.0594797
0.05948
0.059477
0.0594743
0.0594669
0.0594602
0.0594482
0.0594376
0.0594211
0.0594063
0.059386
0.0593654
0.0593446
0.0593142
0.0592961
0.0592538
0.0592393
0.0591855
0.0591735
0.0591082
0.0591004
0.0590209
0.0590202
0.0589231
0.0603038
0.0603041
0.060301
0.0602981
0.0602904
0.0602832
0.0602708
0.0602596
0.0602426
0.0602273
0.0602062
0.0601855
0.0601633
0.0601334
0.0601137
0.0600718
0.0600563
0.0600022
0.0599897
0.0599241
0.0599158
0.059836
0.0598347
0.0597373
0.0611369
0.0611372
0.0611341
0.0611309
0.0611231
0.0611155
0.0611028
0.0610911
0.0610736
0.0610577
0.0610361
0.0610152
0.0609916
0.0609622
0.0609408
0.0608996
0.0608825
0.0608288
0.0608158
0.0607499
0.0607411
0.060661
0.0606594
0.0605615
0.0619755
0.0619758
0.0619728
0.0619694
0.0619616
0.0619538
0.0619411
0.0619291
0.0619115
0.0618952
0.0618733
0.0618523
0.0618278
0.0617991
0.061776
0.061736
0.0617173
0.0616642
0.0616507
0.0615848
0.0615756
0.0614956
0.0614936
0.0613957
0.0628188
0.0628192
0.0628164
0.0628131
0.0628056
0.0627979
0.0627855
0.0627736
0.0627563
0.0627401
0.0627183
0.0626975
0.0626726
0.0626446
0.0626202
0.0625817
0.0625612
0.0625095
0.0624949
0.0624293
0.0624198
0.0623401
0.0623381
0.0622404
0.0636637
0.0636642
0.0636618
0.0636589
0.063652
0.0636449
0.0636333
0.063622
0.0636057
0.0635902
0.0635693
0.0635491
0.0635247
0.0634977
0.0634728
0.0634359
0.0634141
0.063364
0.0633485
0.0632832
0.0632739
0.0631944
0.0631925
0.0630951
0.06451
0.0645107
0.0645088
0.0645065
0.0645006
0.0644945
0.0644842
0.0644741
0.0644593
0.0644452
0.0644258
0.064407
0.0643839
0.0643585
0.0643342
0.0642992
0.0642768
0.0642288
0.0642123
0.0641482
0.0641389
0.0640594
0.0640578
0.0639608
0.0653574
0.0653583
0.0653571
0.0653556
0.0653508
0.065346
0.0653373
0.0653289
0.065316
0.0653038
0.0652865
0.0652699
0.0652488
0.0652256
0.065203
0.0651704
0.0651486
0.0651032
0.0650863
0.0650239
0.0650148
0.064935
0.0649336
0.0648366
0.0662092
0.0662105
0.0662098
0.0662092
0.0662054
0.066202
0.0661948
0.0661882
0.0661773
0.0661672
0.0661523
0.0661382
0.0661196
0.066099
0.066079
0.0660491
0.0660295
0.0659868
0.0659714
0.065911
0.065903
0.0658231
0.065822
0.065724
0.0670699
0.0670717
0.067071
0.0670715
0.067068
0.067066
0.0670595
0.0670547
0.067045
0.067037
0.0670238
0.0670121
0.0669957
0.0669776
0.0669611
0.0669326
0.0669177
0.0668758
0.0668654
0.0668057
0.0668019
0.066723
0.0667231
0.0666245
0.0679476
0.0679502
0.0679487
0.0679505
0.0679459
0.0679458
0.0679378
0.0679355
0.0679242
0.0679191
0.0679054
0.0678957
0.0678804
0.0678636
0.0678514
0.0678202
0.067815
0.0677678
0.0677674
0.0677057
0.0677084
0.0676319
0.0676355
0.0675425
0.0688505
0.0688526
0.068852
0.0688519
0.0688486
0.0688456
0.0688394
0.0688337
0.0688244
0.068816
0.0688035
0.0687925
0.068777
0.0687619
0.0687473
0.0687191
0.0687138
0.0686685
0.0686698
0.06861
0.0686165
0.0685417
0.0685503
0.0684648
0.0697881
0.0697899
0.0697888
0.0697878
0.0697832
0.0697786
0.0697705
0.0697626
0.069751
0.0697401
0.0697253
0.0697115
0.0696939
0.0696769
0.0696581
0.069633
0.0696207
0.0695787
0.0695789
0.0695182
0.0695271
0.0694505
0.0694625
0.0693774
0.0707663
0.0707679
0.0707659
0.0707637
0.0707572
0.0707503
0.0707394
0.0707283
0.0707131
0.0706981
0.0706791
0.0706607
0.0706385
0.0706168
0.0705928
0.0705646
0.0705461
0.0705036
0.0704983
0.0704343
0.0704439
0.0703623
0.0703769
0.0702877
0.07179
0.0717919
0.0717885
0.0717853
0.0717764
0.0717674
0.0717529
0.0717384
0.0717185
0.071699
0.0716741
0.0716501
0.071621
0.0715927
0.0715611
0.071526
0.0715
0.0714499
0.0714391
0.0713665
0.071374
0.0712838
0.0712992
0.0712019
0.0728593
0.0728616
0.0728566
0.0728529
0.0728416
0.0728309
0.0728126
0.0727958
0.07277
0.072748
0.0727148
0.0726873
0.0726484
0.072614
0.0725733
0.0725285
0.0724947
0.07243
0.0724125
0.0723265
0.0723271
0.0722237
0.072237
0.072126
0.0739722
0.0739739
0.0739697
0.0739635
0.0739524
0.0739382
0.0739196
0.0738977
0.0738715
0.073842
0.0738082
0.0737713
0.0737299
0.0736861
0.0736374
0.0735864
0.0735353
0.0734662
0.0734316
0.073333
0.0733196
0.0731978
0.0732033
0.0730707
0.0751221
0.0751236
0.0751193
0.0751126
0.0751007
0.0750855
0.0750656
0.075042
0.0750138
0.0749819
0.0749452
0.0749048
0.0748596
0.0748105
0.0747566
0.0746984
0.0746369
0.0745664
0.074505
0.0744082
0.074369
0.0742298
0.0742193
0.074054
0.076302
0.0763034
0.0762993
0.0762923
0.0762804
0.0762648
0.0762446
0.0762203
0.0761917
0.0761586
0.0761212
0.0760791
0.0760326
0.0759812
0.075925
0.0758634
0.0757982
0.0757233
0.0756518
0.0755565
0.0754884
0.0753518
0.0753148
0.0751123
0.0775028
0.0775042
0.0775003
0.0774936
0.077482
0.0774667
0.0774469
0.077423
0.0773948
0.077362
0.0773252
0.0772834
0.0772375
0.0771862
0.0771308
0.0770692
0.0770044
0.0769294
0.0768578
0.0767635
0.0766898
0.0765608
0.0765069
0.0762924
0.0787164
0.0787182
0.0787146
0.0787085
0.0786974
0.0786829
0.078664
0.0786411
0.0786141
0.0785827
0.0785473
0.0785071
0.0784631
0.0784137
0.0783607
0.0783014
0.0782395
0.0781673
0.0781008
0.0780074
0.077946
0.0778149
0.0777775
0.0775899
0.0799344
0.0799366
0.0799334
0.0799279
0.0799177
0.0799043
0.0798865
0.0798652
0.0798398
0.0798104
0.0797771
0.0797393
0.079698
0.0796514
0.0796017
0.0795459
0.079488
0.0794201
0.0793586
0.0792704
0.0792152
0.0790917
0.0790573
0.0788841
0.0811501
0.0811527
0.0811498
0.0811453
0.0811358
0.0811239
0.0811074
0.081088
0.0810644
0.0810374
0.0810064
0.0809716
0.0809331
0.0808901
0.0808441
0.0807922
0.0807389
0.0806761
0.0806193
0.0805373
0.0804873
0.0803731
0.0803412
0.0801817
0.0823569
0.08236
0.0823572
0.082354
0.082345
0.082335
0.0823194
0.0823026
0.0822803
0.0822566
0.0822273
0.0821966
0.0821603
0.082122
0.082079
0.082032
0.081983
0.0819256
0.0818739
0.0817979
0.0817532
0.0816483
0.0816189
0.081473
0.0835502
0.0835537
0.0835507
0.0835494
0.0835399
0.083533
0.083517
0.0835044
0.0834816
0.0834634
0.0834336
0.0834093
0.0833731
0.0833419
0.0832998
0.0832598
0.0832139
0.0831621
0.0831158
0.0830457
0.0830054
0.0829104
0.0828834
0.0827511
0.0847249
0.0847286
0.0847262
0.0847253
0.0847176
0.0847111
0.0846975
0.084686
0.0846661
0.0846497
0.0846231
0.0846019
0.0845686
0.0845419
0.0845025
0.0844687
0.0844251
0.0843803
0.084338
0.084275
0.0842387
0.0841535
0.0841289
0.0840097
0.0858779
0.0858817
0.0858803
0.0858792
0.0858736
0.085867
0.0858568
0.0858449
0.0858297
0.0858128
0.0857921
0.0857705
0.0857439
0.0857175
0.085685
0.0856531
0.0856157
0.0855759
0.0855365
0.0854817
0.0854492
0.0853734
0.0853509
0.0852445
0.0870059
0.0870097
0.0870089
0.0870083
0.087004
0.0869982
0.08699
0.0869793
0.0869669
0.0869514
0.0869344
0.0869145
0.0868924
0.086868
0.0868408
0.0868115
0.0867794
0.086744
0.0867088
0.0866628
0.0866324
0.0865658
0.0865456
0.0864515
0.0881068
0.0881106
0.0881104
0.0881102
0.0881071
0.0881022
0.0880957
0.0880864
0.0880763
0.0880627
0.0880487
0.0880309
0.0880126
0.0879908
0.087968
0.087942
0.0879146
0.0878836
0.0878527
0.0878141
0.0877857
0.0877285
0.0877104
0.0876283
0.0891783
0.0891821
0.0891824
0.0891827
0.0891805
0.0891766
0.0891716
0.0891638
0.0891557
0.089144
0.0891327
0.0891172
0.0891023
0.0890832
0.0890643
0.0890416
0.0890188
0.088992
0.0889656
0.0889327
0.0889067
0.0888588
0.088843
0.0887722
0.0902192
0.090223
0.0902237
0.0902245
0.0902232
0.0902202
0.0902166
0.0902102
0.090204
0.0901941
0.0901853
0.090172
0.0901602
0.0901438
0.0901286
0.0901092
0.0900903
0.0900676
0.0900456
0.0900181
0.0899947
0.0899554
0.0899419
0.0898817
0.091228
0.0912318
0.0912328
0.091234
0.0912335
0.0912315
0.0912291
0.091224
0.0912196
0.0912114
0.0912049
0.0911938
0.0911848
0.091171
0.0911591
0.0911428
0.0911277
0.0911088
0.0910907
0.0910681
0.0910484
0.0910173
0.0910045
0.0909548
0.0922042
0.092208
0.0922093
0.0922109
0.0922111
0.0922099
0.0922087
0.0922049
0.092202
0.0921956
0.0921911
0.0921821
0.0921756
0.0921643
0.0921555
0.0921422
0.0921305
0.0921152
0.0921008
0.0920827
0.0920665
0.0920427
0.0920313
0.0919908
0.0931469
0.0931506
0.0931522
0.0931541
0.093155
0.0931546
0.0931544
0.0931517
0.0931504
0.0931455
0.0931428
0.0931358
0.0931316
0.0931228
0.0931167
0.0931063
0.0930978
0.0930859
0.0930749
0.0930611
0.0930482
0.0930305
0.0930207
0.0929887
0.0940561
0.0940597
0.0940616
0.0940638
0.0940653
0.0940655
0.0940663
0.0940647
0.0940646
0.0940613
0.0940603
0.0940552
0.094053
0.0940465
0.0940428
0.0940352
0.0940294
0.0940209
0.0940129
0.0940032
0.0939935
0.0939808
0.0939725
0.093949
0.0949313
0.0949348
0.0949369
0.0949394
0.0949414
0.0949423
0.0949439
0.0949433
0.0949444
0.0949424
0.0949429
0.0949396
0.0949392
0.0949349
0.0949333
0.0949283
0.0949249
0.0949196
0.0949142
0.0949083
0.0949014
0.0948935
0.0948867
0.0948709
0.095773
0.0957764
0.0957787
0.0957814
0.0957838
0.0957854
0.0957877
0.0957881
0.0957901
0.0957895
0.0957912
0.0957897
0.0957908
0.0957886
0.0957887
0.0957864
0.0957849
0.0957827
0.0957794
0.0957771
0.0957724
0.0957688
0.0957643
0.0957552
0.0965811
0.0965844
0.0965867
0.0965897
0.0965925
0.0965946
0.0965975
0.0965988
0.0966017
0.0966023
0.0966051
0.0966052
0.0966075
0.0966074
0.096609
0.0966091
0.0966093
0.09661
0.0966085
0.0966098
0.0966069
0.0966074
0.0966046
0.0966016
0.0973562
0.0973594
0.0973618
0.097365
0.0973681
0.0973706
0.0973741
0.0973762
0.0973798
0.0973816
0.0973852
0.0973869
0.0973902
0.0973922
0.0973948
0.0973974
0.0973988
0.0974024
0.0974025
0.0974069
0.0974058
0.0974102
0.0974093
0.0974111
0.0980986
0.0981016
0.0981042
0.0981074
0.0981108
0.0981138
0.0981176
0.0981205
0.0981247
0.0981276
0.0981319
0.0981351
0.0981392
0.098143
0.0981465
0.0981514
0.0981538
0.0981601
0.0981612
0.0981689
0.098169
0.0981772
0.0981775
0.0981841
0.0988091
0.098812
0.0988145
0.0988179
0.0988215
0.0988249
0.098829
0.0988326
0.0988372
0.0988412
0.0988459
0.0988505
0.0988551
0.0988608
0.0988648
0.098872
0.0988749
0.098884
0.0988857
0.0988965
0.0988973
0.098909
0.0989102
0.0989212
0.0994882
0.0994909
0.0994935
0.099497
0.0995007
0.0995044
0.0995088
0.099513
0.0995178
0.0995228
0.0995278
0.0995339
0.0995387
0.0995462
0.0995503
0.0995598
0.0995629
0.0995745
0.0995765
0.0995902
0.0995915
0.0996064
0.0996082
0.099623
0.100137
0.100139
0.100142
0.100146
0.100149
0.100153
0.100158
0.100163
0.100168
0.100174
0.100179
0.100186
0.100191
0.1002
0.100204
0.100216
0.100219
0.100233
0.100235
0.100251
0.100252
0.10027
0.100272
0.100291
0.100756
0.100758
0.100761
0.100764
0.100768
0.100772
0.100777
0.100782
0.100787
0.100794
0.100799
0.100808
0.100812
0.100823
0.100827
0.10084
0.100843
0.10086
0.100861
0.10088
0.100881
0.100902
0.100904
0.100925
0.101345
0.101348
0.10135
0.101354
0.101358
0.101362
0.101367
0.101373
0.101377
0.101385
0.10139
0.1014
0.101404
0.101417
0.10142
0.101435
0.101437
0.101456
0.101457
0.101478
0.101479
0.101502
0.101504
0.101528
0.101907
0.10191
0.101912
0.101916
0.101919
0.101924
0.101928
0.101935
0.101939
0.101948
0.101952
0.101963
0.101967
0.101981
0.101983
0.102001
0.102002
0.102023
0.102023
0.102047
0.102047
0.102072
0.102074
0.1021
0.102442
0.102444
0.102446
0.10245
0.102454
0.102459
0.102463
0.10247
0.102474
0.102484
0.102487
0.1025
0.102502
0.102518
0.102519
0.102538
0.102539
0.102561
0.102561
0.102586
0.102586
0.102613
0.102615
0.102642
0.102951
0.102953
0.102955
0.102959
0.102962
0.102967
0.102971
0.102979
0.102982
0.102993
0.102995
0.103009
0.103011
0.103028
0.103028
0.103049
0.103049
0.103072
0.103072
0.103098
0.103098
0.103126
0.103127
0.103157
0.103434
0.103436
0.103438
0.103442
0.103445
0.103451
0.103454
0.103462
0.103465
0.103476
0.103478
0.103493
0.103494
0.103512
0.103512
0.103533
0.103532
0.103557
0.103556
0.103583
0.103583
0.103612
0.103613
0.103645
0.103894
0.103895
0.103897
0.103901
0.103904
0.10391
0.103912
0.103921
0.103923
0.103935
0.103937
0.103952
0.103952
0.103971
0.10397
0.103993
0.103991
0.104017
0.104016
0.104043
0.104043
0.104072
0.104074
0.104106
0.10433
0.104331
0.104333
0.104337
0.104339
0.104345
0.104348
0.104357
0.104358
0.104371
0.104372
0.104387
0.104387
0.104406
0.104405
0.104428
0.104427
0.104452
0.104451
0.104479
0.104479
0.104509
0.104511
0.104543
0.104744
0.104745
0.104746
0.10475
0.104752
0.104759
0.10476
0.10477
0.104771
0.104783
0.104784
0.1048
0.1048
0.104819
0.104818
0.10484
0.104839
0.104864
0.104864
0.104891
0.104892
0.104922
0.104924
0.104957
0.105136
0.105137
0.105138
0.105142
0.105144
0.10515
0.105152
0.105161
0.105162
0.105175
0.105175
0.105191
0.105191
0.105209
0.105209
0.105231
0.105231
0.105254
0.105255
0.105281
0.105284
0.105312
0.105315
0.105349
0.105508
0.105509
0.10551
0.105514
0.105516
0.105522
0.105524
0.105532
0.105534
0.105545
0.105546
0.105561
0.105562
0.105579
0.10558
0.1056
0.105601
0.105623
0.105626
0.10565
0.105654
0.105682
0.105686
0.105719
0.105861
0.105862
0.105863
0.105866
0.105868
0.105874
0.105875
0.105884
0.105885
0.105896
0.105898
0.105911
0.105913
0.105929
0.105931
0.105949
0.105953
0.105973
0.105977
0.106
0.106005
0.106031
0.106036
0.106069
0.106195
0.106196
0.106197
0.1062
0.106202
0.106207
0.106209
0.106217
0.106219
0.106229
0.106231
0.106243
0.106246
0.10626
0.106264
0.10628
0.106285
0.106303
0.106309
0.10633
0.106336
0.106362
0.106367
0.106401
0.106512
0.106512
0.106513
0.106516