/*--------------------------------*- C++ -*----------------------------------*\
  =========                 |
  \\      /  F ield         | OpenFOAM: The Open Source CFD Toolbox
   \\    /   O peration     | Website:  https://openfoam.org
    \\  /    A nd           | Version:  10
     \\/     M anipulation  |
\*---------------------------------------------------------------------------*/
FoamFile
{
    format      ascii;
    class       volScalarField;
    location    "0.07";
    object      T;
}
// * * * * * * * * * * * * * * * * * * * * * * * * * * * * * * * * * * * * * //

dimensions      [0 0 0 1 0 0 0];

internalField   nonuniform List<scalar> 
4176
(
219.482
219.515
219.525
219.536
219.557
219.576
219.61
219.634
219.682
219.708
219.771
219.8
219.877
219.908
219.999
220.035
220.134
220.184
220.278
220.356
220.431
220.55
220.576
220.761
217.894
217.926
217.937
217.95
217.974
217.994
218.032
218.059
218.111
218.142
218.21
218.244
218.328
218.364
218.462
218.505
218.61
218.668
218.767
218.859
218.932
219.075
219.101
219.322
215.339
215.368
215.379
215.393
215.418
215.44
215.48
215.509
215.564
215.598
215.67
215.707
215.796
215.836
215.939
215.986
216.097
216.16
216.263
216.362
216.433
216.593
216.619
216.864
211.98
212.01
212.023
212.037
212.064
212.088
212.131
212.162
212.22
212.257
212.333
212.374
212.467
212.512
212.62
212.672
212.788
212.855
212.966
213.066
213.147
213.305
213.334
213.581
209.687
209.713
209.726
209.741
209.768
209.793
209.836
209.869
209.929
209.967
210.045
210.088
210.184
210.232
210.342
210.398
210.517
210.588
210.703
210.805
210.893
211.053
211.082
211.324
206.723
206.75
206.764
206.779
206.808
206.833
206.878
206.91
206.973
207.011
207.092
207.135
207.234
207.283
207.396
207.454
207.576
207.65
207.767
207.875
207.961
208.13
208.16
208.413
205.086
205.109
205.122
205.137
205.166
205.19
205.236
205.267
205.332
205.368
205.451
205.493
205.593
205.641
205.755
205.813
205.935
206.012
206.126
206.24
206.323
206.496
206.529
206.781
202.833
202.857
202.87
202.885
202.915
202.937
202.985
203.014
203.081
203.114
203.201
203.238
203.343
203.386
203.504
203.559
203.682
203.761
203.871
203.992
204.069
204.248
204.278
204.534
201.734
201.757
201.771
201.785
201.816
201.837
201.886
201.913
201.982
202.012
202.102
202.136
202.243
202.284
202.403
202.458
202.58
202.661
202.769
202.889
202.971
203.143
203.178
203.433
200.12
200.141
200.155
200.169
200.199
200.22
200.269
200.294
200.363
200.392
200.481
200.512
200.621
200.658
200.78
200.83
200.953
201.032
201.138
201.258
201.336
201.512
201.544
201.797
199.354
199.376
199.389
199.403
199.433
199.453
199.501
199.527
199.595
199.623
199.712
199.743
199.851
199.887
200.009
200.057
200.181
200.258
200.365
200.481
200.565
200.732
200.769
201.019
198.234
198.255
198.268
198.282
198.31
198.332
198.377
198.404
198.467
198.499
198.581
198.616
198.717
198.756
198.873
198.921
199.044
199.114
199.224
199.338
199.416
199.586
199.621
199.867
197.706
197.726
197.739
197.753
197.78
197.802
197.845
197.873
197.935
197.967
198.047
198.082
198.182
198.221
198.336
198.383
198.506
198.572
198.685
198.794
198.879
199.038
199.078
199.32
196.946
196.966
196.978
196.992
197.019
197.041
197.084
197.112
197.171
197.203
197.281
197.315
197.411
197.449
197.561
197.607
197.728
197.789
197.904
198.005
198.086
198.249
198.285
198.521
196.59
196.609
196.621
196.635
196.662
196.683
196.724
196.752
196.812
196.844
196.921
196.954
197.049
197.087
197.197
197.241
197.362
197.42
197.536
197.632
197.72
197.87
197.911
198.143
196.099
196.118
196.13
196.143
196.169
196.19
196.232
196.258
196.315
196.345
196.422
196.456
196.55
196.586
196.694
196.736
196.854
196.909
197.025
197.114
197.198
197.349
197.386
197.61
195.874
195.893
195.905
195.918
195.943
195.963
196.002
196.027
196.085
196.116
196.191
196.222
196.316
196.353
196.461
196.501
196.618
196.671
196.787
196.872
196.96
197.101
197.141
197.362
195.581
195.598
195.61
195.622
195.647
195.667
195.708
195.733
195.787
195.811
195.883
195.916
196.004
196.035
196.142
196.182
196.298
196.348
196.463
196.544
196.632
196.769
196.809
197.024
195.455
195.472
195.483
195.495
195.517
195.535
195.571
195.594
195.647
195.674
195.743
195.77
195.855
195.887
195.988
196.024
196.14
196.189
196.305
196.384
196.473
196.609
196.649
196.863
195.399
195.416
195.426
195.438
195.461
195.479
195.516
195.538
195.589
195.614
195.681
195.708
195.792
195.821
195.919
195.952
196.061
196.103
196.214
196.28
196.369
196.489
196.529
196.727
195.377
195.394
195.404
195.416
195.438
195.456
195.492
195.514
195.564
195.589
195.655
195.68
195.762
195.789
195.886
195.917
196.025
196.066
196.175
196.239
196.328
196.445
196.484
196.679
195.389
195.405
195.415
195.426
195.448
195.464
195.498
195.519
195.568
195.59
195.655
195.68
195.761
195.787
195.882
195.912
196.018
196.057
196.165
196.227
196.315
196.428
196.468
196.659
195.498
195.514
195.523
195.534
195.554
195.569
195.602
195.62
195.667
195.687
195.749
195.769
195.846
195.867
195.958
195.982
196.084
196.116
196.22
196.272
196.359
196.459
196.499
196.677
195.617
195.633
195.642
195.652
195.672
195.687
195.719
195.737
195.783
195.803
195.864
195.884
195.96
195.981
196.071
196.095
196.196
196.227
196.331
196.382
196.468
196.566
196.606
196.779
195.813
195.828
195.836
195.845
195.864
195.877
195.907
195.922
195.965
195.981
196.039
196.054
196.126
196.142
196.228
196.246
196.342
196.367
196.466
196.51
196.594
196.683
196.722
196.889
196.041
196.056
196.065
196.073
196.092
196.104
196.134
196.149
196.191
196.207
196.263
196.278
196.349
196.364
196.449
196.465
196.559
196.582
196.678
196.718
196.801
196.882
196.92
197.073
196.309
196.323
196.331
196.338
196.355
196.366
196.394
196.406
196.446
196.458
196.511
196.523
196.59
196.601
196.682
196.694
196.784
196.804
196.897
196.933
197.014
197.092
197.129
197.28
196.637
196.651
196.658
196.666
196.682
196.692
196.719
196.73
196.768
196.779
196.83
196.839
196.904
196.912
196.99
196.998
197.085
197.099
197.187
197.216
197.294
197.36
197.396
197.533
196.976
196.989
196.996
197.003
197.018
197.027
197.052
197.061
197.098
197.106
197.156
197.163
197.225
197.231
197.306
197.313
197.397
197.409
197.496
197.524
197.599
197.663
197.698
197.832
197.384
197.397
197.404
197.41
197.424
197.432
197.455
197.462
197.496
197.502
197.548
197.552
197.61
197.612
197.682
197.683
197.763
197.768
197.85
197.869
197.941
197.993
198.027
198.149
197.802
197.815
197.821
197.826
197.84
197.847
197.869
197.875
197.908
197.913
197.958
197.96
198.017
198.017
198.085
198.085
198.162
198.166
198.245
198.263
198.331
198.38
198.411
198.527
198.274
198.287
198.292
198.297
198.309
198.314
198.334
198.338
198.368
198.369
198.411
198.409
198.462
198.457
198.521
198.515
198.587
198.585
198.66
198.671
198.736
198.777
198.807
198.915
198.773
198.785
198.791
198.795
198.806
198.811
198.83
198.833
198.862
198.862
198.902
198.899
198.95
198.943
199.005
198.996
199.066
199.06
199.131
199.137
199.198
199.232
199.26
199.356
199.302
199.313
199.318
199.321
199.331
199.334
199.352
199.352
199.379
199.376
199.413
199.406
199.454
199.443
199.501
199.488
199.554
199.544
199.612
199.614
199.672
199.702
199.729
199.819
199.876
199.887
199.892
199.895
199.904
199.906
199.922
199.921
199.946
199.942
199.976
199.967
200.012
199.998
200.053
200.036
200.098
200.083
200.146
200.141
200.194
200.215
200.239
200.317
200.462
200.473
200.477
200.479
200.487
200.488
200.503
200.5
200.523
200.517
200.549
200.537
200.58
200.563
200.616
200.596
200.656
200.638
200.698
200.69
200.74
200.758
200.78
200.851
201.099
201.11
201.114
201.115
201.122
201.122
201.135
201.131
201.151
201.142
201.172
201.157
201.196
201.175
201.224
201.199
201.254
201.23
201.286
201.271
201.317
201.326
201.345
201.406
201.748
201.758
201.761
201.762
201.769
201.768
201.78
201.775
201.794
201.783
201.811
201.794
201.832
201.809
201.855
201.828
201.881
201.854
201.907
201.889
201.931
201.935
201.952
202.003
202.438
202.448
202.451
202.451
202.457
202.454
202.464
202.457
202.474
202.46
202.485
202.465
202.499
202.472
202.514
202.483
202.531
202.499
202.548
202.525
202.564
202.562
202.575
202.619
203.15
203.161
203.163
203.163
203.167
203.164
203.173
203.165
203.181
203.166
203.189
203.167
203.199
203.17
203.21
203.175
203.22
203.184
203.23
203.2
203.236
203.227
203.238
203.27
203.889
203.899
203.901
203.9
203.904
203.899
203.907
203.897
203.91
203.894
203.914
203.89
203.918
203.886
203.923
203.884
203.927
203.886
203.929
203.895
203.928
203.915
203.923
203.951
204.661
204.671
204.672
204.671
204.674
204.668
204.675
204.664
204.675
204.657
204.675
204.648
204.674
204.639
204.672
204.63
204.669
204.623
204.662
204.622
204.651
204.629
204.634
204.652
205.45
205.46
205.461
205.459
205.461
205.455
205.46
205.448
205.457
205.437
205.454
205.425
205.449
205.411
205.442
205.397
205.434
205.384
205.421
205.377
205.403
205.377
205.379
205.391
206.273
206.283
206.283
206.281
206.282
206.275
206.278
206.264
206.272
206.25
206.264
206.232
206.253
206.212
206.239
206.19
206.223
206.169
206.202
206.151
206.175
206.141
206.141
206.143
207.116
207.125
207.125
207.123
207.123
207.115
207.118
207.103
207.109
207.086
207.098
207.064
207.083
207.04
207.066
207.013
207.044
206.986
207.018
206.962
206.983
206.943
206.941
206.934
207.984
207.993
207.993
207.989
207.989
207.98
207.981
207.964
207.968
207.943
207.952
207.916
207.932
207.886
207.908
207.852
207.88
207.817
207.846
207.785
207.805
207.758
207.755
207.741
208.879
208.888
208.888
208.884
208.883
208.873
208.873
208.855
208.858
208.831
208.839
208.801
208.814
208.766
208.786
208.726
208.751
208.684
208.711
208.643
208.661
208.606
208.602
208.577
209.79
209.799
209.798
209.794
209.791
209.781
209.779
209.76
209.761
209.732
209.738
209.698
209.709
209.658
209.675
209.613
209.636
209.565
209.589
209.517
209.534
209.473
209.469
209.437
210.734
210.742
210.741
210.736
210.733
210.722
210.719
210.699
210.698
210.667
210.67
210.628
210.637
210.583
210.597
210.531
210.551
210.475
210.497
210.418
210.434
210.363
210.36
210.318
211.688
211.697
211.695
211.69
211.686
211.674
211.67
211.649
211.646
211.615
211.616
211.572
211.579
211.522
211.535
211.466
211.484
211.404
211.425
211.341
211.356
211.278
211.276
211.225
212.673
212.681
212.679
212.674
212.669
212.656
212.65
212.628
212.623
212.59
212.589
212.543
212.547
212.487
212.498
212.424
212.44
212.355
212.375
212.284
212.299
212.213
212.21
212.151
213.672
213.68
213.678
213.672
213.666
213.653
213.646
213.623
213.617
213.582
213.58
213.532
213.534
213.472
213.481
213.404
213.419
213.329
213.348
213.25
213.266
213.172
213.168
213.101
214.693
214.701
214.698
214.692
214.686
214.671
214.663
214.639
214.632
214.595
214.591
214.541
214.541
214.476
214.483
214.402
214.416
214.321
214.34
214.235
214.251
214.152
214.146
214.073
215.733
215.741
215.738
215.731
215.724
215.709
215.7
215.675
215.666
215.628
215.622
215.57
215.569
215.501
215.507
215.422
215.435
215.334
215.353
215.242
215.256
215.15
215.144
215.063
216.79
216.797
216.794
216.787
216.779
216.764
216.753
216.727
216.717
216.678
216.671
216.617
216.614
216.543
216.549
216.459
216.473
216.367
216.385
216.27
216.282
216.173
216.165
216.078
217.865
217.872
217.869
217.861
217.853
217.837
217.825
217.798
217.787
217.746
217.738
217.681
217.678
217.603
217.608
217.514
217.527
217.417
217.432
217.314
217.323
217.209
217.2
217.106
218.955
218.963
218.959
218.951
218.942
218.926
218.913
218.886
218.873
218.831
218.823
218.763
218.761
218.682
218.687
218.59
218.601
218.489
218.502
218.381
218.388
218.269
218.259
218.159
220.06
220.067
220.063
220.056
220.045
220.029
220.015
219.987
219.974
219.929
219.92
219.858
219.855
219.774
219.777
219.678
219.687
219.572
219.583
219.459
219.465
219.342
219.331
219.225
221.182
221.189
221.184
221.177
221.166
221.15
221.135
221.106
221.093
221.047
221.037
220.974
220.969
220.887
220.888
220.788
220.794
220.678
220.686
220.56
220.563
220.436
220.424
220.312
222.313
222.32
222.315
222.308
222.296
222.28
222.264
222.235
222.22
222.174
222.163
222.099
222.092
222.01
222.008
221.908
221.911
221.794
221.8
221.672
221.674
221.544
221.531
221.414
223.462
223.469
223.464
223.457
223.444
223.428
223.411
223.383
223.365
223.321
223.307
223.243
223.234
223.151
223.148
223.046
223.047
222.929
222.933
222.802
222.802
222.669
222.654
222.532
224.617
224.624
224.619
224.612
224.599
224.583
224.565
224.538
224.518
224.475
224.458
224.395
224.385
224.302
224.296
224.195
224.194
224.075
224.077
223.945
223.943
223.807
223.792
223.666
225.788
225.796
225.79
225.783
225.77
225.753
225.735
225.708
225.686
225.644
225.625
225.564
225.55
225.467
225.46
225.358
225.355
225.235
225.235
225.102
225.098
224.96
224.944
224.814
226.967
226.974
226.968
226.961
226.948
226.932
226.913
226.886
226.863
226.822
226.8
226.741
226.725
226.643
226.634
226.532
226.527
226.407
226.405
226.27
226.265
226.125
226.108
225.974
228.157
228.164
228.159
228.151
228.138
228.122
228.102
228.075
228.051
228.012
227.988
227.929
227.911
227.831
227.818
227.717
227.71
227.59
227.586
227.451
227.445
227.303
227.286
227.148
229.356
229.363
229.357
229.35
229.337
229.32
229.3
229.274
229.249
229.21
229.184
229.127
229.106
229.027
229.012
228.911
228.903
228.782
228.777
228.64
228.633
228.489
228.471
228.331
230.564
230.571
230.566
230.558
230.545
230.529
230.508
230.482
230.456
230.418
230.39
230.334
230.311
230.233
230.216
230.116
230.106
229.985
229.978
229.842
229.833
229.688
229.67
229.527
231.78
231.787
231.782
231.774
231.761
231.744
231.723
231.697
231.67
231.632
231.603
231.548
231.522
231.445
231.427
231.326
231.315
231.194
231.185
231.048
231.038
230.892
230.874
230.729
233.007
233.014
233.008
233
232.986
232.97
232.948
232.922
232.894
232.856
232.825
232.771
232.744
232.667
232.647
232.547
232.534
232.413
232.403
232.266
232.255
232.108
232.089
231.942
234.238
234.245
234.239
234.231
234.217
234.2
234.177
234.151
234.122
234.084
234.051
233.998
233.968
233.893
233.87
233.771
233.756
233.635
233.624
233.487
233.474
233.327
233.308
233.16
235.479
235.486
235.479
235.472
235.456
235.439
235.416
235.389
235.359
235.321
235.286
235.234
235.201
235.127
235.102
235.003
234.986
234.866
234.853
234.716
234.703
234.555
234.535
234.386
236.721
236.728
236.721
236.713
236.697
236.68
236.656
236.629
236.597
236.559
236.523
236.472
236.435
236.364
236.335
236.238
236.219
236.099
236.085
235.949
235.935
235.787
235.767
235.617
237.968
237.975
237.968
237.96
237.944
237.926
237.902
237.874
237.842
237.804
237.766
237.715
237.676
237.607
237.574
237.48
237.457
237.339
237.324
237.188
237.173
237.026
237.006
236.855
239.212
239.218
239.212
239.204
239.188
239.17
239.145
239.118
239.086
239.048
239.009
238.959
238.918
238.851
238.815
238.725
238.698
238.584
238.566
238.431
238.415
238.269
238.249
238.099
240.453
240.46
240.454
240.446
240.43
240.413
240.389
240.363
240.33
240.294
240.255
240.207
240.165
240.1
240.061
239.975
239.945
239.833
239.812
239.681
239.664
239.519
239.499
239.349
241.686
241.693
241.688
241.681
241.666
241.65
241.627
241.603
241.571
241.537
241.499
241.453
241.411
241.35
241.31
241.227
241.194
241.087
241.064
240.934
240.917
240.773
240.753
240.604
242.914
242.921
242.916
242.91
242.897
242.883
242.862
242.84
242.81
242.779
242.742
242.7
242.659
242.602
242.562
242.484
242.45
242.347
242.322
242.196
242.178
242.034
242.016
241.867
244.135
244.142
244.138
244.134
244.122
244.11
244.09
244.071
244.044
244.016
243.982
243.944
243.905
243.852
243.814
243.741
243.707
243.61
243.585
243.462
243.444
243.301
243.283
243.134
245.357
245.365
245.362
245.358
245.347
245.338
245.32
245.303
245.278
245.254
245.222
245.188
245.152
245.104
245.069
245
244.969
244.877
244.854
244.734
244.719
244.578
244.561
244.41
246.586
246.595
246.591
246.589
246.578
246.571
246.552
246.539
246.513
246.493
246.462
246.432
246.397
246.353
246.322
246.255
246.232
246.139
246.125
246.006
245.997
245.859
245.845
245.697
247.836
247.844
247.841
247.839
247.827
247.82
247.801
247.789
247.763
247.744
247.712
247.684
247.649
247.609
247.578
247.513
247.495
247.401
247.394
247.277
247.274
247.139
247.131
246.992
249.114
249.122
249.119
249.115
249.104
249.094
249.075
249.059
249.033
249.011
248.978
248.949
248.911
248.873
248.837
248.777
248.755
248.666
248.658
248.543
248.545
248.411
248.409
248.276
250.436
250.443
250.439
250.434
250.42
250.408
250.386
250.367
250.336
250.311
250.273
250.24
250.197
250.156
250.113
250.055
250.023
249.938
249.925
249.809
249.812
249.676
249.677
249.543
251.803
251.811
251.805
251.798
251.782
251.767
251.74
251.717
251.681
251.65
251.605
251.567
251.516
251.469
251.416
251.354
251.311
251.223
251.202
251.08
251.081
250.938
250.942
250.801
253.223
253.231
253.223
253.215
253.195
253.178
253.146
253.12
253.076
253.041
252.986
252.943
252.88
252.826
252.76
252.69
252.635
252.535
252.505
252.371
252.366
252.209
252.213
252.058
254.69
254.698
254.689
254.68
254.658
254.638
254.603
254.572
254.523
254.483
254.42
254.37
254.297
254.234
254.156
254.077
254.004
253.894
253.846
253.698
253.679
253.503
253.501
253.324
256.201
256.208
256.2
256.189
256.166
256.143
256.106
256.072
256.02
255.974
255.908
255.851
255.772
255.701
255.612
255.526
255.433
255.32
255.244
255.089
255.044
254.847
254.83
254.618
257.744
257.751
257.742
257.73
257.707
257.683
257.645
257.609
257.555
257.507
257.438
257.378
257.294
257.22
257.123
257.032
256.927
256.813
256.71
256.558
256.477
256.27
256.228
255.971
259.309
259.315
259.307
259.296
259.272
259.249
259.21
259.174
259.12
259.072
259.002
258.941
258.856
258.781
258.682
258.59
258.48
258.365
258.251
258.103
257.997
257.795
257.725
257.434
260.882
260.888
260.881
260.87
260.847
260.824
260.786
260.751
260.698
260.652
260.582
260.524
260.438
260.367
260.267
260.179
260.068
259.958
259.843
259.7
259.592
259.396
259.322
259.033
262.454
262.461
262.453
262.443
262.421
262.4
262.363
262.331
262.278
262.235
262.167
262.112
262.029
261.962
261.864
261.782
261.674
261.57
261.459
261.322
261.224
261.033
260.97
260.704
264.013
264.02
264.013
264.004
263.983
263.964
263.928
263.899
263.848
263.808
263.742
263.693
263.612
263.55
263.456
263.38
263.276
263.181
263.074
262.947
262.855
262.677
262.618
262.373
265.553
265.56
265.554
265.546
265.526
265.509
265.474
265.448
265.399
265.364
265.3
265.256
265.177
265.123
265.031
264.964
264.863
264.777
264.675
264.559
264.472
264.308
264.252
264.026
267.065
267.073
267.066
267.06
267.04
267.026
266.992
266.97
266.922
266.893
266.829
266.793
266.715
266.669
266.58
266.521
266.424
266.348
266.25
266.145
266.062
265.913
265.859
265.652
268.544
268.553
268.546
268.542
268.523
268.511
268.478
268.46
268.413
268.389
268.327
268.297
268.221
268.184
268.095
268.047
267.952
267.886
267.793
267.698
267.619
267.485
267.433
267.245
269.986
269.994
269.988
269.985
269.968
269.957
269.927
269.91
269.867
269.845
269.788
269.762
269.69
269.658
269.574
269.533
269.441
269.386
269.295
269.213
269.137
269.017
268.967
268.797
271.388
271.396
271.391
271.388
271.373
271.363
271.336
271.32
271.281
271.261
271.209
271.184
271.119
271.09
271.012
270.976
270.89
270.843
270.755
270.685
270.612
270.506
270.458
270.305
272.746
272.754
272.75
272.747
272.734
272.725
272.7
272.686
272.651
272.633
272.585
272.563
272.503
272.477
272.405
272.374
272.294
272.253
272.17
272.112
272.04
271.948
271.901
271.765
274.059
274.067
274.064
274.062
274.05
274.042
274.02
274.008
273.975
273.96
273.915
273.897
273.841
273.819
273.752
273.726
273.651
273.617
273.538
273.49
273.419
273.342
273.296
273.176
275.326
275.334
275.331
275.33
275.319
275.313
275.292
275.282
275.252
275.239
275.198
275.183
275.13
275.113
275.05
275.029
274.959
274.931
274.857
274.818
274.749
274.685
274.639
274.535
276.547
276.555
276.552
276.552
276.542
276.537
276.518
276.51
276.482
276.471
276.433
276.421
276.373
276.359
276.301
276.284
276.218
276.197
276.127
276.096
276.03
275.977
275.933
275.844
277.72
277.727
277.726
277.725
277.716
277.712
277.695
277.689
277.663
277.655
277.62
277.61
277.566
277.555
277.501
277.489
277.428
277.411
277.346
277.322
277.26
277.218
277.175
277.099
278.846
278.854
278.852
278.852
278.844
278.841
278.826
278.821
278.797
278.791
278.759
278.752
278.711
278.704
278.654
278.645
278.589
278.577
278.517
278.498
278.44
278.407
278.366
278.302
279.925
279.932
279.931
279.932
279.924
279.923
279.909
279.905
279.884
279.879
279.85
279.845
279.808
279.803
279.758
279.752
279.7
279.692
279.637
279.624
279.57
279.545
279.506
279.453
280.958
280.965
280.964
280.965
280.959
280.958
280.945
280.943
280.924
280.921
280.894
280.892
280.858
280.855
280.814
280.811
280.764
280.76
280.71
280.701
280.652
280.633
280.596
280.554
281.944
281.951
281.951
281.952
281.947
281.947
281.935
281.934
281.917
281.916
281.892
281.891
281.861
281.86
281.823
281.822
281.78
281.779
281.733
281.728
281.685
281.671
281.637
281.605
282.887
282.894
282.894
282.895
282.891
282.891
282.881
282.881
282.866
282.866
282.845
282.845
282.818
282.819
282.787
282.788
282.751
282.751
282.712
282.709
282.67
282.662
282.63
282.607
283.786
283.792
283.792
283.794
283.791
283.792
283.783
283.784
283.771
283.772
283.754
283.755
283.732
283.733
283.706
283.708
283.676
283.678
283.644
283.644
283.61
283.606
283.578
283.562
284.643
284.649
284.649
284.652
284.648
284.65
284.643
284.644
284.633
284.635
284.62
284.622
284.602
284.605
284.582
284.584
284.558
284.561
284.533
284.535
284.506
284.506
284.481
284.472
285.458
285.464
285.465
285.467
285.465
285.467
285.461
285.463
285.454
285.456
285.444
285.446
285.431
285.434
285.416
285.418
285.398
285.401
285.379
285.382
285.359
285.361
285.34
285.337
286.235
286.241
286.241
286.244
286.242
286.245
286.24
286.243
286.236
286.238
286.229
286.231
286.22
286.222
286.21
286.212
286.197
286.2
286.184
286.188
286.17
286.175
286.157
286.16
286.973
286.979
286.98
286.982
286.982
286.984
286.981
286.984
286.979
286.981
286.975
286.977
286.971
286.972
286.964
286.966
286.957
286.959
286.949
286.953
286.941
286.948
286.933
286.941
287.675
287.681
287.682
287.685
287.684
287.687
287.686
287.688
287.686
287.688
287.685
287.686
287.684
287.684
287.682
287.682
287.68
287.681
287.677
287.681
287.674
287.682
287.671
287.683
288.342
288.347
288.349
288.352
288.353
288.355
288.355
288.357
288.358
288.359
288.36
288.36
288.363
288.361
288.365
288.363
288.367
288.366
288.369
288.372
288.37
288.38
288.372
288.387
288.976
288.981
288.983
288.986
288.987
288.99
288.992
288.993
288.996
288.997
289.001
289
289.007
289.004
289.013
289.01
289.02
289.018
289.026
289.028
289.031
289.043
289.037
289.056
289.578
289.583
289.586
289.588
289.591
289.593
289.596
289.598
289.603
289.603
289.611
289.608
289.62
289.615
289.63
289.625
289.64
289.637
289.65
289.652
289.66
289.672
289.669
289.691
290.151
290.155
290.158
290.16
290.164
290.166
290.171
290.171
290.18
290.178
290.19
290.186
290.202
290.196
290.215
290.209
290.229
290.225
290.243
290.245
290.256
290.27
290.27
290.294
290.694
290.699
290.702
290.704
290.709
290.71
290.717
290.717
290.728
290.725
290.74
290.735
290.755
290.748
290.771
290.764
290.788
290.784
290.806
290.809
290.822
290.838
290.839
290.866
291.211
291.215
291.219
291.221
291.226
291.227
291.236
291.235
291.248
291.245
291.263
291.258
291.281
291.273
291.3
291.292
291.32
291.316
291.34
291.344
291.36
291.378
291.38
291.41
291.702
291.706
291.709
291.711
291.718
291.718
291.729
291.728
291.743
291.739
291.76
291.754
291.779
291.772
291.801
291.794
291.824
291.821
291.847
291.854
291.87
291.89
291.893
291.926
292.168
292.172
292.176
292.178
292.185
292.186
292.197
292.196
292.212
292.209
292.231
292.226
292.253
292.247
292.277
292.272
292.302
292.302
292.328
292.338
292.354
292.377
292.38
292.415
292.611
292.615
292.619
292.621
292.629
292.629
292.642
292.641
292.658
292.656
292.679
292.675
292.702
292.699
292.728
292.727
292.755
292.76
292.784
292.798
292.813
292.84
292.842
292.879
293.032
293.036
293.04
293.042
293.05
293.051
293.064
293.064
293.081
293.081
293.103
293.102
293.128
293.128
293.155
293.159
293.185
293.195
293.215
293.235
293.247
293.278
293.28
293.319
293.432
293.436
293.44
293.442
293.45
293.452
293.465
293.467
293.483
293.485
293.506
293.509
293.532
293.537
293.56
293.57
293.591
293.608
293.624
293.65
293.659
293.693
293.694
293.735
293.811
293.815
293.819
293.822
293.83
293.833
293.845
293.849
293.864
293.87
293.887
293.895
293.914
293.926
293.944
293.961
293.977
294.001
294.012
294.043
294.048
294.086
294.085
294.128
294.172
294.176
294.18
294.183
294.19
294.195
294.206
294.212
294.225
294.234
294.249
294.261
294.276
294.294
294.307
294.331
294.341
294.371
294.378
294.415
294.416
294.458
294.455
294.499
294.516
294.52
294.523
294.527
294.534
294.54
294.549
294.558
294.569
294.582
294.593
294.611
294.621
294.644
294.653
294.682
294.688
294.723
294.725
294.765
294.765
294.808
294.804
294.849
294.839
294.843
294.846
294.851
294.857
294.865
294.873
294.884
294.893
294.909
294.918
294.939
294.947
294.974
294.98
295.014
295.016
295.055
295.055
295.098
295.096
295.14
295.136
295.18
295.151
295.155
295.158
295.163
295.168
295.177
295.183
295.196
295.203
295.221
295.227
295.251
295.256
295.285
295.288
295.323
295.324
295.365
295.364
295.408
295.405
295.451
295.446
295.492
295.443
295.447
295.45
295.456
295.461
295.471
295.477
295.491
295.498
295.517
295.524
295.549
295.554
295.585
295.588
295.623
295.625
295.664
295.664
295.706
295.703
295.746
295.741
295.784
295.724
295.728
295.731
295.736
295.741
295.75
295.756
295.769
295.776
295.794
295.8
295.823
295.829
295.857
295.862
295.895
295.899
295.937
295.939
295.981
295.981
296.026
296.021
296.068
295.992
295.996
295.999
296.004
296.009
296.019
296.025
296.039
296.046
296.064
296.072
296.095
296.103
296.129
296.136
296.166
296.171
296.205
296.208
296.245
296.244
296.286
296.281
296.324
296.245
296.249
296.252
296.257
296.262
296.271
296.277
296.289
296.297
296.313
296.321
296.341
296.35
296.375
296.383
296.412
296.419
296.453
296.457
296.496
296.496
296.539
296.536
296.581
296.487
296.491
296.493
296.499
296.504
296.512
296.519
296.531
296.539
296.555
296.564
296.584
296.592
296.616
296.624
296.652
296.657
296.69
296.693
296.731
296.731
296.772
296.768
296.81
296.719
296.723
296.726
296.731
296.735
296.744
296.749
296.762
296.768
296.784
296.792
296.812
296.819
296.843
296.85
296.879
296.883
296.917
296.919
296.956
296.955
296.996
296.993
297.036
296.937
296.94
296.943
296.948
296.952
296.96
296.966
296.978
296.984
297.001
297.007
297.028
297.034
297.059
297.063
297.092
297.095
297.128
297.13
297.167
297.167
297.207
297.203
297.244
297.145
297.148
297.15
297.155
297.159
297.167
297.172
297.184
297.19
297.206
297.211
297.232
297.237
297.262
297.267
297.295
297.299
297.331
297.333
297.369
297.369
297.409
297.405
297.446
297.346
297.349
297.351
297.356
297.359
297.367
297.372
297.384
297.389
297.404
297.41
297.429
297.434
297.456
297.461
297.487
297.491
297.519
297.522
297.554
297.555
297.592
297.589
297.628
297.523
297.525
297.527
297.532
297.535
297.543
297.548
297.559
297.564
297.579
297.585
297.603
297.61
297.631
297.638
297.663
297.67
297.699
297.704
297.737
297.74
297.777
297.775
297.812
297.712
297.715
297.717
297.721
297.724
297.732
297.736
297.746
297.751
297.764
297.77
297.786
297.791
297.81
297.815
297.836
297.842
297.865
297.869
297.896
297.898
297.931
297.929
297.966
297.865
297.867
297.869
297.873
297.876
297.883
297.887
297.898
297.902
297.916
297.922
297.938
297.945
297.965
297.972
297.994
298.002
298.028
298.034
298.065
298.069
298.103
298.101
298.135
298.036
298.039
298.04
298.044
298.046
298.053
298.057
298.066
298.07
298.082
298.087
298.101
298.106
298.122
298.128
298.147
298.152
298.174
298.178
298.203
298.205
298.235
298.234
298.269
298.172
298.175
298.176
298.18
298.183
298.189
298.193
298.201
298.207
298.218
298.225
298.238
298.246
298.262
298.271
298.29
298.298
298.321
298.327
298.355
298.358
298.389
298.388
298.419
298.322
298.324
298.326
298.329
298.331
298.337
298.34
298.348
298.353
298.362
298.368
298.38
298.386
298.4
298.406
298.423
298.429
298.449
298.454
298.479
298.481
298.51
298.509
298.542
298.444
298.446
298.447
298.451
298.453
298.459
298.462
298.47
298.475
298.485
298.491
298.503
298.511
298.526
298.533
298.551
298.559
298.579
298.585
298.611
298.614
298.642
298.641
298.672
298.577
298.579
298.58
298.583
298.585
298.591
298.594
298.601
298.605
298.614
298.619
298.63
298.637
298.65
298.656
298.672
298.679
298.698
298.704
298.728
298.73
298.759
298.758
298.79
298.677
298.679
298.68
298.683
298.686
298.69
298.694
298.701
298.706
298.714
298.721
298.732
298.739
298.752
298.76
298.776
298.783
298.803
298.808
298.832
298.835
298.863
298.862
298.892
298.81
298.812
298.813
298.816
298.818
298.823
298.826
298.832
298.837
298.845
298.85
298.861
298.867
298.88
298.886
298.902
298.908
298.927
298.932
298.955
298.958
298.986
298.986
299.017
298.884
298.885
298.887
298.889
298.892
298.896
298.899
298.906
298.91
298.919
298.924
298.935
298.941
298.954
298.96
298.976
298.982
299.001
299.006
299.029
299.032
299.059
299.058
299.089
299.01
299.011
299.012
299.015
299.017
299.022
299.025
299.031
299.035
299.043
299.048
299.059
299.064
299.077
299.083
299.098
299.104
299.122
299.127
299.15
299.152
299.179
299.179
299.209
299.072
299.074
299.075
299.078
299.08
299.084
299.087
299.093
299.097
299.105
299.11
299.121
299.126
299.139
299.144
299.16
299.165
299.183
299.187
299.21
299.212
299.239
299.238
299.268
299.184
299.185
299.186
299.188
299.19
299.195
299.197
299.204
299.207
299.216
299.22
299.23
299.235
299.248
299.252
299.268
299.272
299.291
299.294
299.316
299.318
299.345
299.344
299.373
299.238
299.24
299.241
299.243
299.245
299.249
299.252
299.258
299.262
299.27
299.274
299.284
299.289
299.302
299.306
299.321
299.325
299.344
299.347
299.369
299.371
299.397
299.396
299.424
299.334
299.335
299.336
299.339
299.341
299.345
299.347
299.353
299.357
299.365
299.369
299.379
299.383
299.396
299.399
299.415
299.418
299.437
299.439
299.461
299.462
299.488
299.487
299.515
299.382
299.382
299.384
299.386
299.388
299.392
299.395
299.4
299.404
299.412
299.415
299.426
299.429
299.442
299.445
299.461
299.464
299.482
299.485