/*--------------------------------*- C++ -*----------------------------------*\
  =========                 |
  \\      /  F ield         | OpenFOAM: The Open Source CFD Toolbox
   \\    /   O peration     | Website:  https://openfoam.org
    \\  /    A nd           | Version:  10
     \\/     M anipulation  |
\*---------------------------------------------------------------------------*/
FoamFile
{
    format      ascii;
    class       volVectorField;
    location    "0.07";
    object      U;
}
// * * * * * * * * * * * * * * * * * * * * * * * * * * * * * * * * * * * * * //

dimensions      [0 1 -1 0 0 0 0];

internalField   nonuniform List<vector> 
4176
(
(427.013 -0.0299051 1.42547e-10)
(427 -0.0110555 -9.77212e-11)
(426.974 -0.0741038 1.30368e-11)
(426.942 -0.0644355 -4.01509e-12)
(426.889 -0.0898907 -1.40311e-11)
(426.837 -0.135777 7.15414e-12)
(426.755 -0.0765068 -2.22077e-11)
(426.686 -0.221229 -2.47636e-11)
(426.573 -0.0326832 3.79099e-13)
(426.489 -0.313817 -1.62224e-12)
(426.345 0.0382288 -2.69822e-11)
(426.248 -0.401322 -2.68272e-11)
(426.073 0.12486 -1.35243e-12)
(425.962 -0.461085 -1.04351e-11)
(425.761 0.196991 -2.72597e-12)
(425.627 -0.436007 6.82832e-12)
(425.416 0.176812 1.53089e-11)
(425.238 -0.248794 1.21018e-11)
(425.042 0.0199951 5.22263e-12)
(424.791 0.109294 2.03173e-11)
(424.646 -0.246934 1.0875e-11)
(424.285 0.613453 1.85822e-12)
(424.271 -0.573715 3.34843e-12)
(423.748 1.27557 1.26616e-11)
(428.922 -0.0132742 1.43225e-10)
(428.909 0.0323635 -9.79408e-11)
(428.882 -0.00842922 1.23586e-11)
(428.847 0.0314661 -3.99404e-12)
(428.789 0.0275186 -1.40999e-11)
(428.733 0.0119844 6.37548e-12)
(428.644 0.0924321 -2.14364e-11)
(428.567 -0.0230681 -2.44517e-11)
(428.446 0.187199 2.40689e-13)
(428.353 -0.067268 -5.46298e-14)
(428.198 0.308351 -2.68971e-11)
(428.09 -0.1088 -2.69572e-11)
(427.902 0.44479 -1.5351e-12)
(427.778 -0.125765 -9.74569e-12)
(427.564 0.568836 -2.64649e-12)
(427.416 -0.0631464 8.30242e-12)
(427.19 0.603099 1.49968e-11)
(426.994 0.16087 1.2321e-11)
(426.79 0.498562 5.17937e-12)
(426.507 0.556535 2.03133e-11)
(426.367 0.275338 1.1216e-11)
(425.95 1.05984 1.52155e-13)
(425.937 -0.0488555 4.26011e-12)
(425.333 1.71545 1.20906e-11)
(435.361 0.003247 1.39774e-10)
(435.349 0.0764745 -9.78895e-11)
(435.321 0.0593491 1.22077e-11)
(435.284 0.13115 -4.30047e-12)
(435.224 0.149958 -1.45677e-11)
(435.163 0.16654 5.68579e-12)
(435.07 0.269145 -2.06458e-11)
(434.989 0.184754 -2.47481e-11)
(434.862 0.417401 6.19384e-13)
(434.762 0.19155 1.12387e-14)
(434.6 0.591049 -2.71943e-11)
(434.484 0.198147 -2.63428e-11)
(434.289 0.779021 -4.24097e-13)
(434.155 0.225434 -9.7143e-12)
(433.932 0.955387 -2.67528e-12)
(433.774 0.325078 7.98191e-12)
(433.54 1.04703 1.34748e-11)
(433.334 0.57908 1.18991e-11)
(433.123 1.00627 5.45749e-12)
(432.823 1.00545 2.01754e-11)
(432.691 0.845406 1.10235e-11)
(432.238 1.5655 2.35226e-12)
(432.226 0.584757 4.26571e-12)
(431.561 2.26972 1.2692e-11)
(441.255 0.0217768 1.40692e-10)
(441.243 0.123853 -9.6376e-11)
(441.214 0.131495 1.20025e-11)
(441.176 0.236484 -3.45172e-12)
(441.113 0.279228 -1.50623e-11)
(441.05 0.329373 3.62786e-12)
(440.953 0.455246 -2.05521e-11)
(440.867 0.403482 -2.59673e-11)
(440.735 0.659494 -3.74622e-12)
(440.63 0.46376 1.09269e-12)
(440.462 0.888018 -2.65909e-11)
(440.339 0.52074 -2.65764e-11)
(440.136 1.12952 8.45768e-13)
(439.994 0.594209 -1.00144e-11)
(439.763 1.35925 -7.29141e-12)
(439.596 0.732102 7.31527e-12)
(439.353 1.50696 1.51972e-11)
(439.14 1.0162 1.16908e-11)
(438.915 1.52659 6.87586e-12)
(438.617 1.46575 1.98317e-11)
(438.465 1.42175 9.37326e-12)
(438.02 2.07077 1.77176e-12)
(438.004 1.2296 2.96976e-12)
(437.349 2.83008 4.12854e-12)
(446.963 0.0407864 1.39785e-10)
(446.953 0.172228 -9.26529e-11)
(446.923 0.205515 1.43418e-11)
(446.884 0.344629 -3.86141e-12)
(446.82 0.412107 -1.30951e-11)
(446.755 0.496794 6.36965e-12)
(446.655 0.646642 -2.17799e-11)
(446.568 0.628544 -2.52062e-11)
(446.432 0.908573 -6.08782e-13)
(446.324 0.744017 -2.25752e-13)
(446.151 1.19375 -2.64772e-11)
(446.025 0.853121 -2.48249e-11)
(445.817 1.49049 -1.38309e-12)
(445.67 0.974635 -1.03538e-11)
(445.434 1.77492 -5.71342e-12)
(445.261 1.15258 5.64878e-12)
(445.011 1.97791 1.44738e-11)
(444.791 1.47182 1.22648e-11)
(444.557 2.05278 2.62435e-12)
(444.257 1.94449 2.45204e-11)
(444.092 2.00954 1.54674e-11)
(443.645 2.56172 4.41887e-12)
(443.628 1.84871 5.83427e-12)
(442.982 3.36566 1.34269e-11)
(451.895 0.0601055 1.32398e-10)
(451.885 0.221186 -9.4109e-11)
(451.855 0.280194 1.57156e-11)
(451.816 0.453942 -7.17811e-12)
(451.751 0.546072 -2.11936e-11)
(451.686 0.665988 2.91145e-12)
(451.585 0.839588 -1.98291e-11)
(451.497 0.856024 -2.81616e-11)
(451.359 1.15977 -8.1378e-13)
(451.251 1.02733 3.01719e-12)
(451.075 1.5024 -2.62974e-11)
(450.948 1.1893 -2.8551e-11)
(450.737 1.85553 -3.23537e-12)
(450.589 1.35999 -8.36255e-12)
(450.348 2.19556 -7.86844e-12)
(450.173 1.57873 7.49837e-12)
(449.919 2.45535 2.28777e-11)
(449.695 1.9341 1.4529e-11)
(449.46 2.58818 1.03818e-11)
(449.148 2.42799 2.63783e-11)
(448.989 2.60872 1.2221e-11)
(448.526 3.06399 -4.81768e-12)
(448.507 2.47332 3.05837e-12)
(447.85 3.90625 1.33978e-11)
(456.094 0.0793929 1.33695e-10)
(456.085 0.27026 -9.62613e-11)
(456.055 0.35439 3.61775e-12)
(456.016 0.563271 -7.58055e-12)
(455.95 0.679161 -9.77209e-12)
(455.887 0.83519 3.33643e-12)
(455.784 1.03141 -2.87055e-11)
(455.699 1.08356 -2.53431e-11)
(455.557 1.40978 3.73477e-12)
(455.453 1.31067 -8.0485e-13)
(455.273 1.81012 -2.86226e-11)
(455.15 1.52538 -2.02674e-11)
(454.935 2.22054 9.84231e-12)
(454.789 1.74552 -6.5486e-12)
(454.546 2.61715 -3.98364e-12)
(454.37 2.00577 1.01026e-11)
(454.115 2.93595 1.52633e-11)
(453.887 2.39511 9.79892e-12)
(453.656 3.13314 5.58642e-12)
(453.331 2.9087 2.43327e-11)
(453.182 3.20955 1.12569e-11)
(452.709 3.58182 -4.82208e-12)
(452.687 3.11201 5.0106e-12)
(452.022 4.45987 1.77067e-11)
(459.567 0.0985642 1.23669e-10)
(459.559 0.319416 -8.8839e-11)
(459.528 0.427166 2.06536e-11)
(459.491 0.672001 -5.38741e-12)
(459.423 0.809724 -2.03654e-11)
(459.364 1.0034 5.50971e-12)
(459.257 1.21982 -1.48331e-11)
(459.178 1.3097 -2.68281e-11)
(459.031 1.65592 -1.22144e-11)
(458.935 1.59207 -3.06029e-12)
(458.748 2.11394 -1.9622e-11)
(458.634 1.85842 -2.47019e-11)
(458.412 2.5824 -1.1576e-11)
(458.274 2.12674 -1.314e-11)
(458.027 3.03674 2.30584e-12)
(457.855 2.42982 3.3003e-12)
(457.6 3.4168 1.85143e-11)
(457.368 2.84961 2.41516e-11)
(457.145 3.67904 8.61816e-12)
(456.813 3.3912 1.14985e-11)
(456.665 3.8038 1.1345e-11)
(456.193 4.10043 9.71392e-12)
(456.167 3.75082 2.67345e-12)
(455.505 5.01118 -3.77301e-12)
(462.43 0.116098 1.16888e-10)
(462.424 0.368245 -1.00546e-10)
(462.392 0.497068 2.31535e-12)
(462.357 0.78027 -1.57887e-11)
(462.288 0.935993 -2.05084e-11)
(462.233 1.17067 -1.29227e-12)
(462.122 1.40274 -2.77718e-11)
(462.05 1.53429 -2.98955e-11)
(461.898 1.89589 -7.3599e-12)
(461.811 1.87107 -6.03216e-12)
(461.616 2.41155 -3.00265e-11)
(461.514 2.1876 -2.59509e-11)
(461.282 2.93894 -4.17161e-12)
(461.158 2.50081 -1.16285e-11)
(460.902 3.45336 -3.15556e-12)
(460.739 2.84497 5.95929e-12)
(460.483 3.8997 1.49894e-11)
(460.248 3.29559 1.42913e-11)
(460.032 4.21702 5.27817e-12)
(459.699 3.87419 1.76357e-11)
(459.551 4.392 9.8498e-12)
(459.083 4.6166 -2.0402e-13)
(459.052 4.38664 4.18241e-12)
(458.395 5.55809 1.1014e-11)
(464.758 0.132493 1.35365e-10)
(464.752 0.417484 -7.68338e-11)
(464.72 0.564574 1.90688e-11)
(464.686 0.887813 3.21703e-12)
(464.617 1.05862 -4.32346e-12)
(464.563 1.3362 1.3072e-11)
(464.454 1.58088 -1.26256e-11)
(464.383 1.75637 -1.57771e-11)
(464.232 2.12999 8.055e-12)
(464.147 2.14715 7.60369e-12)
(463.953 2.70241 -1.40192e-11)
(463.855 2.51362 -1.24132e-11)
(463.622 3.28807 1.2357e-11)
(463.503 2.87057 -2.03716e-13)
(463.244 3.86552 9.38141e-12)
(463.088 3.24696 1.54423e-11)
(462.831 4.38212 2.73833e-11)
(462.6 3.73672 2.4179e-11)
(462.386 4.7451 1.72932e-11)
(462.056 4.35412 2.81044e-11)
(461.905 4.97374 2.11736e-11)
(461.444 5.12749 1.10717e-11)
(461.41 5.01912 1.27854e-11)
(460.759 6.09889 1.92054e-11)
(466.663 0.149577 1.22184e-10)
(466.656 0.464169 -8.74574e-11)
(466.627 0.632179 1.09493e-11)
(466.591 0.991709 -3.71484e-12)
(466.526 1.18005 -1.03752e-11)
(466.468 1.49735 6.19591e-12)
(466.366 1.75623 -1.68345e-11)
(466.29 1.97361 -1.77768e-11)
(466.148 2.35963 5.69768e-12)
(466.057 2.41808 5.59357e-12)
(465.873 2.98743 -1.39101e-11)
(465.769 2.83413 -1.02343e-11)
(465.545 3.63061 1.48361e-11)
(465.423 3.23438 1.81922e-12)
(465.17 4.26908 1.41005e-11)
(465.016 3.6472 2.08982e-11)
(464.757 4.85426 3.44074e-11)
(464.537 4.1663 2.98836e-11)
(464.319 5.26766 2.6372e-11)
(463.995 4.82919 3.79682e-11)
(463.842 5.54803 1.07382e-11)
(463.389 5.63182 -2.01149e-11)
(463.351 5.64509 -1.44475e-11)
(462.708 6.63242 -1.02628e-11)
(468.207 0.166822 1.20577e-10)
(468.201 0.509114 -8.59054e-11)
(468.172 0.69931 8.46736e-12)
(468.136 1.09229 -8.97521e-12)
(468.074 1.30033 -1.5025e-11)
(468.014 1.65366 1.05539e-12)
(467.917 1.92965 -2.37566e-11)
(467.838 2.18479 -2.70298e-11)
(467.702 2.58627 -4.06854e-12)
(467.608 2.6824 -3.34811e-12)
(467.432 3.26782 -2.36597e-11)
(467.323 3.14856 -1.84924e-11)
(467.109 3.96605 4.90498e-12)
(466.983 3.59421 -6.36494e-12)
(466.737 4.66211 1.30247e-12)
(466.584 4.04515 8.56137e-12)
(466.324 5.31271 1.91155e-11)
(466.117 4.58737 1.75413e-11)
(465.891 5.78656 9.13512e-12)
(465.577 5.2972 2.08075e-11)
(465.422 6.11294 1.5619e-11)
(464.978 6.12826 7.28457e-12)
(464.935 6.26503 9.68295e-12)
(464.301 7.15744 1.42785e-11)
(469.443 0.1839 1.18984e-10)
(469.436 0.552801 -8.72423e-11)
(469.409 0.765411 3.26251e-12)
(469.372 1.19036 -1.47618e-11)
(469.312 1.41867 -2.26936e-11)
(469.252 1.80619 -9.86658e-12)
(469.158 2.10007 -3.66212e-11)
(469.078 2.39094 -4.24258e-11)
(468.947 2.80869 -2.03343e-11)
(468.851 2.94074 -2.08312e-11)
(468.681 3.54268 -4.80312e-11)
(468.571 3.45657 -4.22112e-11)
(468.362 4.29431 -2.54044e-11)
(468.236 3.94791 -1.09143e-11)
(467.995 5.04586 2.39021e-11)
(467.845 4.43865 2.45572e-11)
(467.586 5.75774 3.61933e-11)
(467.389 5.00404 2.90687e-11)
(467.155 6.29943 2.02113e-11)
(466.855 5.75168 3.04141e-11)
(466.696 6.66972 2.35531e-11)
(466.262 6.61775 1.23344e-11)
(466.214 6.87704 1.4616e-11)
(465.59 7.67349 1.69347e-11)
(470.423 0.200772 1.25477e-10)
(470.417 0.595371 -6.61867e-11)
(470.39 0.830332 2.60156e-12)
(470.353 1.28599 -3.27442e-11)
(470.295 1.53469 -2.55383e-11)
(470.235 1.9549 -1.66671e-12)
(470.143 2.26715 -1.6858e-11)
(470.064 2.59227 -8.87955e-12)
(469.936 3.0268 -3.19962e-12)
(469.84 3.1933 -2.10042e-11)
(469.674 3.81192 -3.62267e-11)
(469.564 3.75815 -2.09966e-11)
(469.361 4.61542 1.37735e-11)
(469.236 4.29507 7.16824e-12)
(468.998 5.42064 -6.33227e-12)
(468.852 4.82632 -1.30946e-11)
(468.594 6.19047 2.75414e-12)
(468.406 5.41621 1.16689e-11)
(468.166 6.80302 1.43954e-11)
(467.881 6.19521 3.57015e-11)
(467.716 7.21836 1.23281e-11)
(467.292 7.09859 -1.4573e-11)
(467.241 7.48128 -1.33724e-12)
(466.629 8.17916 1.39937e-11)
(471.176 0.217477 1.11509e-10)
(471.17 0.637144 -1.02638e-10)
(471.144 0.894119 1.09331e-11)
(471.107 1.3796 1.86685e-11)
(471.05 1.64858 -1.82372e-12)
(470.99 2.10053 1.07561e-12)
(470.901 2.43093 -3.50777e-11)
(470.822 2.78888 -5.13657e-11)
(470.697 3.24 -6.4432e-12)
(470.602 3.44 1.70685e-11)
(470.44 4.07518 -1.70811e-11)
(470.331 4.05309 -2.64998e-11)
(470.132 4.92912 -1.84164e-11)
(470.009 4.63505 -1.22664e-11)
(469.775 5.78639 1.6825e-11)
(469.632 5.20663 1.41146e-11)
(469.376 6.61209 1.27186e-11)
(469.196 5.82331 9.75809e-13)
(468.951 7.29403 -2.4176e-11)
(468.682 6.62775 8.01795e-12)
(468.51 7.76089 2.48704e-11)
(468.099 7.5699 8.60477e-12)
(468.043 8.07478 -1.26737e-12)
(467.444 8.67354 -1.04614e-11)
(471.739 0.233984 1.25358e-10)
(471.733 0.67804 -5.65165e-11)
(471.707 0.956614 4.50777e-12)
(471.67 1.47108 -3.69077e-11)
(471.614 1.75996 -2.74485e-11)
(471.555 2.24259 7.1298e-13)
(471.467 2.59104 -8.60347e-12)
(471.389 2.98129 -2.45802e-12)
(471.267 3.44891 -3.2837e-12)
(471.173 3.68103 -2.12404e-11)
(471.014 4.33199 -3.06438e-11)
(470.907 4.34097 -1.3861e-11)
(470.711 5.23517 2.32366e-11)
(470.59 4.96751 -1.5026e-11)
(470.36 6.1431 -3.56499e-11)
(470.221 5.57908 -9.46859e-12)
(469.968 7.02275 1.28145e-11)
(469.795 6.22473 2.4443e-11)
(469.547 7.77238 2.78355e-11)
(469.291 7.0508 1.4063e-11)
(469.114 8.2933 -1.15453e-11)
(468.718 8.02931 -3.7075e-12)
(468.657 8.65882 1.13707e-11)
(468.072 9.15594 2.50567e-11)
(472.128 0.249988 1.11671e-10)
(472.122 0.717821 -9.08097e-11)
(472.097 1.01763 -1.24408e-11)
(472.061 1.56046 -4.09909e-11)
(472.006 1.86908 -1.75546e-11)
(471.948 2.382 2.54788e-11)
(471.861 2.74818 -4.80667e-12)
(471.784 3.16953 -1.99407e-11)
(471.664 3.65312 -6.92304e-12)
(471.571 3.91712 -1.12415e-11)
(471.415 4.5839 -4.14333e-11)
(471.309 4.62298 -4.35185e-11)
(471.116 5.53403 4.89223e-12)
(470.998 5.29243 1.41522e-11)
(470.771 6.49078 1.27706e-11)
(470.637 5.94331 1.26217e-11)
(470.385 7.42231 1.66619e-11)
(470.219 6.61911 8.92196e-12)
(469.97 8.23779 -1.25759e-11)
(469.728 7.46307 -8.17955e-12)
(469.545 8.81457 -2.21956e-11)
(469.164 8.4763 -3.86357e-13)
(469.099 9.23113 2.84085e-11)
(468.528 9.62582 2.16196e-11)
(472.37 0.265626 1.19143e-10)
(472.364 0.756546 -6.72469e-11)
(472.339 1.07719 1.93335e-11)
(472.304 1.64772 9.45124e-12)
(472.25 1.97546 4.34383e-12)
(472.193 2.5175 2.1418e-11)
(472.108 2.90119 2.81211e-12)
(472.032 3.35373 2.34301e-12)
(471.915 3.85368 3.07397e-11)
(471.823 4.14859 -6.10231e-13)
(471.67 4.82984 -5.68292e-11)
(471.566 4.89907 -4.69667e-11)
(471.376 5.82703 -2.62013e-11)
(471.261 5.6105 -3.39789e-11)
(471.037 6.82947 -2.65516e-11)
(470.906 6.29912 -1.10684e-11)
(470.657 7.81107 9.2457e-13)
(470.498 7.00592 5.65854e-12)
(470.248 8.69002 -7.18104e-13)
(470.017 7.86567 1.88173e-11)
(469.83 9.32366 1.95376e-11)
(469.463 8.90981 1.35608e-11)
(469.395 9.7907 1.76907e-11)
(468.839 10.0819 2.5179e-11)
(472.475 0.280931 1.13205e-10)
(472.469 0.794408 -7.89875e-11)
(472.445 1.13526 -9.48365e-14)
(472.41 1.73271 -1.56903e-11)
(472.357 2.07926 -2.663e-11)
(472.301 2.6502 -1.91025e-11)
(472.219 3.05067 -4.03318e-11)
(472.145 3.53261 -4.49855e-11)
(472.03 4.04745 -2.52609e-11)
(471.941 4.37311 -2.39988e-11)
(471.791 5.0699 -4.47396e-11)
(471.69 5.16856 -4.30676e-11)
(471.504 6.11175 -3.02329e-11)
(471.392 5.92156 -4.12393e-11)
(471.172 7.16115 -4.3177e-11)
(471.045 6.64766 -3.269e-11)
(470.798 8.1901 1.33986e-11)
(470.644 7.38514 4.46093e-11)
(470.394 9.12971 3.67087e-11)
(470.175 8.25948 4.38859e-11)
(469.983 9.82259 3.97607e-11)
(469.629 9.33143 2.46019e-11)
(469.557 10.3383 2.54968e-11)
(469.015 10.5256 2.8926e-11)
(472.437 0.295694 9.86711e-11)
(472.432 0.830823 -6.74926e-11)
(472.408 1.19117 2.75223e-11)
(472.374 1.81459 -1.15846e-11)
(472.323 2.17904 -2.19268e-12)
(472.268 2.77753 2.7383e-11)
(472.188 3.19431 -1.95158e-11)
(472.116 3.70553 -4.92487e-11)
(472.004 4.23525 -8.79575e-12)
(471.917 4.59044 1.22811e-11)
(471.771 5.30107 -3.19461e-11)
(471.673 5.42879 -1.50631e-11)
(471.492 6.3877 1.74179e-11)
(471.383 6.22351 -2.18055e-11)
(471.167 7.48266 4.04542e-13)
(471.045 6.98799 2.40692e-11)
(470.802 8.55995 9.07467e-12)
(470.655 7.75683 -1.4961e-11)
(470.406 9.55711 -1.11904e-11)
(470.199 8.64509 1.78355e-11)
(470.003 10.3117 -1.08396e-11)
(469.665 9.74104 -2.16277e-12)
(469.59 10.8743 1.35065e-11)
(469.063 10.9577 -6.7081e-12)
(472.262 0.309907 1.18445e-10)
(472.257 0.866034 -5.54549e-11)
(472.234 1.24527 2.71175e-11)
(472.201 1.89387 2.05312e-11)
(472.151 2.27569 1.51486e-11)
(472.097 2.90112 -8.55843e-12)
(472.019 3.33347 -6.30524e-11)
(471.949 3.87286 -5.813e-11)
(471.84 4.41669 -2.67247e-11)
(471.755 4.8009 -1.78267e-11)
(471.613 5.52502 -3.19497e-11)
(471.518 5.68105 -1.91012e-11)
(471.341 6.6542 8.61659e-12)
(471.236 6.51533 2.82834e-12)
(471.025 7.7927 1.86723e-11)
(470.908 7.31628 2.80136e-11)
(470.67 8.91561 4.59532e-11)
(470.531 8.11587 8.52691e-12)
(470.285 9.96691 -3.87096e-11)
(470.091 9.01782 -1.35074e-11)
(469.892 10.7846 -1.07784e-11)
(469.572 10.1345 -1.41916e-11)
(469.493 11.3948 -1.2054e-11)
(468.984 11.3744 1.47501e-12)
(471.997 0.323747 1.00867e-10)
(471.992 0.900151 -9.92283e-11)
(471.969 1.29762 4.59276e-12)
(471.937 1.97063 2.03904e-11)
(471.888 2.36915 -7.21665e-12)
(471.836 3.0207 -8.8391e-12)
(471.76 3.46786 -4.03145e-11)
(471.691 4.0345 -1.70577e-11)
(471.585 4.59169 3.3113e-11)
(471.503 5.00387 1.78038e-11)
(471.364 5.74044 -1.79268e-11)
(471.271 5.92398 -3.20475e-11)
(471.098 6.91054 -3.36933e-11)
(470.997 6.79651 -1.84138e-11)
(470.79 8.0909 1.40642e-11)
(470.678 7.63284 7.06653e-12)
(470.443 9.25776 3.05611e-12)
(470.31 8.46261 -1.21326e-11)
(470.066 10.3596 4.12381e-12)
(469.884 9.37816 3.9875e-11)
(469.681 11.2404 2.19775e-11)
(469.377 10.5124 -5.84514e-12)
(469.293 11.8988 -2.54876e-11)
(468.802 11.7733 5.71131e-12)
(471.629 0.337102 9.8235e-11)
(471.624 0.93307 -9.69614e-11)
(471.602 1.34812 4.10693e-12)
(471.57 2.04473 2.52826e-11)
(471.523 2.4593 2.34311e-12)
(471.473 3.13612 -3.95943e-12)
(471.399 3.59767 -4.02523e-11)
(471.332 4.19118 -6.49296e-11)
(471.229 4.76115 -1.49949e-11)
(471.149 5.20092 2.23126e-11)
(471.014 5.94962 -8.14668e-12)
(470.925 6.16032 -2.27393e-11)
(470.756 7.15966 -2.3754e-11)
(470.659 7.0703 -9.3771e-12)
(470.456 8.38086 2.42095e-11)
(470.349 7.94141 1.1414e-11)
(470.118 9.59062 8.16437e-12)
(469.992 8.80129 -3.55269e-12)
(469.751 10.7411 1.38883e-11)
(469.579 9.73081 4.86034e-11)
(469.374 11.6854 3.19401e-11)
(469.086 10.8803 2.82288e-12)
(468.997 12.3916 -1.13698e-11)
(468.523 12.1594 -2.10034e-11)
(471.157 0.349834 9.12268e-11)
(471.153 0.964475 -5.6373e-11)
(471.132 1.39623 2.79833e-11)
(471.101 2.11548 -1.66827e-11)
(471.055 2.54526 -5.11834e-11)
(471.006 3.24648 -1.95164e-11)
(470.935 3.72148 -1.55204e-11)
(470.871 4.34078 -5.01312e-11)
(470.771 4.9227 -1.0353e-11)
(470.694 5.38912 1.24333e-11)
(470.563 6.14895 -3.32328e-11)
(470.478 6.38603 -8.26947e-12)
(470.314 7.39716 3.25047e-11)
(470.221 7.33191 -1.38933e-11)
(470.024 8.65748 -4.24065e-11)
(469.923 8.23649 -1.15218e-11)
(469.697 9.90837 2.38472e-11)
(469.578 9.12556 9.22554e-13)
(469.341 11.105 8.54854e-12)
(469.18 10.07 3.53976e-11)
(468.974 12.1111 6.79124e-12)
(468.703 11.2317 1.64066e-11)
(468.609 12.8677 3.78366e-11)
(468.155 12.528 1.11697e-11)
(470.592 0.361988 1.21541e-10)
(470.587 0.994461 -3.14417e-11)
(470.567 1.44213 4.25511e-11)
(470.537 2.18309 -6.28764e-12)
(470.493 2.62727 -4.62352e-11)
(470.446 3.35199 -2.00032e-11)
(470.377 3.83969 -2.04954e-11)
(470.315 4.48401 -8.88117e-12)
(470.219 5.07711 2.57513e-11)
(470.145 5.56948 -7.806e-12)
(470.018 6.33967 -5.94365e-11)
(469.937 6.60251 -3.78316e-11)
(469.777 7.62456 -4.19156e-12)
(469.689 7.58299 -4.1181e-12)
(469.497 8.92252 1.62558e-11)
(469.401 8.51994 3.59097e-11)
(469.181 10.2131 1.34993e-11)
(469.069 9.43755 -1.77072e-11)
(468.836 11.4543 -1.8364e-11)
(468.685 10.3982 7.83909e-12)
(468.479 12.5205 2.2721e-11)
(468.225 11.569 2.58773e-11)
(468.127 13.3279 4.31647e-11)
(467.693 12.8802 1.10623e-11)
(469.934 0.373512 1.27289e-10)
(469.93 1.02292 -5.8468e-11)
(469.91 1.48562 -1.49565e-11)
(469.882 2.24728 4.71924e-12)
(469.839 2.70499 -2.03474e-11)
(469.794 3.45225 -2.57883e-11)
(469.728 3.95179 -4.53048e-12)
(469.668 4.62023 -3.02184e-11)
(469.576 5.22366 -3.31707e-11)
(469.505 5.7412 7.73898e-12)
(469.383 6.52087 -2.16731e-11)
(469.305 6.80881 -3.77112e-11)
(469.15 7.84084 1.77623e-11)
(469.068 7.82243 -1.39743e-11)
(468.88 9.17476 -3.33131e-11)
(468.791 8.79035 6.42388e-12)
(468.576 10.5032 2.84628e-12)
(468.472 9.73539 -8.09892e-12)
(468.243 11.7867 9.32381e-12)
(468.103 10.7131 3.08432e-12)
(467.896 12.9114 -1.55607e-11)
(467.659 11.8896 6.71937e-12)
(467.559 13.7691 -1.49051e-11)
(467.145 13.2142 -2.33683e-11)
(469.189 0.384401 7.14033e-11)
(469.185 1.04982 -8.0361e-11)
(469.166 1.52666 -1.55002e-11)
(469.139 2.308 -2.40543e-11)
(469.098 2.77833 -2.01523e-11)
(469.055 3.54714 -3.77568e-12)
(468.991 4.0576 -1.52636e-11)
(468.934 4.74924 -1.35639e-11)
(468.845 5.36212 1.07348e-11)
(468.779 5.904 1.84095e-11)
(468.66 6.69228 1.19024e-11)
(468.587 7.00466 -3.22415e-11)
(468.437 8.04575 -1.01907e-11)
(468.359 8.05003 -1.92118e-11)
(468.178 9.4141 -1.07626e-11)
(468.094 9.0477 1.31105e-12)
(467.885 10.7788 2.00622e-11)
(467.789 10.0192 2.68669e-11)
(467.564 12.1027 2.07424e-11)
(467.435 11.015 3.26046e-11)
(467.229 13.2845 -1.55876e-11)
(467.008 12.1943 -1.79711e-11)
(466.905 14.1911 -1.46425e-11)
(466.511 13.53 -8.26327e-12)
(468.36 0.394645 1.11957e-10)
(468.356 1.07515 -2.74227e-11)
(468.338 1.56521 3.92527e-11)
(468.311 2.36521 -1.2387e-11)
(468.273 2.84722 -5.33066e-11)
(468.231 3.63656 -3.29364e-11)
(468.171 4.157 -3.18776e-11)
(468.116 4.87088 -1.93843e-11)
(468.031 5.49225 1.05004e-11)
(467.968 6.05763 2.94175e-11)
(467.854 6.85358 -2.22513e-11)
(467.785 7.18969 -5.41801e-11)
(467.641 8.23885 -2.16597e-11)
(467.568 8.26531 -2.44943e-11)
(467.392 9.64 -5.03098e-12)
(467.315 9.29134 1.69505e-11)
(467.111 11.0392 4.94168e-11)
(467.023 10.2881 6.30095e-11)
(466.804 12.4014 9.29907e-12)
(466.685 11.3023 -1.81061e-11)
(466.481 13.6381 -3.79589e-12)
(466.277 12.4827 2.5138e-12)
(466.171 14.5947 1.9554e-11)
(465.797 13.8283 3.83628e-11)
(467.449 0.404227 1.25382e-10)
(467.446 1.09887 -5.64022e-11)
(467.428 1.60122 -3.45665e-11)
(467.403 2.41881 -1.88595e-11)
(467.366 2.91153 1.50852e-11)
(467.326 3.72037 2.60013e-12)
(467.269 4.2498 -4.33807e-11)
(467.217 4.98493 -1.93807e-11)
(467.136 5.6138 -2.45097e-11)
(467.076 6.20178 -4.55244e-11)
(466.967 7.0044 -2.22343e-11)
(466.903 7.36352 1.35047e-11)
(466.764 8.41977 2.35817e-12)
(466.697 8.46792 -3.54791e-11)
(466.526 9.85217 9.23988e-13)
(466.456 9.52105 3.86045e-11)
(466.258 11.2843 2.57009e-11)
(466.178 10.542 -4.37584e-13)
(465.964 12.683 2.17183e-11)
(465.855 11.5739 7.93723e-12)
(465.655 13.9709 -2.18569e-11)
(465.468 12.7544 -2.67423e-12)
(465.359 14.98 3.13249e-11)
(465.005 14.1094 1.18185e-11)
(466.46 0.413137 6.76727e-11)
(466.456 1.12096 -8.01518e-11)
(466.44 1.63465 -2.32719e-11)
(466.415 2.46875 -3.15867e-11)
(466.38 2.97122 -3.14406e-11)
(466.343 3.79849 -2.19404e-11)
(466.288 4.33592 -3.16781e-11)
(466.239 5.0913 -3.14232e-11)
(466.161 5.72662 -1.26717e-11)
(466.106 6.33628 -1.06067e-11)
(466.001 7.14448 -1.62319e-11)
(465.942 7.52583 -3.63078e-12)
(465.808 8.58805 1.48984e-11)
(465.747 8.65733 -1.43516e-12)
(465.582 10.05 7.19323e-12)
(465.519 9.73619 1.64811e-11)
(465.327 11.5135 3.23436e-11)
(465.255 10.7802 3.24105e-11)
(465.046 12.9467 2.822e-11)
(464.949 11.8293 4.02254e-11)
(464.752 14.2818 4.6054e-11)
(464.582 13.0085 -2.41449e-11)
(464.471 15.346 -2.89889e-11)
(464.137 14.3726 -1.55111e-11)
(465.393 0.421358 1.41688e-10)
(465.39 1.14137 -1.63757e-11)
(465.374 1.66544 1.73827e-11)
(465.351 2.51496 6.60345e-12)
(465.318 3.0262 -1.49222e-12)
(465.282 3.87084 2.8614e-12)
(465.23 4.41526 -1.34864e-11)
(465.185 5.18988 -1.91087e-11)
(465.111 5.83061 -6.59815e-12)
(465.059 6.46102 -1.09622e-11)
(464.959 7.27369 -2.24103e-11)
(464.904 7.67647 -2.13217e-11)
(464.776 8.7435 -9.75243e-12)
(464.721 8.83332 -2.46554e-11)
(464.562 10.2332 -3.0419e-11)
(464.506 9.93642 -2.91561e-11)
(464.32 11.7265 -1.82233e-11)
(464.257 11.0025 4.37908e-11)
(464.054 13.1925 2.88106e-11)
(463.967 12.0683 2.9567e-11)
(463.774 14.5706 3.39629e-11)
(463.621 13.245 1.41295e-11)
(463.507 15.6911 8.18256e-12)
(463.196 14.6163 1.21972e-11)
(464.252 0.428871 1.25694e-10)
(464.248 1.16007 -4.10306e-11)
(464.234 1.69352 -1.94321e-11)
(464.212 2.55735 6.09644e-12)
(464.181 3.07635 -1.34526e-11)
(464.147 3.9373 -2.30615e-11)
(464.098 4.48769 -1.07279e-12)
(464.055 5.28055 -2.52814e-11)
(463.985 5.92563 -2.55033e-11)
(463.937 6.57587 1.35182e-11)
(463.842 7.39187 -1.6118e-11)
(463.793 7.81525 -2.7343e-11)
(463.67 8.88583 2.84499e-11)
(463.62 8.99555 -6.6818e-12)
(463.468 10.4013 -2.42251e-11)
(463.419 10.1212 1.73389e-11)
(463.24 11.9225 1.40709e-11)
(463.185 11.208 -1.70954e-12)
(462.988 13.4199 2.91396e-11)
(462.912 12.2903 1.83872e-11)
(462.723 14.8371 -4.6568e-12)
(462.586 13.4638 2.55289e-11)
(462.471 16.0143 8.66779e-12)
(462.182 14.8401 -1.02696e-11)
(463.037 0.435666 7.64954e-11)
(463.034 1.17703 -3.87164e-11)
(463.02 1.71886 1.71153e-11)
(463 2.59587 -3.37361e-11)
(462.97 3.12162 -7.16844e-12)
(462.939 3.9978 2.25698e-11)
(462.893 4.55315 -3.87405e-11)
(462.853 5.36324 -1.88618e-11)
(462.787 6.01163 1.8864e-11)
(462.743 6.68079 -2.46524e-11)
(462.653 7.49899 -9.80593e-12)
(462.608 7.9422 2.2288e-11)
(462.491 9.01504 -3.59607e-12)
(462.447 9.144 -5.29924e-13)
(462.301 10.5541 2.80947e-11)
(462.26 10.2903 -1.24548e-11)
(462.086 12.1014 2.07021e-11)
(462.041 11.3964 4.5092e-11)
(461.851 13.6283 -3.69385e-12)
(461.785 12.4945 2.42029e-11)
(461.601 15.0818 4.82213e-11)
(461.479 13.6654 -2.94801e-12)
(461.363 16.3146 1.53538e-11)
(461.097 15.0432 3.58088e-11)
(461.751 0.441732 1.1398e-10)
(461.748 1.19222 1.3275e-13)
(461.735 1.74142 4.8168e-11)
(461.716 2.63046 1.09237e-13)
(461.689 3.16194 -4.48495e-11)
(461.659 4.05224 -1.75437e-11)
(461.616 4.61152 -6.71817e-12)
(461.58 5.43783 7.32729e-12)
(461.517 6.08846 4.47908e-11)
(461.477 6.77566 7.23076e-12)
(461.392 7.59492 -4.91712e-11)
(461.352 8.05719 -2.15591e-11)
(461.24 9.13103 2.29622e-11)
(461.203 9.27862 2.44092e-11)
(461.063 10.6917 4.81751e-11)
(461.029 10.4437 5.5327e-12)
(460.862 12.2628 -2.64524e-11)
(460.825 11.5672 3.5499e-12)
(460.642 13.817 1.00383e-11)
(460.587 12.6799 3.62148e-11)
(460.408 15.3048 6.86648e-11)
(460.302 13.8504 8.37445e-12)
(460.184 16.5913 -3.79017e-11)
(459.941 15.2251 -1.10342e-11)
(460.395 0.447074 5.6508e-11)
(460.392 1.20567 -6.97666e-11)
(460.38 1.76123 -3.48052e-11)
(460.362 2.66114 -4.80054e-11)
(460.337 3.19731 -4.4926e-11)
(460.309 4.10063 -3.80858e-11)
(460.269 4.66277 -5.22103e-11)
(460.236 5.50428 -5.91574e-11)
(460.177 6.15607 -4.06113e-11)
(460.141 6.8604 -3.90592e-11)
(460.061 7.67958 -4.93105e-11)
(460.026 8.16018 -4.07846e-11)
(459.92 9.23375 -2.36035e-11)
(459.889 9.39941 -3.86246e-11)
(459.755 10.8139 -3.95723e-11)
(459.728 10.5813 -3.17511e-11)
(459.568 12.4067 -1.9666e-11)
(459.54 11.7203 -1.45397e-11)
(459.363 13.986 -3.07125e-11)
(459.319 12.8461 -1.72471e-11)
(459.146 15.5053 -2.00923e-11)
(459.055 14.0184 -2.72568e-11)
(458.936 16.844 -3.10846e-11)
(458.717 15.3855 -2.28836e-11)
(458.97 0.451697 1.21458e-10)
(458.967 1.21738 -2.93304e-11)
(458.956 1.77829 -2.27328e-11)
(458.939 2.68792 1.44977e-11)
(458.916 3.22776 -5.69206e-12)
(458.891 4.14295 -1.78183e-11)
(458.853 4.7069 1.38144e-11)
(458.823 5.56255 -1.18056e-11)
(458.769 6.21439 -1.41245e-11)
(458.737 6.93492 3.36412e-11)
(458.661 7.75287 4.59403e-12)
(458.631 8.25107 -1.45813e-11)
(458.531 9.32309 5.1313e-11)
(458.505 9.50632 1.26216e-11)
(458.378 10.9208 -5.30765e-12)
(458.358 10.7033 -1.93203e-11)
(458.204 12.5331 -2.6623e-11)
(458.186 11.8557 2.25466e-11)
(458.015 14.1351 -9.35506e-12)
(457.982 12.9926 -1.71036e-11)
(457.816 15.6828 2.87121e-11)
(457.739 14.1685 -3.41373e-12)
(457.621 17.072 -3.10272e-11)
(457.425 15.5242 1.95148e-11)
(457.477 0.455612 1.2907e-10)
(457.475 1.22738 -1.86872e-11)
(457.465 1.79265 -1.70436e-11)
(457.449 2.71086 2.16353e-11)
(457.427 3.25334 1.00816e-12)
(457.404 4.17929 -1.1291e-11)
(457.37 4.74397 2.06883e-11)
(457.342 5.61269 -4.7729e-12)
(457.292 6.26345 -7.656e-12)
(457.264 6.99922 -2.72674e-11)
(457.193 7.81471 -5.67673e-11)
(457.168 8.32973 -1.21261e-12)
(457.073 9.39889 -3.38968e-12)
(457.055 9.59919 -3.92698e-11)
(456.933 11.0121 8.42233e-12)
(456.921 10.8096 -6.81528e-12)
(456.774 12.6421 -1.298e-11)
(456.764 11.9737 3.53251e-11)
(456.599 14.2646 5.37751e-12)
(456.578 13.1197 -4.69382e-12)
(456.417 15.8376 4.2656e-11)
(456.354 14.2991 8.3478e-12)
(456.239 17.2737 -1.02667e-11)
(456.065 15.6412 3.81483e-11)
(455.918 0.458833 1.11422e-10)
(455.916 1.23569 3.00145e-11)
(455.906 1.80436 9.05267e-12)
(455.891 2.73001 -3.57213e-11)
(455.872 3.27412 8.88221e-13)
(455.851 4.20972 4.486e-11)
(455.819 4.77406 -6.14576e-12)
(455.795 5.65479 -5.31345e-11)
(455.748 6.30331 -9.6687e-13)
(455.724 7.05335 3.37643e-11)
(455.659 7.86513 -8.5113e-12)
(455.638 8.39616 -3.47051e-11)
(455.549 9.46107 1.76295e-11)
(455.537 9.6779 3.32065e-11)
(455.421 11.0878 -5.40804e-12)
(455.417 10.9 -3.28452e-11)
(455.276 12.7336 1.52025e-11)
(455.275 12.0743 4.83154e-11)
(455.117 14.3746 6.12312e-12)
(455.107 13.2278 -1.69977e-11)
(454.951 15.9705 1.39684e-11)
(454.903 14.4091 2.67023e-11)
(454.791 17.4472 -2.96204e-12)
(454.64 15.7367 -2.94819e-11)
(454.293 0.461364 8.48691e-11)
(454.291 1.24233 -3.5596e-11)
(454.282 1.81346 -2.44458e-11)
(454.268 2.74542 -5.07104e-11)
(454.251 3.29017 -5.99643e-11)
(454.232 4.23431 -6.18989e-11)
(454.203 4.79726 -1.31764e-11)
(454.182 5.68893 3.80798e-11)
(454.139 6.33406 4.74373e-11)
(454.119 7.09739 4.04345e-11)
(454.058 7.90416 1.94322e-11)
(454.043 8.45037 1.28143e-11)
(453.959 9.50959 2.49853e-11)
(453.953 9.74235 1.05532e-13)
(453.843 11.1476 -1.24442e-11)
(453.847 10.9743 -1.99794e-11)
(453.712 12.8072 -1.34828e-11)
(453.721 12.1573 -1.56669e-11)
(453.569 14.4651 -4.39294e-11)
(453.57 13.3169 -3.59197e-11)
(453.42 16.0818 2.08096e-11)
(453.385 14.4989 5.80463e-11)
(453.277 17.5924 5.52149e-11)
(453.149 15.8099 4.53112e-11)
(452.603 0.463214 5.79806e-11)
(452.601 1.24732 -2.47596e-11)
(452.593 1.81996 8.68102e-12)
(452.58 2.75712 -5.81683e-11)
(452.564 3.30154 -4.00116e-11)
(452.547 4.25313 -1.16822e-11)
(452.522 4.81365 -6.41602e-12)
(452.503 5.71522 3.20509e-12)
(452.464 6.35582 -3.58881e-11)
(452.448 7.13148 -1.5662e-11)
(452.391 7.93196 -1.50216e-12)
(452.381 8.49252 -4.87555e-11)
(452.303 9.54453 -1.03856e-11)
(452.303 9.79263 -6.55467e-12)
(452.2 11.1915 8.91987e-12)
(452.211 11.0324 2.6094e-11)
(452.083 12.8626 -6.20559e-12)
(452.102 12.2222 1.68301e-11)
(451.956 14.5355 2.19675e-11)
(451.968 13.3867 -2.33453e-11)
(451.824 16.1715 -9.00501e-12)
(451.803 14.569 1.37417e-12)
(451.698 17.7098 1.87505e-11)
(451.591 15.8609 3.27631e-11)
(450.848 0.46438 1.28183e-10)
(450.846 1.25066 1.7956e-12)
(450.839 1.82387 -1.2064e-11)
(450.828 2.76511 -4.3745e-11)
(450.814 3.30824 -5.38269e-11)