/*--------------------------------*- C++ -*----------------------------------*\
  =========                 |
  \\      /  F ield         | OpenFOAM: The Open Source CFD Toolbox
   \\    /   O peration     | Website:  https://openfoam.org
    \\  /    A nd           | Version:  10
     \\/     M anipulation  |
\*---------------------------------------------------------------------------*/
FoamFile
{
    format      ascii;
    class       volScalarField;
    location    "0.18";
    object      Ma;
}
// * * * * * * * * * * * * * * * * * * * * * * * * * * * * * * * * * * * * * //

dimensions      [0 0 0 0 0 0 0];

internalField   nonuniform List<scalar> 
4176
(
1.84505
1.84498
1.84478
1.84454
1.84412
1.84375
1.8431
1.84259
1.84171
1.84108
1.83997
1.83921
1.83791
1.837
1.83554
1.8344
1.83294
1.8314
1.83008
1.82797
1.82702
1.82408
1.8239
1.8201
1.84494
1.84486
1.84466
1.84441
1.84399
1.8436
1.84294
1.84241
1.84153
1.84087
1.83975
1.83896
1.83763
1.83669
1.8352
1.83403
1.83253
1.83096
1.82961
1.82746
1.8265
1.82344
1.82322
1.81904
1.84459
1.84451
1.84432
1.84407
1.84367
1.84327
1.84265
1.84212
1.84127
1.84061
1.83953
1.83875
1.83745
1.83654
1.83506
1.83394
1.83245
1.83093
1.8296
1.82751
1.82661
1.8236
1.82338
1.81908
1.84394
1.84386
1.84367
1.84343
1.84302
1.84263
1.842
1.84147
1.84062
1.83997
1.83888
1.83811
1.8368
1.8359
1.83441
1.8333
1.83179
1.83024
1.82899
1.82682
1.82595
1.823
1.8228
1.8187
1.84299
1.84292
1.84273
1.84249
1.84209
1.8417
1.84108
1.84056
1.83972
1.83908
1.838
1.83724
1.83594
1.83506
1.83358
1.83249
1.83097
1.82945
1.82822
1.82604
1.82519
1.82227
1.82207
1.81809
1.84175
1.84167
1.84148
1.84124
1.84085
1.84046
1.83986
1.83933
1.83851
1.83786
1.8368
1.83604
1.83476
1.83388
1.83241
1.83134
1.8298
1.82835
1.82705
1.82494
1.82406
1.82117
1.82093
1.81696
1.8402
1.84013
1.83994
1.8397
1.83932
1.83893
1.83833
1.83782
1.837
1.83636
1.83532
1.83456
1.8333
1.83243
1.83097
1.82993
1.82838
1.827
1.82564
1.82361
1.8227
1.81986
1.81959
1.81564
1.83835
1.83828
1.8381
1.83786
1.83748
1.8371
1.83651
1.836
1.83519
1.83456
1.83353
1.83279
1.83154
1.83068
1.82924
1.82821
1.82667
1.82533
1.82395
1.82199
1.82105
1.81826
1.81797
1.81408
1.83621
1.83614
1.83596
1.83572
1.83535
1.83497
1.83439
1.83389
1.83309
1.83247
1.83146
1.83072
1.82949
1.82865
1.82722
1.82622
1.82468
1.82339
1.82199
1.8201
1.81913
1.8164
1.8161
1.81226
1.83377
1.8337
1.83352
1.83329
1.83292
1.83255
1.83197
1.83148
1.8307
1.83008
1.82908
1.82836
1.82715
1.82632
1.82491
1.82393
1.82241
1.82116
1.81974
1.81792
1.81694
1.81427
1.81395
1.81018
1.83103
1.83096
1.83078
1.83056
1.83019
1.82983
1.82926
1.82878
1.82801
1.8274
1.82642
1.82572
1.82452
1.82371
1.82232
1.82136
1.81985
1.81865
1.81723
1.81547
1.81446
1.81187
1.81153
1.80784
1.828
1.82793
1.82775
1.82753
1.82717
1.82682
1.82626
1.82578
1.82503
1.82443
1.82347
1.82278
1.8216
1.82081
1.81944
1.81851
1.81702
1.81585
1.81443
1.81274
1.81171
1.8092
1.80885
1.80523
1.82467
1.8246
1.82443
1.82421
1.82386
1.82351
1.82297
1.8225
1.82175
1.82118
1.82023
1.81955
1.8184
1.81763
1.81628
1.81537
1.8139
1.81278
1.81135
1.80973
1.8087
1.80626
1.8059
1.80235
1.82105
1.82098
1.82082
1.8206
1.82026
1.81992
1.81938
1.81892
1.81819
1.81763
1.8167
1.81604
1.81491
1.81416
1.81284
1.81195
1.81051
1.80942
1.80801
1.80645
1.80541
1.80304
1.80269
1.79922
1.81714
1.81707
1.81691
1.8167
1.81636
1.81603
1.81551
1.81506
1.81435
1.8138
1.81289
1.81224
1.81113
1.8104
1.80911
1.80826
1.80684
1.80579
1.80438
1.80289
1.80184
1.79956
1.79921
1.79581
1.81294
1.81287
1.81271
1.81251
1.81218
1.81185
1.81134
1.81091
1.81021
1.80968
1.80879
1.80816
1.80708
1.80637
1.8051
1.80428
1.80289
1.80187
1.80049
1.79906
1.79802
1.7958
1.79545
1.79215
1.80844
1.80838
1.80822
1.80802
1.8077
1.80739
1.80689
1.80647
1.80579
1.80527
1.8044
1.8038
1.80274
1.80206
1.80082
1.80003
1.79866
1.79769
1.79633
1.79496
1.79391
1.79179
1.79143
1.78822
1.80366
1.8036
1.80345
1.80325
1.80294
1.80263
1.80215
1.80174
1.80108
1.80058
1.79974
1.79916
1.79812
1.79747
1.79626
1.7955
1.79416
1.79323
1.79189
1.79058
1.78955
1.7875
1.78715
1.78402
1.79859
1.79853
1.79838
1.7982
1.79789
1.7976
1.79713
1.79674
1.79609
1.79561
1.79479
1.79424
1.79323
1.7926
1.79142
1.79069
1.78939
1.7885
1.78719
1.78595
1.78492
1.78296
1.7826
1.77957
1.79324
1.79318
1.79303
1.79285
1.79256
1.79228
1.79182
1.79144
1.79082
1.79036
1.78957
1.78904
1.78806
1.78746
1.78632
1.78562
1.78435
1.7835
1.78222
1.78104
1.78002
1.77814
1.77779
1.77485
1.7876
1.78754
1.7874
1.78723
1.78694
1.78667
1.78623
1.78587
1.78527
1.78483
1.78406
1.78356
1.78261
1.78204
1.78093
1.78027
1.77904
1.77823
1.77699
1.77587
1.77486
1.77307
1.77271
1.76987
1.78168
1.78162
1.78149
1.78132
1.78105
1.78079
1.78036
1.78002
1.77944
1.77903
1.77828
1.77781
1.77689
1.77635
1.77528
1.77466
1.77346
1.7727
1.77149
1.77043
1.76944
1.76773
1.76738
1.76464
1.77548
1.77542
1.77529
1.77513
1.77487
1.77463
1.77422
1.7739
1.77334
1.77295
1.77223
1.77178
1.7709
1.77039
1.76936
1.76877
1.76762
1.7669
1.76572
1.76472
1.76376
1.76214
1.76179
1.75915
1.769
1.76894
1.76882
1.76867
1.76842
1.76819
1.7678
1.76749
1.76696
1.76659
1.7659
1.76548
1.76463
1.76416
1.76316
1.76262
1.76151
1.76083
1.7597
1.75876
1.75781
1.75628
1.75595
1.75341
1.76224
1.76219
1.76207
1.76193
1.76169
1.76148
1.7611
1.76082
1.76031
1.75997
1.75931
1.75892
1.7581
1.75766
1.7567
1.7562
1.75513
1.7545
1.75341
1.75253
1.75161
1.75017
1.74984
1.74742
1.75522
1.75517
1.75506
1.75492
1.75469
1.75449
1.75414
1.75387
1.75339
1.75307
1.75244
1.75208
1.7513
1.7509
1.74998
1.74951
1.74849
1.74791
1.74686
1.74604
1.74516
1.7438
1.74349
1.74117
1.74793
1.74788
1.74777
1.74765
1.74743
1.74724
1.74691
1.74666
1.7462
1.74591
1.74531
1.74498
1.74424
1.74387
1.74299
1.74257
1.74159
1.74106
1.74005
1.73929
1.73844
1.73717
1.73687
1.73466
1.74037
1.74032
1.74022
1.7401
1.7399
1.73973
1.73941
1.73919
1.73875
1.73849
1.73792
1.73762
1.73691
1.73659
1.73575
1.73537
1.73443
1.73395
1.73299
1.73229
1.73147
1.73029
1.73
1.7279
1.73255
1.7325
1.73241
1.7323
1.73211
1.73195
1.73165
1.73145
1.73104
1.7308
1.73026
1.73
1.72933
1.72904
1.72824
1.72791
1.72701
1.72658
1.72567
1.72502
1.72425
1.72316
1.72289
1.72089
1.72448
1.72443
1.72434
1.72424
1.72406
1.72392
1.72364
1.72346
1.72307
1.72286
1.72235
1.72212
1.72149
1.72124
1.72048
1.72019
1.71934
1.71896
1.71809
1.71751
1.71678
1.71577
1.71553
1.71362
1.71615
1.7161
1.71602
1.71593
1.71576
1.71563
1.71537
1.71521
1.71485
1.71466
1.71419
1.71399
1.71339
1.71318
1.71247
1.71222
1.71142
1.71108
1.71027
1.70974
1.70905
1.70814
1.7079
1.70612
1.70757
1.70753
1.70745
1.70737
1.70721
1.7071
1.70685
1.70671
1.70638
1.70622
1.70577
1.70561
1.70504
1.70487
1.7042
1.70399
1.70324
1.70296
1.70219
1.70173
1.70108
1.70024
1.70003
1.69837
1.69874
1.6987
1.69863
1.69856
1.69842
1.69832
1.69809
1.69797
1.69766
1.69752
1.69711
1.69697
1.69645
1.69631
1.69568
1.69552
1.69481
1.69458
1.69387
1.69346
1.69286
1.6921
1.69191
1.69036
1.68968
1.68964
1.68957
1.68951
1.68938
1.68929
1.68908
1.68898
1.68869
1.68859
1.6882
1.6881
1.68761
1.68751
1.68692
1.6868
1.68614
1.68596
1.68529
1.68495
1.6844
1.68371
1.68355
1.68211
1.68037
1.68034
1.68028
1.68022
1.6801
1.68003
1.67984
1.67976
1.67949
1.67941
1.67905
1.67898
1.67852
1.67846
1.67791
1.67784
1.67722
1.6771
1.67647
1.67619
1.67569
1.67508
1.67494
1.67362
1.67084
1.6708
1.67075
1.6707
1.67059
1.67053
1.67036
1.6703
1.67005
1.67
1.66967
1.66963
1.6692
1.66918
1.66867
1.66864
1.66806
1.66799
1.66741
1.66719
1.66674
1.6662
1.66609
1.66488
1.66107
1.66104
1.66099
1.66094
1.66085
1.6608
1.66064
1.6606
1.66038
1.66035
1.66005
1.66004
1.65965
1.65967
1.65919
1.65921
1.65867
1.65865
1.65811
1.65795
1.65754
1.65708
1.65701
1.65591
1.65108
1.65104
1.651
1.65096
1.65088
1.65084
1.6507
1.65068
1.65048
1.65047
1.6502
1.65022
1.64986
1.64992
1.64948
1.64954
1.64904
1.64907
1.64858
1.64847
1.64811
1.64772
1.64768
1.6467
1.64086
1.64083
1.64079
1.64076
1.64069
1.64066
1.64054
1.64053
1.64036
1.64037
1.64013
1.64018
1.63985
1.63994
1.63953
1.63964
1.63918
1.63926
1.63881
1.63877
1.63845
1.63813
1.63812
1.63725
1.63043
1.6304
1.63036
1.63034
1.63027
1.63026
1.63016
1.63017
1.63001
1.63005
1.62983
1.62991
1.62961
1.62973
1.62937
1.62952
1.6291
1.62923
1.62882
1.62884
1.62855
1.6283
1.62834
1.62756
1.61978
1.61975
1.61972
1.6197
1.61965
1.61965
1.61956
1.61958
1.61945
1.61951
1.61931
1.61942
1.61915
1.61931
1.61898
1.61917
1.61879
1.61897
1.6186
1.61868
1.61844
1.61826
1.61833
1.61765
1.60892
1.60889
1.60886
1.60885
1.60881
1.60882
1.60874
1.60878
1.60867
1.60875
1.60858
1.60872
1.60848
1.60867
1.60837
1.60861
1.60826
1.60849
1.60816
1.6083
1.6081
1.60799
1.60809
1.6075
1.59784
1.59782
1.5978
1.59779
1.59776
1.59778
1.59772
1.59778
1.59768
1.59778
1.59764
1.5978
1.59759
1.59782
1.59755
1.59782
1.59751
1.59779
1.5975
1.5977
1.59753
1.5975
1.59764
1.59714
1.58657
1.58654
1.58653
1.58653
1.5865
1.58653
1.58649
1.58656
1.58649
1.58661
1.58649
1.58668
1.5865
1.58675
1.58651
1.58683
1.58655
1.58688
1.58662
1.58688
1.58674
1.5868
1.58695
1.58656
1.57509
1.57507
1.57505
1.57506
1.57504
1.57509
1.57506
1.57515
1.57509
1.57523
1.57514
1.57535
1.5752
1.57549
1.57528
1.57564
1.57538
1.57577
1.57553
1.57586
1.57575
1.57588
1.57605
1.57576
1.56341
1.56339
1.56338
1.5634
1.56339
1.56344
1.56343
1.56353
1.56349
1.56366
1.56358
1.56382
1.5637
1.56402
1.56384
1.56424
1.56402
1.56445
1.56424
1.56463
1.56454
1.56475
1.56494
1.56475
1.55154
1.55152
1.55152
1.55154
1.55154
1.5516
1.5516
1.55172
1.5517
1.55189
1.55184
1.5521
1.552
1.55235
1.55221
1.55264
1.55245
1.55293
1.55275
1.55321
1.55313
1.55343
1.55362
1.55353
1.53948
1.53946
1.53946
1.53949
1.5395
1.53957
1.53959
1.53972
1.53972
1.53992
1.5399
1.54019
1.54012
1.5405
1.54038
1.54085
1.54069
1.54122
1.54107
1.54159
1.54152
1.5419
1.5421
1.54212
1.52724
1.52722
1.52722
1.52725
1.52728
1.52736
1.52739
1.52753
1.52755
1.52778
1.52777
1.52808
1.52804
1.52845
1.52836
1.52887
1.52874
1.52932
1.52918
1.52977
1.52972
1.53019
1.53038
1.5305
1.51482
1.5148
1.51481
1.51484
1.51487
1.51497
1.51501
1.51517
1.51521
1.51545
1.51546
1.5158
1.51578
1.51622
1.51616
1.51671
1.5166
1.51723
1.51711
1.51777
1.51772
1.51829
1.51846
1.51869
1.50222
1.5022
1.50222
1.50226
1.5023
1.5024
1.50245
1.50263
1.50268
1.50294
1.50298
1.50334
1.50334
1.50382
1.50377
1.50436
1.50427
1.50496
1.50485
1.50558
1.50554
1.50619
1.50637
1.50669
1.48946
1.48944
1.48946
1.48951
1.48955
1.48966
1.48973
1.48992
1.48999
1.49027
1.49032
1.49071
1.49073
1.49124
1.49121
1.49185
1.49177
1.49252
1.49241
1.49322
1.49316
1.49391
1.49409
1.4945
1.47654
1.47653
1.47654
1.4766
1.47665
1.47677
1.47685
1.47705
1.47713
1.47743
1.4775
1.47791
1.47795
1.47849
1.47848
1.47916
1.47909
1.4799
1.4798
1.48069
1.48062
1.48144
1.48163
1.48212
1.46347
1.46345
1.46347
1.46353
1.46359
1.46372
1.46381
1.46402
1.46412
1.46443
1.46452
1.46496
1.46501
1.46559
1.46558
1.46631
1.46624
1.46712
1.467
1.46797
1.46791
1.4688
1.469
1.46957
1.45025
1.45023
1.45026
1.45032
1.45039
1.45052
1.45062
1.45084
1.45096
1.45129
1.45139
1.45185
1.45191
1.45253
1.45252
1.45331
1.45323
1.45418
1.45405
1.45507
1.45504
1.45598
1.45619
1.45684
1.43689
1.43688
1.4369
1.43697
1.43704
1.43718
1.43729
1.43753
1.43765
1.438
1.4381
1.4386
1.43866
1.43932
1.43931
1.44015
1.44006
1.44106
1.44096
1.44202
1.442
1.443
1.44322
1.44394
1.4234
1.42339
1.42342
1.42348
1.42357
1.42371
1.42383
1.42407
1.4242
1.42457
1.42468
1.42521
1.42526
1.42597
1.42595
1.42683
1.42676
1.42778
1.42771
1.4288
1.42881
1.42985
1.43008
1.43088
1.40979
1.40978
1.40981
1.40987
1.40997
1.41011
1.41024
1.4105
1.41062
1.41102
1.41112
1.41168
1.41173
1.41247
1.41246
1.41337
1.41332
1.41436
1.41431
1.41544
1.41546
1.41655
1.41679
1.41765
1.39606
1.39605
1.39609
1.39615
1.39625
1.39639
1.39653
1.39679
1.39693
1.39734
1.39744
1.39802
1.39808
1.39883
1.39884
1.39977
1.39974
1.4008
1.40077
1.40192
1.40197
1.40309
1.40334
1.40427
1.38222
1.38221
1.38225
1.38231
1.38242
1.38256
1.38271
1.38297
1.38312
1.38353
1.38365
1.38423
1.38431
1.38507
1.3851
1.38603
1.38602
1.38711
1.38709
1.38827
1.38833
1.3895
1.38976
1.39074
1.36828
1.36826
1.36831
1.36837
1.36848
1.36862
1.36878
1.36903
1.3692
1.36961
1.36975
1.37033
1.37042
1.37119
1.37123
1.37218
1.37218
1.37328
1.37329
1.37449
1.37456
1.37576
1.37603
1.37706
1.35424
1.35422
1.35426
1.35433
1.35444
1.35459
1.35475
1.35499
1.35519
1.35557
1.35574
1.35631
1.35642
1.35719
1.35725
1.3582
1.35823
1.35934
1.35936
1.36058
1.36066
1.3619
1.36217
1.36325
1.3401
1.34008
1.34012
1.34019
1.3403
1.34045
1.34062
1.34086
1.34107
1.34144
1.34163
1.34219
1.34232
1.34309
1.34317
1.34412
1.34416
1.34528
1.34532
1.34655
1.34665
1.34791
1.34818
1.34931
1.32587
1.32585
1.32589
1.32596
1.32607
1.32622
1.32639
1.32663
1.32685
1.32721
1.32742
1.32796
1.32812
1.32888
1.32898
1.32993
1.32998
1.33111
1.33116
1.33241
1.33252
1.3338
1.33408
1.33526
1.31155
1.31153
1.31157
1.31164
1.31174
1.31189
1.31207
1.31231
1.31253
1.31289
1.31312
1.31365
1.31383
1.31457
1.31469
1.31564
1.31571
1.31685
1.31691
1.31817
1.31829
1.31959
1.31987
1.32109
1.29713
1.29711
1.29716
1.29722
1.29733
1.29748
1.29766
1.29789
1.29813
1.29848
1.29872
1.29924
1.29944
1.30018
1.30031
1.30126
1.30135
1.30249
1.30256
1.30383
1.30396
1.30529
1.30557
1.30681
1.28263
1.28261
1.28265
1.28272
1.28283
1.28298
1.28316
1.2834
1.28363
1.28398
1.28424
1.28475
1.28497
1.28571
1.28585
1.28681
1.2869
1.28804
1.28813
1.28941
1.28955
1.29089
1.29117
1.29245
1.26803
1.26801
1.26806
1.26812
1.26824
1.26839
1.26857
1.26881
1.26906
1.2694
1.26968
1.27019
1.27042
1.27115
1.27131
1.27227
1.27237
1.27352
1.27361
1.27491
1.27505
1.27641
1.27669
1.27799
1.25335
1.25333
1.25338
1.25344
1.25356
1.25371
1.25391
1.25415
1.2544
1.25475
1.25504
1.25554
1.2558
1.25653
1.2567
1.25767
1.25778
1.25893
1.25903
1.26033
1.26048
1.26185
1.26214
1.26346
1.23859
1.23856
1.23861
1.23868
1.23881
1.23896
1.23916
1.23941
1.23968
1.24003
1.24034
1.24083
1.24111
1.24183
1.24202
1.24299
1.24311
1.24427
1.24439
1.24569
1.24585
1.24722
1.24751
1.24884
1.22375
1.22373
1.22378
1.22385
1.22398
1.22415
1.22435
1.22461
1.22489
1.22524
1.22557
1.22606
1.22637
1.22707
1.22729
1.22825
1.22839
1.22955
1.22968
1.23098
1.23114
1.23252
1.23281
1.23416
1.20887
1.20885
1.2089
1.20898
1.20911
1.20928
1.20949
1.20976
1.21004
1.2104
1.21074
1.21123
1.21157
1.21225
1.21252
1.21345
1.21361
1.21478
1.2149
1.2162
1.21637
1.21775
1.21804
1.2194
1.19396
1.19394
1.19399
1.19407
1.19421
1.19438
1.1946
1.19487
1.19516
1.19552
1.19587
1.19636
1.19672
1.19739
1.19768
1.19859
1.19878
1.19993
1.20007
1.20136
1.20154
1.20292
1.2032
1.20456
1.17906
1.17904
1.17909
1.17917
1.1793
1.17948
1.17969
1.17996
1.18025
1.18062
1.18097
1.18145
1.18182
1.18247
1.18279
1.18367
1.1839
1.18501
1.18517
1.18645
1.18663
1.188
1.18828
1.18965
1.16421
1.16419
1.16423
1.16431
1.16443
1.1646
1.1648
1.16506
1.16534
1.16569
1.16604
1.1665
1.16688
1.1675
1.16785
1.16869
1.16894
1.17002
1.1702
1.17147
1.17164
1.17301
1.17328
1.17464
1.14942
1.14939
1.14943
1.1495
1.14961
1.14976
1.14994
1.15018
1.15044
1.15077
1.1511
1.15154
1.1519
1.1525
1.15284
1.15364
1.15392
1.15495
1.15515
1.1564
1.15657
1.15793
1.15819
1.15955
1.13469
1.13466
1.13469
1.13474
1.13483
1.13496
1.13512
1.13533
1.13556
1.13586
1.13616
1.13656
1.1369
1.13745
1.13778
1.13853
1.13881
1.1398
1.14001
1.14123
1.1414
1.14275
1.143
1.14436
1.11999
1.11996
1.11997
1.12001
1.12008
1.12019
1.12032
1.1205
1.1207
1.12095
1.12121
1.12157
1.12187
1.12238
1.12267
1.12337
1.12363
1.12457
1.12476
1.12595
1.12611
1.12746
1.12769
1.12906
1.10525
1.10521
1.10522
1.10524
1.1053
1.10538
1.10549
1.10564
1.10581
1.10602
1.10625
1.10656
1.10682
1.10728
1.10752
1.10818
1.10839
1.10929
1.10943
1.11059
1.1107
1.11205
1.11226
1.11364
1.09036
1.09031
1.09032
1.09033
1.09039
1.09044
1.09056
1.09067
1.09083
1.09101
1.09122
1.09149
1.09172
1.09214
1.09232
1.09298
1.09308
1.094
1.09402
1.09518
1.09521
1.09653
1.09669
1.09805
1.07518
1.07513
1.07514
1.07515
1.07521
1.07527
1.07538
1.07549
1.07566
1.07583
1.07604
1.07629
1.07652
1.0769
1.07707
1.07772
1.07773
1.07868
1.0786
1.07977
1.07969
1.08099
1.08107
1.08234
1.05957
1.05952
1.05954
1.05956
1.05963
1.05972
1.05984
1.05998
1.06016
1.06037
1.06059
1.06087
1.06112
1.06149
1.06171
1.06231
1.06237
1.06327
1.06318
1.06433
1.06421
1.06549
1.0655
1.0667
1.04341
1.04336
1.04339
1.04343
1.04352
1.04364
1.0438
1.04399
1.04421
1.04447
1.04474
1.04508
1.04539
1.04581
1.0461
1.04669
1.04685
1.04773
1.04769
1.04886
1.04871
1.05004
1.04999
1.05121
1.0266
1.02656
1.0266
1.02666
1.02679
1.02695
1.02715
1.0274
1.02769
1.02802
1.02837
1.02878
1.02918
1.02969
1.03009
1.03075
1.03103
1.03195
1.03201
1.03326
1.03312
1.03455
1.03447
1.03578
1.00912
1.00907
1.00914
1.00921
1.00938
1.00957
1.00983
1.01013
1.0105
1.01089
1.01136
1.01185
1.01238
1.01298
1.01353
1.01431
1.01472
1.0158
1.01596
1.01738
1.0173
1.0189
1.01882
1.0203
0.990976
0.99093
0.991004
0.991102
0.991286
0.991518
0.991823
0.992175
0.992607
0.993069
0.993622
0.994204
0.994849
0.99557
0.996261
0.99716
0.997775
0.999007
0.999352
1.00097
1.00105
1.0029
1.00288
1.00464
0.972235
0.972195
0.972267
0.972388
0.972581
0.972847
0.973173
0.973574
0.974038
0.974572
0.975169
0.975844
0.976561
0.977388
0.978204
0.979201
0.980049
0.981336
0.982013
0.983737
0.984113
0.986246
0.986394
0.988588
0.953003
0.952967
0.953037
0.953167
0.953368
0.953647
0.953988
0.954411
0.954898
0.955463
0.956096
0.956815
0.957584
0.95847
0.959365
0.960437
0.96143
0.962748
0.963745
0.96545
0.966247
0.96853
0.968981
0.971739
0.933402
0.933367
0.933434
0.933565
0.933765
0.934046
0.93439
0.934815
0.93531
0.935881
0.936525
0.937253
0.938041
0.938942
0.93987
0.940965
0.942015
0.943356
0.944478
0.946158
0.947258
0.949496
0.950276
0.95348
0.913559
0.913521
0.913584
0.91371
0.913905
0.914177
0.914514
0.914929
0.915415
0.915972
0.916609
0.91732
0.918101
0.918982
0.919904
0.920975
0.922023
0.923336
0.924462
0.926109
0.92722
0.929413
0.930239
0.933439
0.893596
0.893554
0.893611
0.893728
0.893913
0.89417
0.894494
0.894888
0.895357
0.895887
0.896502
0.897178
0.897935
0.898773
0.899666
0.900683
0.901699
0.902947
0.904017
0.905609
0.906608
0.908753
0.90945
0.912387
0.873617
0.873569
0.873621
0.873726
0.873899
0.874138
0.874443
0.87481
0.875256
0.87575
0.876337
0.876968
0.87769
0.878471
0.879323
0.880272
0.881239
0.882402
0.883416
0.884904
0.885826
0.887847
0.888485
0.891203
0.853714
0.85366
0.853706
0.853796
0.853957
0.854173
0.85446
0.854795
0.855216
0.855668
0.856224
0.856801
0.857487
0.858202
0.859009
0.859882
0.860796
0.861863
0.862817
0.864198
0.865049
0.86692
0.867519
0.870029
0.833959
0.833898
0.833943
0.834014
0.834166
0.834354
0.834626
0.834922
0.835323
0.835721
0.836255
0.836764
0.837423
0.838058
0.838829
0.839613
0.840476
0.841443
0.842339
0.843609
0.844395
0.846111
0.846677
0.848978
0.814415
0.814349
0.814392
0.814441
0.814589
0.814743
0.815005
0.815254
0.815644
0.815979
0.816501
0.816928
0.817574
0.81811
0.818865
0.819537
0.820368
0.821229
0.822061
0.823225
0.823956
0.825509
0.826048
0.828141
0.795131
0.795062
0.795098
0.795136
0.795265
0.795402
0.795637
0.79586
0.796216
0.796511
0.796997
0.797367
0.797978
0.798436
0.799157
0.799731
0.800527
0.801276
0.802067
0.803104
0.803789
0.805181
0.805695
0.807582
0.776148
0.776076
0.7761
0.776136
0.776239
0.77637
0.776565
0.776777
0.777081
0.777361
0.777784
0.77813
0.778671
0.779092
0.779741
0.780256
0.780987
0.781642
0.782396
0.783293
0.783945
0.785177
0.785668
0.787354
0.757497
0.757423
0.757437
0.757466
0.757549
0.757667
0.757833
0.758025
0.758289
0.758544
0.758913
0.759231
0.759706
0.760091
0.760668
0.76113
0.761795
0.762364
0.763075
0.763827
0.76446
0.765537
0.766006
0.767495
0.739201
0.739127
0.739132
0.739154
0.739219
0.739322
0.739463
0.739632
0.739862
0.740087
0.740412
0.740694
0.741115
0.741455
0.741971
0.742376
0.742978
0.743467
0.744129
0.744751
0.745369
0.746288
0.746736
0.748035
0.721282
0.721208
0.721205
0.721219
0.72127
0.721357
0.721475
0.72162
0.721819
0.722013
0.722299
0.722542
0.722915
0.723208
0.723669
0.724014
0.724559
0.72497
0.725578
0.726092
0.726692
0.727448
0.727883
0.728993
0.703756
0.703681
0.703672
0.703679
0.703714
0.703787
0.703883
0.704006
0.704176
0.70434
0.704589
0.704794
0.705123
0.705369
0.705778
0.706066
0.706556
0.706893
0.707448
0.707861
0.708437
0.709037
0.709464
0.710393
0.686634
0.686559
0.686545
0.686543
0.686567
0.686623
0.686701
0.6868
0.686945
0.687078
0.687294
0.687461
0.687749
0.687949
0.688312
0.688543
0.688981
0.689249
0.689751
0.690076
0.69061
0.691071
0.69149
0.692246
0.669926
0.669851
0.66983
0.669824
0.669833
0.669879
0.669934
0.670016
0.670132
0.670239
0.670422
0.670553
0.670802
0.670958
0.671276
0.671453
0.671842
0.672044
0.672498
0.672738
0.67323
0.673563
0.67397
0.674568
0.653637
0.653562
0.653538
0.653522
0.653525
0.653551
0.653595
0.653652
0.653749
0.653825
0.65398
0.654076
0.654289
0.654402
0.654679
0.654804
0.655147
0.655285
0.65569
0.655853
0.6563
0.656521
0.65692
0.657362
0.637772
0.637698
0.637669
0.637647
0.637641
0.637653
0.637682
0.637719
0.637793
0.637845
0.637971
0.638034
0.638213
0.638286
0.638523
0.6386
0.638899
0.638977
0.639338
0.639424
0.639828
0.639952
0.640338
0.64063
0.622333
0.62226
0.622227
0.622201
0.622182
0.622187
0.622196
0.622218
0.62227
0.622298
0.622397
0.62243
0.622576
0.622612
0.622811
0.622842
0.6231
0.623122
0.623438
0.623457
0.62382
0.623855
0.624221
0.624374
0.60732
0.607247
0.607215
0.607174
0.607161
0.607138
0.607151
0.607141
0.607183
0.607183
0.607259
0.607262
0.607379
0.607378
0.607542
0.60753
0.607749
0.607718
0.607996
0.607947
0.608274
0.608227
0.608565
0.608591
0.592733
0.592663
0.592623
0.592587
0.592552
0.592535
0.592517
0.592507
0.59252
0.592505
0.592554
0.592532
0.592619
0.592585
0.592716
0.592663
0.592845
0.592764
0.593003
0.592894
0.593183
0.593058
0.593368
0.593281
0.57857
0.578499
0.578464
0.578411
0.578386
0.578339
0.578331
0.578286
0.578297
0.578251
0.578285
0.578234
0.578296
0.57823
0.57833
0.578238
0.578386
0.578258
0.578461
0.578292
0.578548
0.578348
0.578629
0.57844
0.564827
0.564759
0.564718
0.564668
0.564626
0.564583
0.564549
0.564504
0.564488
0.564433
0.56444
0.564369
0.564404
0.564309
0.56438
0.564253
0.564368
0.564197
0.564366
0.564142
0.564365
0.564095
0.564352
0.564067
0.5515
0.551433
0.551393
0.551335
0.551293
0.551234
0.5512
0.551132
0.551111
0.55103
0.551024
0.550928
0.550941
0.550819
0.550863
0.550702
0.550789
0.550575
0.550714
0.55044
0.550634
0.550298
0.550535
0.550159
0.538584
0.538519
0.538478
0.538415
0.538371
0.538301
0.53826
0.53818
0.538144
0.53805
0.538024
0.537909
0.537901
0.537753
0.537773
0.537581
0.53764
0.537389
0.537501
0.537178
0.537348
0.53695
0.53717
0.536711
0.526073
0.52601
0.525966
0.525904
0.52585
0.52578
0.525724
0.525639
0.525587
0.52548
0.525438
0.525304
0.525276
0.525105
0.525103
0.524882
0.524917
0.524631
0.524717
0.524353
0.524498
0.524045
0.52425
0.523714
0.513961
0.513899
0.513857
0.513786
0.513737
0.51365
0.513598
0.513492
0.513438
0.513312
0.513258
0.513105
0.513061
0.512868
0.512845
0.512599
0.512611
0.512293
0.512357
0.511951
0.512076
0.511572
0.511764
0.511158
0.502239
0.50218
0.502136
0.502067
0.502008
0.501923
0.501854
0.50175
0.501676
0.501546
0.501474
0.501308
0.501246
0.501034
0.500992
0.500722
0.500713
0.500367
0.500408
0.499968
0.500073
0.499522
0.499702
0.499033
0.490902
0.490844
0.4908
0.490729
0.490667
0.490576
0.490504
0.490387
0.49031
0.490162
0.490082
0.489899
0.489824
0.489594
0.489534
0.489242
0.489214
0.488841
0.488864
0.488389
0.488478
0.487885
0.488052
0.487329
0.479939
0.479884
0.47984
0.479764
0.479705
0.479604
0.479531
0.479405
0.479318
0.479163
0.47907
0.478875
0.478785
0.478539
0.478463
0.478152
0.478106
0.477709
0.477713
0.477209
0.477282
0.47665
0.476808
0.476028
0.469345
0.469293
0.469244
0.469176
0.469102
0.469011
0.468919
0.468797
0.468696
0.468535
0.46843
0.468224
0.468121
0.46786
0.46777
0.46744
0.467378
0.466959
0.466947
0.466414
0.466473
0.465807
0.465955
0.465126
0.459109
0.459058
0.459014
0.458935
0.458873
0.458761
0.458683
0.458539
0.458443
0.458265
0.458156
0.457936
0.457823
0.457549
0.457445
0.457099
0.457021
0.456583
0.456554
0.455998
0.456041
0.455343
0.45548
0.454613
0.449224
0.449177
0.449127
0.449058
0.448979
0.448882
0.44878
0.448649
0.448531
0.448358
0.448232
0.448007
0.447881
0.447595
0.447478
0.447118
0.447026
0.44657
0.446526
0.445948
0.445978
0.44525
0.445378
0.444471
0.439681
0.439634
0.43959
0.439511
0.439443
0.439328
0.43924
0.439086
0.438979
0.438785
0.438661
0.438421
0.438288
0.43799
0.437862
0.437488
0.437383
0.436912
0.436853
0.436256
0.436272
0.435517
0.435636
0.434694
0.430471
0.430428
0.430379
0.430307
0.430228
0.430123
0.430017
0.429874
0.429748
0.429559
0.42942
0.429177
0.429033
0.428726
0.428587
0.428201
0.428084
0.427598
0.427525
0.426912
0.426914
0.426136
0.426246
0.425269
0.421587
0.421543
0.421499
0.42142
0.421348
0.421231
0.421133
0.420976
0.420854
0.420653
0.420512
0.420259
0.420109
0.419792
0.419644
0.419247
0.419119
0.418621
0.418536
0.417907
0.417896
0.417099
0.417197
0.416194
0.413017
0.412978
0.412929
0.412857
0.412776
0.412666
0.412557
0.412403
0.412273
0.412069
0.411922
0.411663
0.411505
0.411181
0.411025
0.410618
0.410481
0.40997
0.409875
0.409232
0.40921
0.408397
0.408485
0.407456
0.404756
0.404716
0.404673
0.404594
0.40452
0.404399
0.404296
0.404134
0.404003
0.403794
0.403643
0.403378
0.403215
0.402882
0.40272
0.402303
0.40216
0.401637
0.401536
0.400878
0.40085
0.400021
0.400101
0.399055
0.396793
0.396757
0.396709
0.396638
0.396553
0.396443
0.396327
0.39617
0.396032
0.395821
0.395665
0.395395
0.395227
0.394887
0.39472
0.394295
0.394146
0.393612
0.393506
0.392836
0.392803
0.391959
0.392037
0.390976
0.389121
0.389084
0.389042
0.388962
0.388889
0.388763
0.388661
0.388489
0.388357
0.388137
0.387981
0.387704
0.387533
0.387187
0.387016
0.386583
0.386429
0.385887
0.385776
0.385095
0.385058
0.384203
0.384276
0.383205
0.38173
0.381697
0.38165
0.381579
0.381493
0.381382
0.381262
0.381103
0.380957
0.380743
0.380578
0.3803
0.380124
0.379774
0.379598
0.379159
0.379001
0.378451
0.378336
0.377646
0.377605
0.37674
0.376809
0.375729
0.374613
0.37458
0.374538
0.374459
0.374385
0.374258
0.374153
0.373977
0.373842
0.373616
0.373455
0.37317
0.372993
0.372637
0.372457
0.372014
0.371851
0.371295
0.371175
0.370479
0.370432
0.369561
0.369624
0.368535
0.367762
0.367732
0.367686
0.367614
0.367531
0.367413
0.367297
0.36713
0.366985
0.366763
0.366595
0.36631
0.366128
0.36577
0.365586
0.365138
0.364971
0.364411
0.364286
0.363585
0.363532
0.362655
0.362712
0.361618
0.361168
0.361138
0.361096
0.361021
0.360941
0.360819
0.360706
0.360534
0.360391
0.360165
0.359997
0.359708
0.359524
0.359163
0.358975
0.358525
0.358352
0.35779
0.357658
0.356954
0.356895
0.356014
0.356067
0.354965
0.354825
0.354797
0.354754
0.354679
0.3546
0.354477
0.354365
0.35419
0.354048
0.353818
0.35365
0.353358
0.353173
0.352808
0.352618
0.352164
0.351988
0.351423
0.351287
0.350579
0.350516
0.34963
0.349677
0.348571
0.348724
0.348697
0.348654
0.348581
0.3485
0.34838
0.348263
0.348092
0.347944
0.347717
0.347545
0.347253
0.347065
0.346698
0.346506
0.34605
0.345871
0.345303
0.345163
0.344453
0.344383
0.343495
0.343539
0.342428
0.342858
0.342832
0.342791
0.342716
0.342638
0.342513
0.342402
0.342224
0.342082
0.341848
0.341679
0.341383
0.341195
0.340826
0.340633
0.340173
0.339992
0.339422
0.339278
0.338567
0.338494
0.337602
0.337641
0.336529
0.337221
0.337196
0.337154
0.337082
0.337001
0.33688
0.336764
0.33659
0.336444
0.336211
0.336041
0.335743
0.335556
0.335183
0.33499
0.334527
0.334346
0.333772
0.333627
0.332914
0.332839
0.331944
0.331979
0.330868
0.331805
0.33178
0.331741
0.331665
0.33159
0.331463
0.331353
0.331173
0.331032
0.330795
0.330627
0.330325
0.330139
0.329763
0.329572
0.329105
0.328925
0.328348
0.328204
0.327486
0.327409
0.326515
0.326547
0.325435
0.326604
0.326581
0.326539
0.326469
0.326387
0.326268
0.326151
0.325977
0.325831
0.325595
0.325427
0.325124
0.32494
0.32456
0.324371
0.3239
0.323723
0.32314
0.322999
0.322277
0.322205
0.321304
0.321336
0.320226
0.321611
0.321588
0.32155
0.321473
0.321402
0.321271
0.321167
0.32098
0.320845
0.320601
0.320439
0.32013
0.31995
0.319565
0.319381
0.318904
0.318733
0.318144
0.318009
0.317279
0.317212
0.316308
0.316341
0.315233
0.31682
0.316799
0.316758
0.316689
0.316608
0.316488
0.316373
0.316197
0.316054
0.315814
0.315651
0.31534
0.315164
0.314774
0.314595
0.314112
0.313948
0.313351
0.313224
0.312487
0.312429
0.311519
0.311554
0.31045
0.312226
0.312204
0.312167
0.312091
0.31202
0.311889
0.311787
0.311599
0.311467
0.311218
0.311062
0.310746
0.310575
0.310179
0.310007
0.309517
0.309361
0.308756
0.308638
0.307893
0.307841
0.306931
0.306965
0.305868
0.307822
0.307801
0.307763
0.30769
0.307616
0.30749
0.307383
0.307198
0.307065
0.306817
0.306662
0.306343
0.306177
0.305776
0.305611
0.305114
0.304966
0.304353
0.304244
0.303493
0.303446
0.302536
0.30257
0.301478
0.303603
0.303582
0.303545
0.303471
0.303399
0.303271
0.303166
0.30298
0.302849
0.302599
0.302448
0.302126
0.301964
0.30156
0.301399
0.300897
0.300755
0.300137
0.300036
0.29928
0.299238
0.298325
0.298359
0.297272
0.299563
0.299542
0.299506
0.299432
0.299361
0.299231
0.29913
0.298941
0.298814
0.29856
0.298414
0.298088
0.297931
0.297522
0.297368
0.296861
0.296727
0.296102
0.296009
0.295247
0.295208
0.294299
0.29433
0.293248
0.295697
0.295677
0.295641
0.295566
0.295497
0.295366
0.295268
0.295076
0.294953
0.294695
0.294555
0.294223
0.294075
0.293657
0.293514
0.292997
0.292875
0.29224
0.292156
0.291392
0.291356
0.290447
0.290478
0.289402
0.292
0.29198
0.291945
0.29187
0.291802
0.29167
0.291574
0.291381
0.291262
0.290999
0.290867
0.290526
0.290389
0.289961
0.289832
0.289302
0.289193
0.288551
0.288473
0.287707
0.287672
0.286768
0.286796
0.285729
0.288468
0.288448
0.288414
0.288337
0.288274
0.288137
0.288048
0.287846
0.287737
0.287466
0.287344
0.286993
0.286869
0.286429
0.286313
0.285775
0.285674
0.285027
0.284954
0.284188
0.284155
0.283254
0.283281
0.282221
0.285096
0.285076
0.285043
0.284965
0.284903
0.284764
0.28468
0.284474
0.284372
0.284093
0.283982
0.283622
0.283509
0.28306
0.282952
0.282409
0.282314
0.281666
0.281595
0.280832
0.280798
0.279902
0.279926
0.278874
0.281879
0.281859
0.281827
0.281748
0.28169