/*--------------------------------*- C++ -*----------------------------------*\
  =========                 |
  \\      /  F ield         | OpenFOAM: The Open Source CFD Toolbox
   \\    /   O peration     | Website:  https://openfoam.org
    \\  /    A nd           | Version:  10
     \\/     M anipulation  |
\*---------------------------------------------------------------------------*/
FoamFile
{
    format      ascii;
    class       volScalarField;
    location    "0.18";
    object      p;
}
// * * * * * * * * * * * * * * * * * * * * * * * * * * * * * * * * * * * * * //

dimensions      [1 -1 -2 0 0 0 0];

internalField   nonuniform List<scalar> 
4176
(
1600.76
1600.96
1601.47
1602.1
1603.16
1604.18
1605.82
1607.21
1609.4
1611.18
1613.89
1616.11
1619.23
1621.99
1625.37
1628.87
1632.15
1636.8
1639.75
1645.74
1648.09
1655.72
1656.89
1665.63
1601.25
1601.44
1601.9
1602.51
1603.47
1604.47
1605.94
1607.31
1609.29
1611.03
1613.5
1615.63
1618.53
1621.13
1624.33
1627.56
1630.71
1634.98
1637.81
1643.36
1645.47
1652.92
1654.16
1663.94
1602.5
1602.69
1603.16
1603.79
1604.76
1605.78
1607.28
1608.68
1610.7
1612.46
1614.99
1617.15
1620.13
1622.76
1626.06
1629.33
1632.6
1636.97
1639.78
1645.5
1647.58
1654.92
1656.07
1665.53
1604.44
1604.63
1605.09
1605.7
1606.66
1607.66
1609.13
1610.49
1612.49
1614.2
1616.71
1618.79
1621.76
1624.29
1627.59
1630.76
1634.02
1638.42
1640.94
1646.83
1648.76
1656
1657.07
1665.93
1607.15
1607.34
1607.8
1608.41
1609.37
1610.36
1611.82
1613.19
1615.17
1616.89
1619.38
1621.47
1624.42
1626.95
1630.25
1633.37
1636.75
1640.96
1643.66
1649.45
1651.47
1658.66
1659.81
1668.66
1610.6
1610.79
1611.24
1611.85
1612.79
1613.78
1615.22
1616.58
1618.52
1620.24
1622.68
1624.77
1627.67
1630.18
1633.45
1636.51
1639.93
1643.94
1646.87
1652.4
1654.49
1661.6
1662.82
1671.76
1614.81
1615
1615.45
1616.05
1616.98
1617.97
1619.39
1620.74
1622.66
1624.37
1626.78
1628.85
1631.74
1634.21
1637.47
1640.48
1643.91
1647.8
1650.82
1656.2
1658.37
1665.38
1666.63
1675.46
1619.77
1619.96
1620.4
1621
1621.92
1622.89
1624.3
1625.64
1627.53
1629.22
1631.61
1633.66
1636.51
1638.95
1642.19
1645.14
1648.58
1652.34
1655.44
1660.64
1662.89
1669.79
1671.09
1679.81
1625.49
1625.67
1626.11
1626.71
1627.61
1628.58
1629.97
1631.29
1633.17
1634.84
1637.2
1639.22
1642.05
1644.45
1647.67
1650.56
1654
1657.64
1660.81
1665.84
1668.17
1674.92
1676.26
1684.86
1631.97
1632.15
1632.59
1633.17
1634.07
1635.03
1636.4
1637.71
1639.56
1641.21
1643.54
1645.53
1648.33
1650.69
1653.88
1656.71
1660.14
1663.67
1666.89
1671.75
1674.17
1680.73
1682.12
1690.59
1639.22
1639.4
1639.83
1640.41
1641.29
1642.24
1643.59
1644.89
1646.71
1648.34
1650.64
1652.6
1655.36
1657.68
1660.85
1663.61
1667.03
1670.45
1673.71
1678.41
1680.87
1687.29
1688.71
1697.04
1647.24
1647.42
1647.84
1648.42
1649.29
1650.23
1651.56
1652.83
1654.63
1656.24
1658.51
1660.44
1663.16
1665.44
1668.57
1671.27
1674.66
1677.99
1681.27
1685.81
1688.32
1694.56
1696.01
1704.19
1656.05
1656.23
1656.64
1657.21
1658.07
1658.99
1660.3
1661.56
1663.33
1664.91
1667.15
1669.04
1671.73
1673.96
1677.05
1679.68
1683.05
1686.28
1689.58
1693.95
1696.51
1702.58
1704.03
1712.06
1665.65
1665.83
1666.24
1666.79
1667.64
1668.54
1669.83
1671.07
1672.81
1674.36
1676.57
1678.42
1681.07
1683.25
1686.3
1688.87
1692.2
1695.33
1698.64
1702.85
1705.45
1711.34
1712.79
1720.65
1676.05
1676.23
1676.63
1677.18
1678.01
1678.9
1680.16
1681.37
1683.09
1684.6
1686.77
1688.58
1691.2
1693.32
1696.33
1698.83
1702.12
1705.15
1708.46
1712.5
1715.14
1720.84
1722.3
1729.99
1687.26
1687.44
1687.84
1688.37
1689.19
1690.06
1691.3
1692.48
1694.17
1695.65
1697.78
1699.54
1702.11
1704.18
1707.14
1709.57
1712.82
1715.75
1719.05
1722.92
1725.59
1731.09
1732.58
1740.08
1699.3
1699.48
1699.86
1700.39
1701.19
1702.04
1703.26
1704.41
1706.06
1707.5
1709.59
1711.31
1713.83
1715.84
1718.75
1721.1
1724.31
1727.14
1730.41
1734.12
1736.81
1742.11
1743.63
1750.92
1712.17
1712.35
1712.73
1713.24
1714.02
1714.85
1716.04
1717.17
1718.78
1720.18
1722.22
1723.89
1726.36
1728.3
1731.16
1733.44
1736.59
1739.32
1742.56
1746.11
1748.82
1753.91
1755.46
1762.54
1725.9
1726.07
1726.44
1726.94
1727.7
1728.51
1729.67
1730.76
1732.33
1733.69
1735.68
1737.3
1739.71
1741.59
1744.39
1746.58
1749.68
1752.3
1755.51
1758.89
1761.62
1766.5
1768.07
1774.93
1740.48
1740.65
1741.01
1741.5
1742.24
1743.03
1744.15
1745.21
1746.74
1748.05
1749.99
1751.55
1753.9
1755.71
1758.44
1760.55
1763.59
1766.1
1769.26
1772.48
1775.21
1779.89
1781.48
1788.12
1755.94
1756.11
1756.46
1756.94
1757.65
1758.41
1759.5
1760.52
1762.01
1763.27
1765.16
1766.65
1768.94
1770.68
1773.34
1775.36
1778.33
1780.73
1783.84
1786.9
1789.63
1794.09
1795.69
1802.1
1772.3
1772.46
1772.8
1773.26
1773.95
1774.68
1775.74
1776.72
1778.15
1779.36
1781.19
1782.63
1784.85
1786.51
1789.1
1791.02
1793.92
1796.2
1799.25
1802.15
1804.87
1809.1
1810.72
1816.9
1789.55
1789.71
1790.04
1790.48
1791.15
1791.85
1792.86
1793.8
1795.19
1796.35
1798.12
1799.48
1801.64
1803.21
1805.73
1807.55
1810.37
1812.53
1815.51
1818.25
1820.95
1824.96
1826.59
1832.52
1807.73
1807.88
1808.2
1808.62
1809.26
1809.93
1810.9
1811.8
1813.13
1814.23
1815.94
1817.23
1819.31
1820.81
1823.25
1824.96
1827.7
1829.74
1832.64
1835.22
1837.9
1841.67
1843.3
1848.97
1826.83
1826.98
1827.28
1827.69
1828.3
1828.93
1829.87
1830.72
1832
1833.03
1834.68
1835.89
1837.9
1839.3
1841.66
1843.28
1845.93
1847.84
1850.66
1853.07
1855.72
1859.25
1860.87
1866.28
1846.88
1847.03
1847.32
1847.7
1848.28
1848.89
1849.78
1850.57
1851.8
1852.77
1854.34
1855.48
1857.41
1858.72
1861
1862.5
1865.07
1866.85
1869.58
1871.83
1874.43
1877.72
1879.33
1884.47
1867.89
1868.03
1868.31
1868.67
1869.23
1869.79
1870.64
1871.39
1872.55
1873.46
1874.96
1876.02
1877.87
1879.08
1881.26
1882.66
1885.13
1886.78
1889.42
1891.5
1894.04
1897.1
1898.69
1903.57
1889.87
1890.01
1890.27
1890.62
1891.14
1891.67
1892.48
1893.17
1894.28
1895.12
1896.54
1897.52
1899.28
1900.39
1902.48
1903.76
1906.14
1907.65
1910.2
1912.11
1914.58
1917.38
1918.98
1923.56
1912.84
1912.98
1913.23
1913.55
1914.05
1914.54
1915.3
1915.94
1916.99
1917.76
1919.11
1920
1921.67
1922.68
1924.67
1925.83
1928.1
1929.47
1931.93
1933.67
1936.06
1938.61
1940.21
1944.48
1936.82
1936.96
1937.19
1937.49
1937.95
1938.41
1939.12
1939.71
1940.69
1941.4
1942.67
1943.47
1945.06
1945.96
1947.85
1948.88
1951.05
1952.28
1954.63
1956.2
1958.51
1960.81
1962.38
1966.36
1961.82
1961.95
1962.17
1962.45
1962.88
1963.3
1963.97
1964.5
1965.42
1966.05
1967.25
1967.96
1969.46
1970.25
1972.05
1972.94
1975.01
1976.08
1978.33
1979.72
1981.94
1983.99
1985.53
1989.21
1987.86
1987.99
1988.19
1988.45
1988.85
1989.23
1989.85
1990.33
1991.18
1991.74
1992.86
1993.49
1994.89
1995.57
1997.27
1998.03
1999.99
2000.9
2003.04
2004.25
2006.37
2008.19
2009.7
2013.05
2014.95
2015.08
2015.26
2015.51
2015.87
2016.21
2016.78
2017.2
2018
2018.48
2019.52
2020.06
2021.37
2021.95
2023.54
2024.17
2026.02
2026.77
2028.79
2029.81
2031.83
2033.41
2034.89
2037.9
2043.12
2043.24
2043.41
2043.63
2043.96
2044.27
2044.79
2045.15
2045.88
2046.29
2047.26
2047.7
2048.92
2049.38
2050.88
2051.37
2053.11
2053.71
2055.61
2056.44
2058.34
2059.68
2061.13
2063.8
2072.37
2072.49
2072.65
2072.85
2073.15
2073.42
2073.88
2074.19
2074.85
2075.19
2076.08
2076.42
2077.56
2077.9
2079.3
2079.66
2081.29
2081.72
2083.51
2084.15
2085.93
2087.03
2088.43
2090.75
2102.74
2102.85
2102.99
2103.17
2103.44
2103.67
2104.09
2104.34
2104.94
2105.2
2106.01
2106.26
2107.3
2107.53
2108.82
2109.05
2110.57
2110.84
2112.52
2112.96
2114.63
2115.49
2116.81
2118.78
2134.23
2134.34
2134.47
2134.63
2134.86
2135.05
2135.42
2135.62
2136.16
2136.34
2137.07
2137.22
2138.17
2138.29
2139.47
2139.56
2140.97
2141.07
2142.64
2142.89
2144.45
2145.07
2146.3
2147.92
2166.87
2166.97
2167.09
2167.23
2167.43
2167.59
2167.91
2168.05
2168.52
2168.64
2169.28
2169.34
2170.19
2170.19
2171.27
2171.21
2172.51
2172.44
2173.9
2173.95
2175.41
2175.79
2176.93
2178.18
2200.67
2200.78
2200.88
2201
2201.17
2201.29
2201.56
2201.65
2202.06
2202.1
2202.66
2202.63
2203.39
2203.26
2204.24
2204.03
2205.22
2204.98
2206.32
2206.16
2207.51
2207.66
2208.72
2209.61
2235.67
2235.78
2235.86
2235.96
2236.1
2236.18
2236.41
2236.44
2236.78
2236.75
2237.23
2237.11
2237.77
2237.53
2238.4
2238.05
2239.12
2238.7
2239.93
2239.55
2240.79
2240.69
2241.67
2242.24
2271.89
2271.99
2272.05
2272.14
2272.25
2272.29
2272.46
2272.45
2272.72
2272.61
2273.02
2272.79
2273.37
2273.01
2273.77
2273.27
2274.24
2273.63
2274.75
2274.15
2275.28
2274.92
2275.79
2276.07
2309.34
2309.44
2309.49
2309.55
2309.63
2309.63
2309.76
2309.68
2309.89
2309.71
2310.03
2309.72
2310.19
2309.71
2310.38
2309.73
2310.59
2309.8
2310.81
2309.98
2311
2310.36
2311.14
2311.09
2348.05
2348.15
2348.19
2348.22
2348.27
2348.24
2348.31
2348.18
2348.32
2348.06
2348.3
2347.89
2348.27
2347.67
2348.24
2347.43
2348.19
2347.21
2348.12
2347.06
2347.99
2347.06
2347.76
2347.34
2388.05
2388.14
2388.16
2388.18
2388.19
2388.12
2388.14
2387.96
2388.03
2387.69
2387.85
2387.34
2387.63
2386.9
2387.36
2386.41
2387.06
2385.89
2386.7
2385.4
2386.25
2385.03
2385.66
2384.87
2429.35
2429.44
2429.45
2429.45
2429.42
2429.31
2429.28
2429.04
2429.04
2428.62
2428.7
2428.08
2428.28
2427.43
2427.78
2426.67
2427.22
2425.86
2426.57
2425.03
2425.81
2424.28
2424.86
2423.71
2471.98
2472.07
2472.06
2472.04
2471.98
2471.83
2471.74
2471.44
2471.37
2470.88
2470.86
2470.15
2470.24
2469.27
2469.52
2468.25
2468.69
2467.13
2467.75
2465.96
2466.67
2464.83
2465.38
2463.83
2515.96
2516.05
2516.02
2515.98
2515.88
2515.69
2515.55
2515.19
2515.04
2514.47
2514.37
2513.55
2513.55
2512.44
2512.58
2511.16
2511.49
2509.73
2510.26
2508.21
2508.86
2506.69
2507.25
2505.26
2561.31
2561.39
2561.35
2561.28
2561.15
2560.92
2560.72
2560.3
2560.08
2559.43
2559.24
2558.32
2558.21
2556.97
2557.01
2555.42
2555.65
2553.67
2554.12
2551.8
2552.4
2549.86
2550.47
2548.05
2608.03
2608.11
2608.06
2607.97
2607.8
2607.52
2607.27
2606.79
2606.5
2605.76
2605.49
2604.46
2604.25
2602.88
2602.82
2601.05
2601.18
2598.99
2599.36
2596.75
2597.32
2594.41
2595.04
2592.2
2656.16
2656.23
2656.16
2656.05
2655.84
2655.53
2655.22
2654.67
2654.31
2653.49
2653.13
2651.99
2651.69
2650.18
2650.02
2648.07
2648.11
2645.69
2646
2643.08
2643.66
2640.34
2640.99
2637.73
2705.69
2705.76
2705.67
2705.54
2705.29
2704.94
2704.58
2703.97
2703.54
2702.63
2702.18
2700.93
2700.54
2698.88
2698.63
2696.49
2696.46
2693.79
2694.06
2690.8
2691.45
2687.68
2688.34
2684.68
2756.63
2756.7
2756.6
2756.44
2756.16
2755.77
2755.35
2754.68
2754.18
2753.19
2752.66
2751.29
2750.82
2749
2748.67
2746.34
2746.25
2743.3
2743.58
2739.96
2740.61
2736.49
2737.11
2733.07
2809
2809.07
2808.95
2808.77
2808.46
2808.03
2807.56
2806.82
2806.26
2805.18
2804.57
2803.08
2802.53
2800.56
2800.17
2797.61
2797.5
2794.23
2794.58
2790.56
2791.19
2786.75
2787.32
2782.9
2862.8
2862.87
2862.74
2862.54
2862.18
2861.72
2861.19
2860.4
2859.77
2858.6
2857.93
2856.31
2855.71
2853.55
2853.13
2850.32
2850.23
2846.64
2846.97
2842.66
2843.23
2838.49
2839.01
2834.21
2918.03
2918.09
2917.95
2917.73
2917.34
2916.84
2916.26
2915.42
2914.72
2913.46
2912.75
2910.98
2910.35
2907.97
2907.58
2904.47
2904.43
2900.51
2900.82
2896.26
2896.74
2891.71
2892.17
2887.02
2974.68
2974.75
2974.59
2974.35
2973.93
2973.4
2972.77
2971.87
2971.13
2969.76
2969.03
2967.08
2966.48
2963.84
2963.52
2960.1
2960.05
2955.93
2956.13
2951.35
2951.74
2946.44
2946.84
2941.32
3032.76
3032.83
3032.65
3032.41
3031.96
3031.4
3030.72
3029.76
3028.99
3027.49
3026.79
3024.62
3024.08
3021.22
3020.84
3017.28
3017.13
3012.85
3012.94
3007.95
3008.25
3002.68
3003.02
2997.16
3092.26
3092.35
3092.13
3091.91
3091.4
3090.83
3090.1
3089.07
3088.32
3086.67
3085.97
3083.68
3083.07
3080.1
3079.64
3075.95
3075.69
3071.26
3071.24
3066.06
3066.26
3060.44
3060.72
3054.52
3153.18
3153.27
3153.04
3152.82
3152.25
3151.7
3150.91
3149.85
3149.04
3147.34
3146.57
3144.21
3143.52
3140.46
3139.9
3136.11
3135.75
3131.17
3131.05
3125.69
3125.8
3119.74
3119.95
3113.42
3215.52
3215.61
3215.37
3215.14
3214.56
3213.98
3213.13
3212.11
3211.18
3209.47
3208.63
3206.2
3205.44
3202.3
3201.65
3197.75
3197.29
3192.58
3192.37
3186.83
3186.85
3180.56
3180.72
3173.87
3279.27
3279.37
3279.13
3278.87
3278.29
3277.69
3276.79
3275.79
3274.72
3273.08
3272.11
3269.65
3268.81
3265.6
3264.87
3260.88
3260.33
3255.5
3255.19
3249.49
3249.43
3242.91
3243.01
3235.86
3344.44
3344.54
3344.3
3344.03
3343.44
3342.82
3341.9
3340.88
3339.73
3338.13
3337
3334.59
3333.64
3330.37
3329.56
3325.5
3324.86
3319.91
3319.51
3313.65
3313.51
3306.79
3306.83
3299.4
3411.03
3411.13
3410.89
3410.62
3410.01
3409.38
3408.43
3407.41
3406.18
3404.61
3403.36
3400.99
3399.9
3396.61
3395.72
3391.58
3390.86
3385.79
3385.31
3379.31
3379.09
3372.18
3372.17
3364.46
3479.04
3479.14
3478.91
3478.63
3478.02
3477.37
3476.4
3475.36
3474.08
3472.52
3471.17
3468.83
3467.6
3464.33
3463.33
3459.12
3458.32
3453.15
3452.59
3446.46
3446.16
3439.06
3439
3431.04
3548.5
3548.6
3548.36
3548.08
3547.46
3546.81
3545.8
3544.76
3543.43
3541.87
3540.43
3538.1
3536.77
3533.48
3532.38
3528.1
3527.23
3521.96
3521.33
3515.06
3514.7
3507.43
3507.31
3499.11
3619.4
3619.52
3619.27
3618.99
3618.35
3617.69
3616.66
3615.6
3614.22
3612.66
3611.14
3608.8
3607.38
3604.05
3602.87
3598.53
3597.58
3592.21
3591.51
3585.12
3584.68
3577.25
3577.08
3568.66
3691.78
3691.9
3691.65
3691.37
3690.7
3690.03
3688.97
3687.88
3686.46
3684.89
3683.27
3680.92
3679.41
3676.04
3674.78
3670.36
3669.34
3663.87
3663.1
3656.59
3656.08
3648.51
3648.28
3639.66
3765.64
3765.77
3765.5
3765.22
3764.52
3763.83
3762.73
3761.62
3760.13
3758.54
3756.81
3754.46
3752.83
3749.43
3748.09
3743.58
3742.5
3736.93
3736.08
3729.46
3728.88
3721.17
3720.89
3712.09
3840.98
3841.12
3840.82
3840.53
3839.8
3839.08
3837.93
3836.77
3835.22
3833.59
3831.75
3829.4
3827.63
3824.21
3822.76
3818.17
3817.04
3811.36
3810.44
3803.72
3803.06
3795.23
3794.9
3785.94
3917.76
3917.9
3917.59
3917.27
3916.51
3915.74
3914.54
3913.33
3911.7
3910.02
3908.06
3905.71
3903.77
3900.38
3898.77
3894.13
3892.92
3887.14
3886.15
3879.34
3878.61
3870.68
3870.3
3861.19
3995.9
3996.05
3995.72
3995.37
3994.57
3993.76
3992.5
3991.22
3989.53
3987.78
3985.72
3983.35
3981.23
3977.88
3976.08
3971.46
3970.11
3964.27
3963.21
3956.33
3955.53
3947.51
3947.07
3937.84
4075.29
4075.43
4075.1
4074.71
4073.9
4073.03
4071.73
4070.39
4068.63
4066.82
4064.67
4062.29
4060
4056.7
4054.67
4050.14
4048.59
4042.76
4041.64
4034.69
4033.82
4025.72
4025.25
4015.91
4155.73
4155.87
4155.54
4155.14
4154.32
4153.43
4152.1
4150.74
4148.94
4147.09
4144.88
4142.48
4140.06
4136.81
4134.58
4130.16
4128.41
4122.62
4121.39
4114.42
4113.49
4105.35
4104.85
4095.43
4237.03
4237.18
4236.87
4236.47
4235.67
4234.79
4233.48
4232.12
4230.33
4228.48
4226.26
4223.87
4221.38
4218.2
4215.81
4211.51
4209.55
4203.9
4202.5
4195.58
4194.59
4186.42
4185.91
4176.43
4319.01
4319.17
4318.89
4318.53
4317.78
4316.95
4315.71
4314.41
4312.69
4310.91
4308.74
4306.42
4303.94
4300.85
4298.38
4294.23
4292.1
4286.59
4285.05
4278.17
4277.16
4268.97
4268.46
4258.94
4401.56
4401.74
4401.51
4401.22
4400.55
4399.82
4398.69
4397.52
4395.92
4394.28
4392.23
4390.05
4387.67
4384.73
4382.28
4378.31
4376.09
4370.78
4369.13
4362.27
4361.27
4353.04
4352.55
4343
4484.74
4484.94
4484.78
4484.57
4484
4483.41
4482.42
4481.42
4479.99
4478.55
4476.68
4474.72
4472.5
4469.79
4467.46
4463.72
4461.52
4456.45
4454.73
4448.02
4446.99
4438.7
4438.24
4428.61
4568.81
4569.05
4568.94
4568.82
4568.36
4567.9
4567.06
4566.24
4565
4563.78
4562.12
4560.41
4558.41
4555.95
4553.85
4550.37
4548.34
4543.52
4541.91
4535.36
4534.41
4526.07
4525.64
4515.86
4654.3
4654.58
4654.48
4654.46
4654.05
4653.72
4652.97
4652.32
4651.2
4650.18
4648.7
4647.23
4645.43
4643.23
4641.42
4638.11
4636.48
4631.75
4630.58
4624.08
4623.5
4615.17
4614.86
4604.94
4741.93
4742.28
4742.12
4742.22
4741.71
4741.55
4740.68
4740.25
4739.03
4738.24
4736.75
4735.48
4733.77
4731.73
4730.3
4726.8
4726.01
4720.82
4720.59
4713.85
4713.91
4705.73
4705.74
4696.21
4832.61
4832.94
4832.83
4832.79
4832.35
4831.99
4831.21
4830.54
4829.41
4828.42
4826.96
4825.62
4823.86
4821.99
4820.39
4817.08
4816.4
4811.28
4811.32
4804.68
4805.14
4797.09
4797.56
4788.67
4927.22
4927.52
4927.37
4927.22
4926.67
4926.14
4925.18
4924.28
4922.94
4921.7
4920
4918.41
4916.41
4914.41
4912.38
4909.35
4908.07
4903.24
4903.16
4896.46
4897.16
4888.94
4889.79
4880.97
5026.48
5026.76
5026.53
5026.25
5025.52
5024.74
5023.51
5022.28
5020.57
5018.92
5016.79
5014.75
5012.27
5009.83
5007.23
5003.97
5002
4997.18
4996.53
4989.56
4990.32
4981.62
4982.73
4973.53
5130.86
5131.16
5130.79
5130.4
5129.43
5128.41
5126.82
5125.23
5123.03
5120.92
5118.18
5115.57
5112.39
5109.3
5105.89
5101.99
5099.21
5093.73
5092.48
5084.68
5085.25
5075.69
5076.92
5066.9
5240.5
5240.84
5240.3
5239.86
5238.62
5237.42
5235.42
5233.56
5230.76
5228.33
5224.76
5221.73
5217.58
5213.81
5209.45
5204.61
5200.97
5194.08
5192.15
5183
5182.93
5172.05
5173.1
5161.72
5355.2
5355.49
5354.99
5354.33
5353.04
5351.52
5349.39
5347.07
5344.08
5340.98
5337.15
5333.28
5328.66
5324.01
5318.73
5313.2
5307.89
5300.34
5296.78
5286.29
5284.88
5272.13
5272.49
5258.95
5474.43
5474.7
5474.19
5473.44
5472.07
5470.41
5468.12
5465.58
5462.36
5458.94
5454.78
5450.47
5445.38
5440.15
5434.19
5427.94
5421.36
5413.62
5407.4
5396.81
5392.92
5378.31
5377.16
5360.34
5597.45
5597.71
5597.21
5596.43
5595.02
5593.3
5590.95
5588.31
5584.97
5581.4
5577.08
5572.55
5567.22
5561.69
5555.37
5548.71
5541.53
5533.37
5525.77
5515.28
5508.43
5493.67
5489.98
5469.28
5723.44
5723.69
5723.22
5722.44
5721.05
5719.34
5716.99
5714.36
5711.02
5707.45
5703.11
5698.57
5693.2
5687.64
5681.24
5674.53
5667.21
5658.97
5651.05
5640.65
5632.76
5618.59
5612.98
5590.46
5851.5
5851.78
5851.34
5850.61
5849.26
5847.62
5845.33
5842.78
5839.52
5836.06
5831.81
5827.41
5822.15
5816.74
5810.48
5803.96
5796.78
5788.77
5781.16
5770.83
5763.76
5749.45
5744.95
5724.31
5980.82
5981.14
5980.73
5980.06
5978.79
5977.25
5975.06
5972.65
5969.52
5966.24
5962.15
5957.97
5952.92
5947.79
5941.77
5935.59
5928.7
5921.11
5913.89
5904.04
5897.56
5883.81
5879.73
5860.52
6110.63
6110.98
6110.61
6110.03
6108.84
6107.42
6105.35
6103.12
6100.16
6097.1
6093.22
6089.33
6084.52
6079.74
6074.03
6068.25
6061.73
6054.66
6047.84
6038.62
6032.58
6019.72
6015.9
5998.01
6240.25
6240.66
6240.31
6239.83
6238.71
6237.45
6235.5
6233.48
6230.68
6227.91
6224.22
6220.68
6216.12
6211.75
6206.36
6201.04
6194.92
6188.41
6182
6173.42
6167.89
6155.94
6152.34
6135.77
6369.11
6369.57
6369.21
6368.89
6367.79
6366.75
6364.87
6363.14
6360.43
6358.04
6354.47
6351.41
6346.99
6343.18
6337.99
6333.26
6327.48
6321.57
6315.6
6307.7
6302.55
6291.6
6288.21
6272.98
6496.7
6497.19
6496.85
6496.66
6495.6
6494.77
6492.96
6491.54
6488.9
6486.94
6483.43
6480.92
6476.56
6473.43
6468.31
6464.36
6458.73
6453.52
6448.01
6440.74
6435.98
6426.04
6422.86
6408.97
6622.58
6623.08
6622.83
6622.64
6621.79
6620.97
6619.46
6618.07
6615.82
6613.93
6610.86
6608.51
6604.61
6601.76
6597.08
6593.57
6588.35
6583.79
6578.54
6572.08
6567.68
6558.75
6555.77
6543.19
6746.39
6746.89
6746.71
6746.56
6745.86
6745.11
6743.82
6742.54
6740.6
6738.83
6736.18
6733.96
6730.57
6727.89
6723.79
6720.55
6715.86
6711.82
6706.89
6701.36
6697.22
6689.26
6686.46
6675.18
6867.8
6868.31
6868.19
6868.09
6867.51
6866.86
6865.75
6864.62
6862.92
6861.34
6859.02
6857.02
6854.04
6851.62
6847.98
6845.09
6840.88
6837.33
6832.78
6828.16
6824.14
6817.17
6814.58
6804.57
6986.56
6987.07
6987.01
6986.96
6986.49
6985.94
6985
6984.01
6982.54
6981.16
6979.13
6977.37
6974.75
6972.63
6969.41
6966.88
6963.11
6960.06
6955.93
6952.01
6948.17
6942.25
6939.84
6931.06
7102.45
7102.96
7102.94
7102.94
7102.56
7102.13
7101.32
7100.51
7099.24
7098.06
7096.29
7094.79
7092.49
7090.67
7087.83
7085.67
7082.33
7079.74
7076.04
7072.76
7069.12
7064.2
7061.97
7054.37
7215.27
7215.78
7215.81
7215.85
7215.58
7215.22
7214.58
7213.89
7212.83
7211.84
7210.32
7209.06
7207.07
7205.54
7203.06
7201.26
7198.32
7196.17
7192.88
7190.18
7186.85
7182.88
7180.72
7174.28
7324.9
7325.41
7325.46
7325.58
7325.33
7325.14
7324.56
7324.07
7323.14
7322.37
7321.07
7320.05
7318.34
7317.1
7314.95
7313.49
7310.93
7309.19
7306.3
7304.12
7301.16
7298.02
7295.99
7290.62
7431.2
7431.7
7431.82
7431.9
7431.87
7431.59
7431.3
7430.81
7430.14
7429.5
7428.44
7427.63
7426.19
7425.22
7423.39
7422.26
7420.04
7418.71
7416.19
7414.5
7411.89
7409.51
7407.62
7403.22
7534.11
7534.61
7534.69
7534.97
7534.74
7534.88
7534.37
7534.28
7533.58
7533.22
7532.3
7531.74
7530.53
7529.82
7528.28
7527.46
7525.58
7524.61
7522.46
7521.23
7518.99
7517.2
7515.46
7512.04
7633.54
7634.02
7634.23
7634.31
7634.51
7634.28
7634.33
7633.96
7633.69
7633.31
7632.68
7632.26
7631.31
7630.83
7629.57
7629.03
7627.46
7626.85
7625.02
7624.23
7622.32
7621.1
7619.52
7616.99
7729.5
7729.98
7730.07
7730.49
7730.29
7730.68
7730.26
7730.5
7729.99
7730
7729.4
7729.24
7728.48
7728.24
7727.22
7726.96
7725.67
7725.38
7723.86
7723.47
7721.86
7721.13
7719.79
7718.07
7821.92
7822.36
7822.63
7822.74
7823.09
7822.95
7823.23
7823.01
7823.07
7822.91
7822.66
7822.58
7822.05
7822
7821.23
7821.21
7820.19
7820.2
7818.97
7818.95
7817.62
7817.36
7816.24
7815.26
7910.85
7911.32
7911.42
7911.92
7911.79
7912.34
7912.04
7912.53
7912.19
7912.52
7912.19
7912.39
7911.99
7912.15
7911.59
7911.81
7911.04
7911.33
7910.36
7910.68
7909.63
7909.81
7908.93
7908.57
7996.28
7996.69
7997
7997.14
7997.59
7997.55
7998
7997.94
7998.24
7998.29
7998.34
7998.55
7998.38
7998.7
7998.35
7998.77
7998.23
7998.78
7998.06
7998.7
7997.88
7998.48
7997.81
7998.02
8078.28
8078.72
8078.84
8079.38
8079.33
8079.98
8079.81
8080.47
8080.32
8080.87
8080.8
8081.27
8081.19
8081.7
8081.51
8082.14
8081.8
8082.58
8082.08
8083.01
8082.42
8083.4
8082.89
8083.64
8156.87
8157.24
8157.58
8157.75
8158.25
8158.32
8158.87
8158.98
8159.43
8159.7
8159.97
8160.43
8160.55
8161.18
8161.16
8161.96
8161.81
8162.8
8162.5
8163.7
8163.29
8164.61
8164.24
8165.49
8232.13
8232.54
8232.68
8233.24
8233.26
8233.96
8233.94
8234.68
8234.74
8235.42
8235.59
8236.27
8236.45
8237.23
8237.36
8238.31
8238.32
8239.51
8239.38
8240.81
8240.56
8242.2
8241.95
8243.63
8304.13
8304.47
8304.8
8305.02
8305.54
8305.72
8306.31
8306.59
8307.12
8307.6
8308.02
8308.71
8309.04
8309.92
8310.18
8311.28
8311.43
8312.79
8312.8
8314.45
8314.35
8316.26
8316.11
8318.17
8372.95
8373.32
8373.48
8374.02
8374.14
8374.83
8374.98
8375.72
8375.99
8376.75
8377.11
8377.95
8378.35
8379.35
8379.71
8380.94
8381.22
8382.72
8382.88
8384.71
8384.73
8386.89
8386.83
8389.22
8438.67
8438.98
8439.3
8439.57
8440.07
8440.38
8440.95
8441.41
8441.96
8442.62
8443.15
8444.01
8444.51
8445.59
8446.06
8447.4
8447.79
8449.43
8449.7
8451.7
8451.82
8454.2
8454.21
8456.91
8501.4
8501.73
8501.92
8502.41
8502.64
8503.27
8503.59
8504.31
8504.75
8505.56
8506.08
8507.04
8507.61
8508.77
8509.33
8510.76
8511.25
8513
8513.37
8515.52
8515.74
8518.31
8518.39
8521.33
8561.22
8561.5
8561.79
8562.12
8562.56
8563
8563.53
8564.13
8564.71
8565.5
8566.11
8567.11
8567.75
8568.97
8569.61
8571.12
8571.7
8573.56
8574.02
8576.29
8576.59
8579.31
8579.42
8582.71
8618.23
8618.52
8618.75
8619.17
8619.51
8620.08
8620.52
8621.23
8621.78
8622.64
8623.28
8624.34
8625.03
8626.31
8627.02
8628.6
8629.26
8631.2
8631.75
8634.13
8634.5
8637.37
8637.53
8640.99
8672.54
8672.8
8673.06
8673.43
8673.83
8674.35
8674.87
8675.56
8676.16
8677.04
8677.72
8678.82
8679.56
8680.9
8681.66
8683.3
8684.03
8686.05
8686.66
8689.14
8689.58
8692.57
8692.78
8696.39
8724.24
8724.49
8724.73
8725.13
8725.51
8726.06
8726.56
8727.29
8727.91
8728.82
8729.53
8730.66
8731.44
8732.83
8733.64
8735.33
8736.12
8738.2
8738.88
8741.44
8741.93
8745.04
8745.29
8749.04
8773.44
8773.68
8773.92
8774.3
8774.7
8775.24
8775.77
8776.5
8777.14
8778.07
8778.81
8779.97
8780.79
8782.21
8783.06
8784.8
8785.64
8787.77
8788.51
8791.13
8791.68
8794.89
8795.17
8799.04
8820.24
8820.46
8820.7
8821.08
8821.47
8822.03
8822.55
8823.3
8823.95
8824.9
8825.67
8826.85
8827.69
8829.15
8830.04
8831.81
8832.69
8834.87
8835.66
8838.33
8838.93
8842.21
8842.53
8846.51
8864.74
8864.94
8865.18
8865.55
8865.94
8866.5
8867.03
8867.79
8868.45
8869.42
8870.2
8871.4
8872.27
8873.75
8874.66
8876.47
8877.38
8879.59
8880.42
8883.13
8883.78
8887.11
8887.46
8891.54
8907.02
8907.22
8907.45
8907.82
8908.21
8908.77
8909.3
8910.06
8910.73
8911.71
8912.5
8913.72
8914.6
8916.11
8917.04
8918.87
8919.8
8922.05
8922.9
8925.64
8926.32
8929.69
8930.07
8934.21
8947.2
8947.39
8947.61
8947.98
8948.36
8948.92
8949.46
8950.22
8950.9
8951.89
8952.68
8953.92
8954.8
8956.33
8957.27
8959.13
8960.06
8962.34
8963.19
8965.98
8966.65
8970.06
8970.45
8974.61
8985.37
8985.54
8985.76
8986.12
8986.5
8987.06
8987.6
8988.36
8989.04
8990.03
8990.83
8992.08
8992.97
8994.5
8995.45
8997.33
8998.27
9000.57
9001.42
9004.23
9004.9
9008.34
9008.71
9012.9
9021.61
9021.77
9021.99
9022.34
9022.72
9023.28
9023.81
9024.58
9025.25
9026.25
9027.05
9028.3
9029.19
9030.74
9031.68
9033.57
9034.51
9036.83
9037.67
9040.51
9041.17
9044.63
9044.99
9049.18
9056.02
9056.17
9056.38
9056.73
9057.1
9057.65
9058.18
9058.95
9059.62
9060.62
9061.42
9062.67
9063.57
9065.11
9066.06
9067.96
9068.89
9071.21
9072.06
9074.9
9075.56
9079.02
9079.39
9083.58
9088.67
9088.82
9089.02
9089.36
9089.73
9090.28
9090.81
9091.57
9092.24
9093.24
9094.03
9095.29
9096.18
9097.73
9098.67
9100.57
9101.51
9103.83
9104.68
9107.51
9108.17
9111.63
9112
9116.18
9119.67
9119.8
9120
9120.34
9120.7
9121.25
9121.77
9122.53
9123.19
9124.19
9124.98
9126.23
9127.12
9128.66
9129.6
9131.5
9132.44
9134.75
9135.6
9138.43
9139.09
9142.54
9142.9
9147.08
9149.07
9149.2
9149.39
9149.72
9150.08
9150.62
9151.14
9151.9
9152.55
9153.55
9154.33
9155.58
9156.46
9158
9158.94
9160.82
9161.76
9164.06
9164.91
9167.73
9168.39
9171.82
9172.19
9176.35
9176.97
9177.09
9177.27
9177.6
9177.95
9178.49
9179
9179.75
9180.4
9181.39
9182.16
9183.41
9184.28
9185.82
9186.75
9188.63
9189.56
9191.85
9192.7
9195.5
9196.15
9199.58
9199.93
9204.08
9203.42
9203.54
9203.72
9204.04
9204.39
9204.92
9205.42
9206.17
9206.81
9207.79
9208.56
9209.8
9210.66
9212.19
9213.11
9214.98
9215.9
9218.18
9219.03
9221.81
9222.48
9225.84
9226.22
9230.33
9228.51
9228.62
9228.8
9229.11
9229.45
9229.98
9230.47
9231.22
9231.84
9232.83
9233.58
9234.82
9235.66
9237.19
9238.09
9239.96
9240.87
9243.14
9243.96
9246.72
9247.34
9250.8
9251.12
9255.2
9252.3
9252.4
9252.57
9252.88
9253.22
9253.74
9254.22
9254.96
9255.58
9256.56
9257.29
9258.53
9259.36
9260.89
9261.77
9263.63
9264.51
9266.78
9267.59
9270.33
9270.95
9274.36
9274.67
9278.72
9274.84
9274.94
9275.11
9275.42
9275.74
9276.26
9276.73
9277.47
9278.07
9279.05
9279.77
9281.01
9281.81
9283.34
9284.19
9286.06
9286.91
9289.18
9289.95
9292.7
9293.29
9296.66
9296.97
9300.98
9296.21
9296.31
9296.47
9296.77
9297.09
9297.61
9298.07
9298.8
9299.39
9300.37
9301.06
9302.3
9303.08
9304.61
9305.43
9307.3
9308.12
9310.39
9311.12
9313.88
9314.44
9317.78
9318.07
9322.05
9316.46
9316.55
9316.71
9317.01
9317.32
9317.83
9318.28
9319.02
9319.58
9320.56
9321.24
9322.48
9323.23
9324.76
9325.55
9327.43
9328.2
9330.47
9331.15
9333.94
9334.43
9337.76
9338.03
9341.97
9335.65
9335.73
9335.89
9336.18
9336.48
9336.99
9337.43
9338.16
9338.71
9339.69
9340.34
9341.59
9342.3
9343.85
9344.59
9346.49
9347.21
9349.5
9350.15
9352.88
9353.35
9356.67
9356.92
9360.8
9353.81
9353.9
9354.05
9354.34
9354.63
9355.14
9355.56
9356.3
9356.83
9357.81
9358.43
9359.69
9360.37
9361.92
9362.62
9364.53
9365.2
9367.5
9368.07
9370.87
9371.28
9374.57
9374.79
9378.62
9371.02
9371.1
9371.25
9371.54
9371.82
9372.33
9372.73
9373.47
9373.98
9374.96
9375.56
9376.82
9377.47
9379.03
9379.69
9381.6
9382.22
9384.55
9385.07
9387.85
9388.23
9391.5
9391.7
9395.49
9387.3
9387.38
9387.53
9387.81
9388.09
9388.59
9388.99
9389.72
9390.22
9391.2
9391.78
9393.03
9393.66
9395.21
9395.85
9397.76
9398.37
9400.65
9401.14
9403.92
9404.27
9407.52
9407.71
9411.45
9402.71
9402.79
9402.93
9403.22
9403.48
9403.99
9404.37
9405.1
9405.58
9406.56
9407.11
9408.37
9408.96
9410.53
9411.12
9413.04
9413.57
9415.92
9416.35
9419.12
9419.44
9422.65
9422.83
9426.53
9417.29
9417.37
9417.5
9417.79
9418.04
9418.55
9418.91
9419.65
9420.1
9421.1
9421.61
9422.89
9423.43
9425.02
9425.54
9427.52
9427.98
9430.33
9430.72
9433.48
9433.78
9436.96
9437.13
9440.78
9431.08
9431.15
9431.28
9431.57
9431.81
9432.32
9432.67
9433.41
9433.83
9434.84
9435.32
9436.62
9437.11
9438.72
9439.19
9441.18
9441.6
9443.95
9444.31
9447.05
9447.33
9450.48
9450.64
9454.23
9444.1
9444.18
9444.3
9444.59
9444.82
9445.34
9445.66
9446.42
9446.81
9447.84
9448.27
9449.58
9450.02
9451.68
9452.09
9454.08
9454.47
9456.81
9457.15
9459.87
9460.13
9463.24
9463.39
9466.94
9456.41
9456.48
9456.6
9456.89
9457.11
9457.64
9457.93
9458.7
9459.05
9460.11
9460.49
9461.84
9462.23
9463.89
9464.28
9466.26
9466.63
9468.95
9469.27
9471.96
9472.21
9475.29
9475.43
9478.93
9468.02
9468.1
9468.21
9468.5
9468.7
9469.24
9469.51
9470.3
9470.62
9471.68
9472.04
9473.39
9473.76
9475.41
9475.78
9477.75
9478.1
9480.4
9480.71
9483.37
9483.61
9486.65
9486.79
9490.24
9478.98
9479.05
9479.16
9479.46
9479.65
9480.18
9480.44
9481.23
9481.54
9482.59
9482.94
9484.28
9484.63
9486.27
9486.63
9488.58
9488.92
9491.2
9491.5
9494.13
9494.36
9497.36
9497.5
9500.9
9489.3
9489.38
9489.48
9489.78
9489.96
9490.5
9490.75
9491.53
9491.83
9492.88
9493.21
9494.54
9494.88
9496.51
9496.85
9498.79
9499.11
9501.37
9501.66
9504.26
9504.48
9507.45
9507.58
9510.94
9499.03
9499.1
9499.2
9499.5
9499.68
9500.2
9500.45
9501.22
9501.52
9502.56
9502.88
9504.2
9504.53
9506.14
9506.47
9508.39
9508.7
9510.94
9511.22
9513.79
9514.01
9516.94
9517.07
9520.39
9508.17
9508.25
9508.35
9508.64
9508.82
9509.34
9509.58
9510.34
9510.63
9511.66
9511.97
9513.28
9513.6
9515.2
9515.52
9517.42
9517.72
9519.94
9520.21
9522.75
9522.96
9525.86
9525.98
9529.26
9516.77
9516.84
9516.94
9517.22
9517.41
9517.91
9518.16
9518.91
9519.19
9520.21
9520.52
9521.81
9522.13
9523.71
9524.02
9525.9
9526.19
9528.38
9528.64
9531.16
9531.37
9534.23
9534.35
9537.59
9524.84
9524.9
9525.02
9525.27
9525.48
9525.94
9526.22
9526.93
9527.24
9528.22
9528.54
9529.81
9530.12
9531.68
9531.99
9533.85
9534.13
9536.3
9536.55
9539.05
9539.24
9542.08
9542.19
9545.4
9532.39
9532.45
9532.58
9532.81
9533.05
9533.47
9533.78
9534.44
9534.79
9535.72
9536.05
9537.28
9537.61
9539.15
9539.45
9541.3
9541.56
9543.71
9543.96
9546.43
9546.61
9549.42
9549.53
9552.7
9539.46
9539.52