/*--------------------------------*- C++ -*----------------------------------*\
  =========                 |
  \\      /  F ield         | OpenFOAM: The Open Source CFD Toolbox
   \\    /   O peration     | Website:  https://openfoam.org
    \\  /    A nd           | Version:  10
     \\/     M anipulation  |
\*---------------------------------------------------------------------------*/
FoamFile
{
    format      ascii;
    class       surfaceScalarField;
    location    "0.18";
    object      phi;
}
// * * * * * * * * * * * * * * * * * * * * * * * * * * * * * * * * * * * * * //

dimensions      [1 0 -1 0 0 0 0];

internalField   nonuniform List<scalar> 
8154
(
-5.8113e-09
-2.21008e-08
-5.68135e-08
-9.18539e-08
-1.7146e-07
-2.25658e-07
-3.69446e-07
-4.53387e-07
-6.74057e-07
-8.14151e-07
-1.10504e-06
-1.33799e-06
-1.66784e-06
-2.02733e-06
-2.3613e-06
-2.86643e-06
-3.2561e-06
-3.98482e-06
-4.56354e-06
-5.51e-06
-6.83213e-06
-7.23684e-06
-6.85628e-06
-0.000277447
-0.000832396
2.40439e-08
-0.00138751
9.62907e-08
-0.00194295
2.13398e-07
-0.00249876
3.78201e-07
-0.00305513
5.7742e-07
-0.00361215
8.2389e-07
-0.00416986
1.08913e-06
-0.00472861
1.3985e-06
-0.00528808
1.71149e-06
-0.00584897
2.05589e-06
-0.00641078
2.40176e-06
-0.006974
2.74729e-06
-0.00753893
3.12033e-06
-0.00810437
3.43623e-06
-0.00867338
3.85018e-06
-0.00924052
4.12643e-06
-0.00981522
4.57401e-06
-0.0103836
4.92647e-06
-0.010965
5.14148e-06
-0.0115342
5.28016e-06
-0.0121238
5.11455e-06
-0.0126951
4.03121e-06
-0.0132934
2.44937e-06
-0.000277471
-0.000832468
2.63624e-08
-0.00138763
1.0485e-07
-0.00194311
2.34837e-07
-0.00249896
4.10352e-07
-0.00305537
6.35416e-07
-0.00361241
8.89994e-07
-0.00417017
1.19537e-06
-0.00472892
1.50185e-06
-0.00528842
1.86728e-06
-0.00584931
2.19031e-06
-0.00641111
2.59205e-06
-0.00697436
2.89164e-06
-0.00753924
3.29877e-06
-0.00810478
3.53924e-06
-0.00867364
3.90425e-06
-0.00924096
4.10542e-06
-0.00981555
4.39077e-06
-0.0103838
5.0043e-06
-0.0109651
4.66901e-06
-0.011534
5.23333e-06
-0.0121227
5.3271e-06
-0.0126936
5.04366e-06
-0.013291
4.22885e-06
-0.000277497
-0.000832545
2.13033e-08
-0.00138776
8.49817e-08
-0.00194328
1.88199e-07
-0.00249918
3.3074e-07
-0.00305562
5.02112e-07
-0.00361271
7.07763e-07
-0.00417047
9.23339e-07
-0.00472928
1.1671e-06
-0.00528874
1.39429e-06
-0.00584971
1.64133e-06
-0.00641141
1.84483e-06
-0.00697476
2.04837e-06
-0.00753947
2.19683e-06
-0.00810514
2.28355e-06
-0.00867383
2.35349e-06
-0.00924123
2.20708e-06
-0.00981615
2.34446e-06
-0.0103834
1.90171e-06
-0.0109656
1.78594e-06
-0.0115341
1.39228e-06
-0.0121224
1.15048e-06
-0.0126927
7.2013e-07
-0.0132867
5.17554e-07
-0.000277518
-0.000832608
2.55407e-08
-0.00138786
1.0195e-07
-0.00194342
2.26193e-07
-0.00249935
3.98052e-07
-0.00305583
6.05881e-07
-0.00361292
8.56087e-07
-0.00417071
1.12013e-06
-0.0047295
1.42119e-06
-0.00528898
1.70261e-06
-0.00584991
2.01631e-06
-0.0064116
2.27059e-06
-0.0069749
2.54684e-06
-0.00753955
2.73297e-06
-0.00810521
2.89459e-06
-0.00867367
2.98472e-06
-0.00924136
2.89812e-06
-0.00981569
2.97553e-06
-0.0103833
2.28684e-06
-0.0109652
2.52329e-06
-0.0115339
1.72565e-06
-0.012122
1.20029e-06
-0.0126925
3.7989e-07
-0.0132862
-1.68163e-07
-0.000277543
-0.000832684
3.36561e-08
-0.00138798
1.34319e-07
-0.00194359
2.99356e-07
-0.00249955
5.26726e-07
-0.00305607
8.08237e-07
-0.00361318
1.14212e-06
-0.004171
1.51257e-06
-0.00472978
1.91969e-06
-0.00528929
2.33909e-06
-0.00585015
2.77273e-06
-0.00641188
3.19269e-06
-0.00697508
3.59445e-06
-0.00753971
3.96344e-06
-0.0081053
4.25805e-06
-0.00867357
4.52102e-06
-0.00924143
4.61503e-06
-0.00981499
4.73135e-06
-0.0103836
4.40414e-06
-0.0109644
4.3713e-06
-0.0115333
3.67289e-06
-0.0121212
3.20659e-06
-0.012692
2.27065e-06
-0.0132863
1.35388e-06
-0.000277577
-0.000832783
3.75798e-08
-0.00138814
1.4999e-07
-0.00194382
3.34571e-07
-0.00249983
5.88773e-07
-0.0030564
9.04691e-07
-0.00361355
1.2788e-06
-0.00417141
1.69674e-06
-0.0047302
2.15441e-06
-0.00528972
2.63096e-06
-0.00585057
3.12036e-06
-0.00641227
3.60103e-06
-0.00697544
4.05673e-06
-0.00753999
4.48098e-06
-0.00810556
4.82078e-06
-0.00867366
5.12257e-06
-0.00924154
5.24921e-06
-0.00981464
5.3696e-06
-0.0103835
5.08535e-06
-0.0109637
4.97097e-06
-0.0115328
4.21593e-06
-0.0121203
3.67518e-06
-0.012691
2.64035e-06
-0.013285
1.61816e-06
-0.000277614
-0.000832895
4.14148e-08
-0.00138833
1.65312e-07
-0.00194407
3.68869e-07
-0.00250014
6.49273e-07
-0.00305678
9.98187e-07
-0.00361397
1.41166e-06
-0.00417186
1.87453e-06
-0.00473067
2.38226e-06
-0.0052902
2.91231e-06
-0.00585104
3.45841e-06
-0.00641272
3.99523e-06
-0.00697585
4.50766e-06
-0.00754033
4.9818e-06
-0.00810586
5.37005e-06
-0.00867377
5.7056e-06
-0.00924165
5.86173e-06
-0.00981434
5.99678e-06
-0.0103834
5.72082e-06
-0.010963
5.59845e-06
-0.0115323
4.81104e-06
-0.0121192
4.20406e-06
-0.01269
2.99202e-06
-0.0132833
1.79853e-06
-0.000277655
-0.000833018
4.51129e-08
-0.00138853
1.80064e-07
-0.00194435
4.01851e-07
-0.00250049
7.07243e-07
-0.00305719
1.0876e-06
-0.00361443
1.53812e-06
-0.00417237
2.04353e-06
-0.00473119
2.59779e-06
-0.00529075
3.17864e-06
-0.00585158
3.77709e-06
-0.00641323
4.36809e-06
-0.00697632
4.93267e-06
-0.00754071
5.45595e-06
-0.00810619
5.88792e-06
-0.00867391
6.25636e-06
-0.00924178
6.44052e-06
-0.00981405
6.58054e-06
-0.0103833
6.3302e-06
-0.0109622
6.17399e-06
-0.0115316
5.37258e-06
-0.012118
4.83938e-06
-0.0126888
3.36155e-06
-0.0132815
2.01499e-06
-0.0002777
-0.000833152
4.87626e-08
-0.00138875
1.94613e-07
-0.00194465
4.34318e-07
-0.00250087
7.642e-07
-0.00305763
1.17517e-06
-0.00361493
1.66161e-06
-0.00417292
2.20786e-06
-0.00473177
2.80674e-06
-0.00529134
3.43573e-06
-0.00585216
4.08419e-06
-0.00641379
4.72642e-06
-0.00697684
5.34129e-06
-0.00754113
5.91159e-06
-0.00810656
6.38619e-06
-0.00867409
6.78618e-06
-0.00924191
6.99575e-06
-0.00981379
7.13608e-06
-0.0103831
6.90475e-06
-0.0109614
6.72346e-06
-0.0115311
5.87993e-06
-0.0121165
4.90198e-06
-0.0126874
3.68226e-06
-0.0132795
2.20553e-06
-0.000277749
-0.000833297
5.23628e-08
-0.00138899
2.08959e-07
-0.00194498
4.6631e-07
-0.00250128
8.20265e-07
-0.00305812
1.26121e-06
-0.00361547
1.78267e-06
-0.00417351
2.36842e-06
-0.0047324
3.01015e-06
-0.00529198
3.68487e-06
-0.0058528
4.38059e-06
-0.0064144
5.0709e-06
-0.0069774
5.73308e-06
-0.0075416
6.34786e-06
-0.00810696
6.86333e-06
-0.00867429
7.29421e-06
-0.00924205
7.52721e-06
-0.00981354
7.6665e-06
-0.0103829
7.44997e-06
-0.0109605
7.2491e-06
-0.0115304
6.40164e-06
-0.012115
5.58729e-06
-0.0126859
4.03927e-06
-0.0132773
2.40212e-06
-0.000277801
-0.000833453
5.59278e-08
-0.00138924
2.23169e-07
-0.00194533
4.98005e-07
-0.00250172
8.75829e-07
-0.00305864
1.34646e-06
-0.00361605
1.90254e-06
-0.00417415
2.52712e-06
-0.00473307
3.21071e-06
-0.00529268
3.92956e-06
-0.00585348
4.67043e-06
-0.00641505
5.40594e-06
-0.00697801
6.11241e-06
-0.00754211
6.76851e-06
-0.00810739
7.3225e-06
-0.00867451
7.78343e-06
-0.00924218
8.04099e-06
-0.00981331
8.18654e-06
-0.0103827
7.97237e-06
-0.0109597
7.74341e-06
-0.0115295
6.86022e-06
-0.0121135
6.00942e-06
-0.0126843
4.35655e-06
-0.0132749
2.58637e-06
-0.000277856
-0.000833619
5.94499e-08
-0.00138952
2.37215e-07
-0.00194571
5.29362e-07
-0.00250219
9.30869e-07
-0.00305919
1.43099e-06
-0.00361668
2.02151e-06
-0.00417483
2.68461e-06
-0.00473378
3.4096e-06
-0.00529341
4.17163e-06
-0.00585421
4.95617e-06
-0.00641575
5.73459e-06
-0.00697866
6.48238e-06
-0.00754265
7.17622e-06
-0.00810784
7.76518e-06
-0.00867476
8.25324e-06
-0.00924232
8.53374e-06
-0.00981308
8.68615e-06
-0.0103825
8.46985e-06
-0.0109588
8.20633e-06
-0.0115286
7.28586e-06
-0.0121119
6.37482e-06
-0.0126825
4.65207e-06
-0.0132723
2.75702e-06
-0.000277916
-0.000833796
6.29277e-08
-0.00138981
2.5109e-07
-0.00194611
5.60368e-07
-0.00250268
9.85367e-07
-0.00305978
1.51482e-06
-0.00361734
2.13967e-06
-0.00417555
2.84122e-06
-0.00473454
3.6075e-06
-0.00529419
4.41241e-06
-0.00585499
5.23993e-06
-0.0064165
6.05985e-06
-0.00697935
6.84677e-06
-0.00754323
7.57519e-06
-0.00810833
8.19534e-06
-0.00867503
8.7068e-06
-0.00924247
9.00698e-06
-0.00981286
9.16379e-06
-0.0103822
8.94822e-06
-0.0109578
8.64489e-06
-0.0115277
7.67868e-06
-0.0121101
6.70692e-06
-0.0126806
4.89606e-06
-0.0132695
2.90441e-06
-0.000277978
-0.000833983
6.63624e-08
-0.00139012
2.64794e-07
-0.00194653
5.91001e-07
-0.00250321
1.03925e-06
-0.0030604
1.59777e-06
-0.00361803
2.25675e-06
-0.00417631
2.9966e-06
-0.00473534
3.80411e-06
-0.00529502
4.65184e-06
-0.0058558
5.5222e-06
-0.00641728
6.3831e-06
-0.00698007
7.20795e-06
-0.00754385
7.96876e-06
-0.00810883
8.6168e-06
-0.00867532
9.14754e-06
-0.00924262
9.4633e-06
-0.00981263
9.62288e-06
-0.0103819
9.40991e-06
-0.0109568
9.06467e-06
-0.0115267
8.05357e-06
-0.0121083
7.01106e-06
-0.0126786
5.05578e-06
-0.0132666
3.03072e-06
-0.000278044
-0.000834181
6.97603e-08
-0.00139044
2.78344e-07
-0.00194698
6.21273e-07
-0.00250377
1.09247e-06
-0.00306106
1.67968e-06
-0.00361877
2.37237e-06
-0.00417712
3.1501e-06
-0.00473619
3.99854e-06
-0.00529588
4.88891e-06
-0.00585666
5.80208e-06
-0.0064181
6.70401e-06
-0.00698082
7.56663e-06
-0.00754449
8.35909e-06
-0.00810936
9.03307e-06
-0.00867563
9.57964e-06
-0.00924277
9.90603e-06
-0.0098124
1.00643e-05
-0.0103816
9.85144e-06
-0.0109558
9.46536e-06
-0.0115257
8.41546e-06
-0.0121063
7.30999e-06
-0.0126766
5.27724e-06
-0.0132635
3.16331e-06
-0.000278114
-0.000834389
7.31239e-08
-0.00139078
2.91751e-07
-0.00194745
6.51186e-07
-0.00250435
1.14498e-06
-0.00306175
1.76034e-06
-0.00361955
2.48606e-06
-0.00417796
3.30089e-06
-0.00473707
4.18949e-06
-0.00529679
5.12186e-06
-0.00585755
6.07749e-06
-0.00641896
7.02049e-06
-0.00698161
7.92118e-06
-0.00754515
8.74578e-06
-0.0081099
9.44564e-06
-0.00867595
1.00069e-05
-0.00924293
1.03405e-05
-0.00981218
1.04909e-05
-0.0103812
1.02653e-05
-0.0109547
9.8452e-06
-0.0115246
8.75771e-06
-0.0121043
7.59052e-06
-0.0126745
5.49525e-06
-0.0132603
3.28668e-06
-0.000278187
-0.000834607
7.64436e-08
-0.00139114
3.0497e-07
-0.00194794
6.8063e-07
-0.00250497
1.19655e-06
-0.00306247
1.83937e-06
-0.00362036
2.59718e-06
-0.00417885
3.44791e-06
-0.004738
4.37535e-06
-0.00529774
5.34841e-06
-0.00585849
6.34546e-06
-0.00641985
7.32897e-06
-0.00698243
8.26783e-06
-0.00754585
9.12541e-06
-0.00811046
9.85232e-06
-0.00867628
1.04296e-05
-0.00924307
1.07708e-05
-0.00981194
1.09119e-05
-0.0103807
1.06696e-05
-0.0109536
1.02146e-05
-0.0115234
9.09045e-06
-0.0121022
7.8609e-06
-0.0126723
5.69534e-06
-0.013257
3.40205e-06
-0.000278263
-0.000834834
7.96934e-08
-0.00139151
3.17899e-07
-0.00194845
7.0939e-07
-0.00250561
1.24683e-06
-0.00306323
1.91624e-06
-0.00362121
2.70496e-06
-0.00417978
3.59011e-06
-0.00473897
4.55463e-06
-0.00529874
5.56649e-06
-0.00585947
6.60312e-06
-0.00642079
7.6257e-06
-0.00698328
8.60199e-06
-0.00754657
9.49289e-06
-0.00811103
1.02482e-05
-0.00867662
1.08438e-05
-0.0092432
1.11947e-05
-0.00981169
1.13285e-05
-0.0103803
1.10714e-05
-0.0109525
1.05774e-05
-0.0115222
9.41973e-06
-0.0121
8.1278e-06
-0.01267
5.88954e-06
-0.0132536
3.51199e-06
-0.000278342
-0.000835072
8.28159e-08
-0.00139191
3.30318e-07
-0.00194899
7.37005e-07
-0.00250627
1.29508e-06
-0.00306402
1.98993e-06
-0.00362209
2.80811e-06
-0.00418074
3.7259e-06
-0.00473998
4.72539e-06
-0.00529977
5.77362e-06
-0.00586049
6.84731e-06
-0.00642176
7.90654e-06
-0.00698417
8.91836e-06
-0.00754732
9.84171e-06
-0.00811162
1.06257e-05
-0.00867697
1.12419e-05
-0.00924333
1.16057e-05
-0.00981143
1.17361e-05
-0.0103798
1.14668e-05
-0.0109513
1.09334e-05
-0.0115209
9.74884e-06
-0.0120978
8.39722e-06
-0.0126676
6.08327e-06
-0.0132501
3.61937e-06
-0.000278425
-0.000835319
8.57347e-08
-0.00139231
3.41933e-07
-0.00194955
7.6286e-07
-0.00250697
1.3403e-06
-0.00306483
2.05906e-06
-0.00362301
2.90491e-06
-0.00418173
3.85329e-06
-0.00474103
4.88537e-06
-0.00530084
5.96728e-06
-0.00586154
7.07503e-06
-0.00642277
8.16777e-06
-0.00698508
9.21209e-06
-0.00754809
1.01655e-05
-0.00811223
1.09771e-05
-0.00867733
1.16146e-05
-0.00924345
1.19941e-05
-0.00981115
1.21263e-05
-0.0103792
1.18493e-05
-0.0109501
1.12806e-05
-0.0115195
1.00774e-05
-0.0120954
8.67121e-06
-0.0126652
6.28276e-06
-0.0132464
3.72804e-06
-0.00027851
-0.000835574
8.83617e-08
-0.00139273
3.52402e-07
-0.00195012
7.86219e-07
-0.00250768
1.38128e-06
-0.00306568
2.12191e-06
-0.00362395
2.99318e-06
-0.00418276
3.96968e-06
-0.00474211
5.03171e-06
-0.00530194
6.14439e-06
-0.00586263
7.28296e-06
-0.00642381
8.40566e-06
-0.00698603
9.47872e-06
-0.0075489
1.04586e-05
-0.00811287
1.12947e-05
-0.0086777
1.1952e-05
-0.00924358
1.23477e-05
-0.00981086
1.24859e-05
-0.0103787
1.22088e-05
-0.0109489
1.16192e-05
-0.0115181
1.03977e-05
-0.012093
8.94194e-06
-0.0126626
6.48864e-06
-0.0132427
3.84022e-06
-0.000278599
-0.000835838
9.0612e-08
-0.00139316
3.61387e-07
-0.00195072
8.06343e-07
-0.00250842
1.41675e-06
-0.00306655
2.1766e-06
-0.00362493
3.07039e-06
-0.00418382
4.07201e-06
-0.00474322
5.16088e-06
-0.00530308
6.30112e-06
-0.00586375
7.46711e-06
-0.00642488
8.6161e-06
-0.00698701
9.71382e-06
-0.00754973
1.07158e-05
-0.00811352
1.1572e-05
-0.0086781
1.22455e-05
-0.00924371
1.26549e-05
-0.00981058
1.27992e-05
-0.0103781
1.2526e-05
-0.0109477
1.19271e-05
-0.0115166
1.06885e-05
-0.0120906
9.19127e-06
-0.01266
6.6905e-06
-0.0132388
3.95176e-06
-0.000278689
-0.000836108
9.24163e-08
-0.00139361
3.6861e-07
-0.00195132
8.22587e-07
-0.00250918
1.44555e-06
-0.00306744
2.22129e-06
-0.00362593
3.13396e-06
-0.00418491
4.15688e-06
-0.00474435
5.26876e-06
-0.00530424
6.43283e-06
-0.00586489
7.62253e-06
-0.00642597
8.79398e-06
-0.006988
9.91228e-06
-0.00755058
1.09319e-05
-0.00811419
1.18033e-05
-0.0086785
1.24881e-05
-0.00924384
1.29067e-05
-0.0098103
1.30542e-05
-0.0103775
1.27831e-05
-0.0109465
1.21747e-05
-0.0115151
1.09269e-05
-0.0120881
9.39358e-06
-0.0126572
6.86256e-06
-0.0132348
4.04578e-06
-0.000278781
-0.000836384
9.37278e-08
-0.00139406
3.73873e-07
-0.00195195
8.34476e-07
-0.00250995
1.46675e-06
-0.00306835
2.25444e-06
-0.00362695
3.1815e-06
-0.00418602
4.22095e-06
-0.00474552
5.35103e-06
-0.00530543
6.53424e-06
-0.00586606
7.74327e-06
-0.00642708
8.93298e-06
-0.00698902
1.00677e-05
-0.00755144
1.11006e-05
-0.00811487
1.19825e-05
-0.00867892
1.26734e-05
-0.00924399
1.30958e-05
-0.00981002
1.32419e-05
-0.0103768
1.29694e-05
-0.0109452
1.235e-05
-0.0115136
1.10969e-05
-0.0120855
9.52379e-06
-0.0126544
6.96119e-06
-0.0132308
4.08958e-06
-0.000278875
-0.000836663
9.4536e-08
-0.00139452
3.77124e-07
-0.00195258
8.41849e-07
-0.00251074
1.47998e-06
-0.00306927
2.27526e-06
-0.00362798
3.21167e-06
-0.00418715
4.26208e-06
-0.0047467
5.40465e-06
-0.00530663
6.60133e-06
-0.00586725
7.82457e-06
-0.00642821
9.02776e-06
-0.00699005
1.0175e-05
-0.00755232
1.12171e-05
-0.00811556
1.21059e-05
-0.00867933
1.27981e-05
-0.00924412
1.32202e-05
-0.00980974
1.33587e-05
-0.0103762
1.3081e-05
-0.0109439
1.24485e-05
-0.011512
1.11933e-05
-0.012083
9.56989e-06
-0.0126515
6.95175e-06
-0.0132267
4.0603e-06
-0.000278969
-0.000836946
9.52222e-08
-0.00139498
3.79878e-07
-0.00195321
8.48079e-07
-0.00251153
1.49113e-06
-0.00307021
2.29282e-06
-0.00362903
3.23722e-06
-0.00418829
4.29725e-06
-0.00474789
5.45124e-06
-0.00530785
6.66106e-06
-0.00586845
7.89911e-06
-0.00642936
9.11802e-06
-0.00699108
1.02814e-05
-0.0075532
1.13383e-05
-0.00811625
1.22405e-05
-0.00867975
1.29422e-05
-0.00924426
1.33713e-05
-0.00980946
1.3511e-05
-0.0103756
1.32345e-05
-0.0109427
1.25968e-05
-0.0115104
1.13444e-05
-0.0120804
9.69205e-06
-0.0126486
7.04842e-06
-0.0132226
4.16208e-06
-0.000279065
-0.00083723
9.55191e-08
-0.00139545
3.81066e-07
-0.00195386
8.50761e-07
-0.00251233
1.49591e-06
-0.00307115
2.30037e-06
-0.00363009
3.24827e-06
-0.00418944
4.31277e-06
-0.0047491
5.47248e-06
-0.00530909
6.68964e-06
-0.00586966
7.93687e-06
-0.00643052
9.16677e-06
-0.00699214
1.03426e-05
-0.00755409
1.14127e-05
-0.00811695
1.23277e-05
-0.00868018
1.30403e-05
-0.00924439
1.34775e-05
-0.00980918
1.36205e-05
-0.0103749
1.33455e-05
-0.0109414
1.2702e-05
-0.0115087
1.14481e-05
-0.0120777
9.784e-06
-0.0126457
7.13818e-06
-0.0132185
4.35784e-06
-0.00027916
-0.000837515
9.53164e-08
-0.00139592
3.80252e-07
-0.0019545
8.48926e-07
-0.00251314
1.49264e-06
-0.0030721
2.29528e-06
-0.00363115
3.2411e-06
-0.0041906
4.30345e-06
-0.00475031
5.46141e-06
-0.00531033
6.67767e-06
-0.00587089
7.92552e-06
-0.00643169
9.15793e-06
-0.0069932
1.03385e-05
-0.007555
1.14156e-05
-0.00811766
1.2339e-05
-0.00868061
1.30601e-05
-0.00924453
1.35045e-05
-0.0098089
1.36506e-05
-0.0103743
1.33764e-05
-0.0109402
1.27258e-05
-0.0115071
1.14721e-05
-0.0120751
9.80244e-06
-0.0126428
7.14354e-06
-0.0132142
4.01721e-06
-0.000279255
-0.0008378
9.46504e-08
-0.00139639
3.77589e-07
-0.00195514
8.42957e-07
-0.00251394
1.48208e-06
-0.00307304
2.27888e-06
-0.00363221
3.21777e-06
-0.00419175
4.27231e-06
-0.00475153
5.42202e-06
-0.00531158
6.6301e-06
-0.00587212
7.87066e-06
-0.00643287
9.09734e-06
-0.00699428
1.02748e-05
-0.00755592
1.13517e-05
-0.00811837
1.22785e-05
-0.00868105
1.30057e-05
-0.00924467
1.34576e-05
-0.00980862
1.36098e-05
-0.0103736
1.33396e-05
-0.0109389
1.26842e-05
-0.0115054
1.14284e-05
-0.0120724
9.75156e-06
-0.0126399
7.13635e-06
-0.0132098
3.95757e-06
-0.00027935
-0.000838082
9.35468e-08
-0.00139685
3.73189e-07
-0.00195578
8.33134e-07
-0.00251473
1.4648e-06
-0.00307398
2.25224e-06
-0.00363326
3.18005e-06
-0.0041929
4.22207e-06
-0.00475273
5.35824e-06
-0.00531282
6.55218e-06
-0.00587334
7.77881e-06
-0.00643404
8.99248e-06
-0.00699535
1.01592e-05
-0.00755684
1.12285e-05
-0.0081191
1.21523e-05
-0.0086815
1.28816e-05
-0.00924482
1.33404e-05
-0.00980834
1.35025e-05
-0.0103729
1.32438e-05
-0.0109376
1.25943e-05
-0.0115037
1.13417e-05
-0.0120698
9.64652e-06
-0.012637
7.09381e-06
-0.0132056
4.18872e-06
-0.000279443
-0.000838361
9.20314e-08
-0.00139731
3.67159e-07
-0.00195641
8.19717e-07
-0.00251552
1.4413e-06
-0.00307491
2.21623e-06
-0.0036343
3.12942e-06
-0.00419404
4.15504e-06
-0.00475392
5.27349e-06
-0.00531404
6.44878e-06
-0.00587455
7.65648e-06
-0.0064352
8.85148e-06
-0.00699642
1.00011e-05
-0.00755775
1.10558e-05
-0.00811982
1.19697e-05
-0.00868196
1.26949e-05
-0.00924497
1.31571e-05
-0.00980808
1.33302e-05
-0.0103723
1.30896e-05
-0.0109364
1.24603e-05
-0.011502
1.12303e-05
-0.0120673
9.54212e-06
-0.012634
7.01401e-06
-0.0132015
4.16691e-06
-0.000279535
-0.000838636
9.01428e-08
-0.00139776
3.59651e-07
-0.00195703
8.03039e-07
-0.00251629
1.41218e-06
-0.00307582
2.17176e-06
-0.00363533
3.0672e-06
-0.00419515
4.07316e-06
-0.0047551
5.17059e-06
-0.00531524
6.3239e-06
-0.00587574
7.50928e-06
-0.00643635
8.68191e-06
-0.00699747
9.81014e-06
-0.00755866
1.0845e-05
-0.00812054
1.17427e-05
-0.00868242
1.24571e-05
-0.00924514
1.29164e-05
-0.00980784
1.30967e-05
-0.0103716
1.2875e-05
-0.0109352
1.22746e-05
-0.0115003
1.10837e-05
-0.0120647
9.4323e-06
-0.0126311
6.93531e-06
-0.0131973
4.12002e-06
-0.000279625
-0.000838905
8.79381e-08
-0.00139821
3.50886e-07
-0.00195764
7.8357e-07
-0.00251705
1.37821e-06
-0.00307671
2.11996e-06
-0.00363633
2.99487e-06
-0.00419625
3.97829e-06
-0.00475625
5.05189e-06
-0.00531643
6.18067e-06
-0.00587691
7.34144e-06
-0.00643747
8.48964e-06
-0.0069985
9.59437e-06
-0.00755955
1.06066e-05
-0.00812125
1.14845e-05
-0.00868288
1.21826e-05
-0.00924532
1.26324e-05
-0.00980762
1.28128e-05
-0.010371
1.26049e-05
-0.010934
1.20335e-05
-0.0114986
1.08895e-05
-0.0120622
9.28831e-06
-0.0126283
6.85436e-06
-0.0131932
4.06564e-06
-0.000279713
-0.000839168
8.54899e-08
-0.00139864
3.41149e-07
-0.00195823
7.61919e-07
-0.00251779
1.34038e-06
-0.00307759
2.06223e-06
-0.00363732
2.91423e-06
-0.00419732
3.87253e-06
-0.00475737
4.91974e-06
-0.00531758
6.02167e-06
-0.00587805
7.15599e-06
-0.00643857
8.27854e-06
-0.00699951
9.35907e-06
-0.00756043
1.03483e-05
-0.00812194
1.12056e-05
-0.00868333
1.18855e-05
-0.0092455
1.23219e-05
-0.00980741
1.24955e-05
-0.0103705
1.22931e-05
-0.0109328
1.1743e-05
-0.011497
1.06435e-05
-0.0120598
9.10601e-06
-0.0126255
6.77216e-06
-0.0131891
4.00591e-06
-0.000279798
-0.000839423
8.28796e-08
-0.00139906
3.30755e-07
-0.00195881
7.38773e-07
-0.00251851
1.29986e-06
-0.00307844
2.00024e-06
-0.00363827
2.82741e-06
-0.00419837
3.75836e-06
-0.00475847
4.77676e-06
-0.00531872
5.84954e-06
-0.00587917
6.95542e-06
-0.00643965
8.051e-06
-0.00700049
9.1069e-06
-0.00756128
1.00738e-05
-0.00812261
1.09119e-05
-0.00868376
1.15754e-05
-0.00924567
1.1999e-05
-0.00980721
1.21633e-05
-0.0103699
1.19599e-05
-0.0109317
1.14191e-05
-0.0114955
1.03499e-05
-0.0120574
8.87126e-06
-0.0126227
6.64528e-06
-0.0131851
3.92936e-06
-0.000279881
-0.00083967
8.01812e-08
-0.00139946
3.20002e-07
-0.00195937
7.14786e-07
-0.00251921
1.25777e-06
-0.00307926
1.93565e-06
-0.0036392
2.73662e-06
-0.00419939
3.63847e-06
-0.00475954
4.62597e-06
-0.00531982
5.66726e-06
-0.00588026
6.74238e-06
-0.0064407
7.80901e-06
-0.00700146
8.83901e-06
-0.00756211
9.78356e-06
-0.00812327
1.06041e-05
-0.00868419
1.12547e-05
-0.00924583
1.16699e-05
-0.009807
1.18292e-05
-0.0103694
1.16256e-05
-0.0109306
1.10884e-05
-0.011494
1.00351e-05
-0.0120552
8.58833e-06
-0.01262
6.41747e-06
-0.0131812
3.81894e-06
-0.000279961
-0.000839909
7.74509e-08
-0.00139986
3.09113e-07
-0.00195991
6.90467e-07
-0.00251988
1.21502e-06
-0.00308006
1.86987e-06
-0.0036401
2.64381e-06
-0.00420037
3.51536e-06
-0.00476058
4.47033e-06
-0.00532089
5.47802e-06
-0.00588133
6.51989e-06
-0.00644173
7.55492e-06
-0.0070024
8.55648e-06
-0.00756293
9.47695e-06
-0.00812391
1.02797e-05
-0.00868461
1.09197e-05
-0.00924598
1.13314e-05
-0.0098068
1.14932e-05
-0.0103688
1.12971e-05
-0.0109296
1.07702e-05
-0.0114925
9.73323e-06
-0.012053
8.3092e-06
-0.0126174
6.18536e-06
-0.0131774
3.67606e-06
-0.000280039
-0.000840141
7.47177e-08
-0.00140024
2.98209e-07
-0.00196043
6.66101e-07
-0.00252054
1.17214e-06
-0.00308084
1.80378e-06
-0.00364097
2.55031e-06
-0.00420133
3.39086e-06
-0.00476159
4.31216e-06
-0.00532193
5.28462e-06
-0.00588236
6.29095e-06
-0.00644272
7.29147e-06
-0.00700332
8.26115e-06
-0.00756373
9.15396e-06
-0.00812454
9.93601e-06
-0.00868502
1.05644e-05
-0.00924614
1.09739e-05
-0.0098066
1.11442e-05
-0.0103683
1.09645e-05
-0.0109285
1.0462e-05
-0.0114911
9.45162e-06
-0.0120509
8.0549e-06
-0.0126149
5.96905e-06
-0.0131737
3.49027e-06
-0.000280113
-0.000840364
7.19792e-08
-0.0014006
2.87283e-07
-0.00196094
6.41693e-07
-0.00252117
1.12917e-06
-0.00308158
1.73751e-06
-0.00364181
2.45641e-06
-0.00420225
3.26551e-06
-0.00476256
4.15236e-06
-0.00532293
5.08838e-06
-0.00588335
6.05731e-06
-0.00644369
7.02061e-06
-0.00700421
7.95474e-06
-0.00756451
8.81539e-06
-0.00812516
9.57163e-06
-0.00868543
1.01835e-05
-0.00924631
1.05871e-05
-0.00980641
1.0766e-05
-0.0103678
1.06062e-05
-0.0109275
1.01425e-05
-0.0114897
9.17591e-06
-0.0120488
7.83314e-06
-0.0126124
5.79017e-06
-0.0131702
3.31719e-06
-0.000280185
-0.000840578
6.92108e-08
-0.00140096
2.76245e-07
-0.00196143
6.17049e-07
-0.00252178
1.08581e-06
-0.0030823
1.67061e-06
-0.00364262
2.36155e-06
-0.00420314
3.13874e-06
-0.00476349
3.99043e-06
-0.0053239
4.88897e-06
-0.00588431
5.81896e-06
-0.00644462
6.74282e-06
-0.00700507
7.63815e-06
-0.00756526
8.46233e-06
-0.00812576
9.18687e-06
-0.00868583
9.77524e-06
-0.00924648
1.01647e-05
-0.00980625
1.0345e-05
-0.0103673
1.01994e-05
-0.0109265
9.77798e-06
-0.0114884
8.86412e-06
-0.0120467
7.60711e-06
-0.0126099
5.64633e-06
-0.0131669
3.29319e-06
-0.000280254
-0.000840785
6.63626e-08
-0.0014013
2.64896e-07
-0.00196189
5.91731e-07
-0.00252236
1.04128e-06
-0.00308299
1.60194e-06
-0.0036434
2.26415e-06
-0.00420399
3.00851e-06
-0.00476439
3.82388e-06
-0.00532482
4.68362e-06
-0.00588523
5.57294e-06
-0.00644551
6.45527e-06
-0.00700589
7.30894e-06
-0.00756598
8.09304e-06
-0.00812635
8.78055e-06
-0.00868623
9.33829e-06
-0.00924665
9.70401e-06
-0.0098061
9.87442e-06
-0.0103669
9.7301e-06
-0.0109256
9.34081e-06
-0.0114871
8.47089e-06
-0.0120448
7.30443e-06
-0.0126076
5.437e-06
-0.0131636
3.22907e-06
-0.00028032
-0.000840983
6.3367e-08
-0.00140162
2.52957e-07
-0.00196234
5.6511e-07
-0.00252292
9.94469e-07
-0.00308365
1.52975e-06
-0.00364414
2.16177e-06
-0.0042048
2.87153e-06
-0.00476525
3.64867e-06
-0.00532571
4.46725e-06
-0.00588611
5.31356e-06
-0.00644636
6.15139e-06
-0.00700667
6.9608e-06
-0.00756667
7.70072e-06
-0.0081269
8.34769e-06
-0.00868659
8.86714e-06
-0.00924682
9.20273e-06
-0.00980595
9.34883e-06
-0.0103665
9.19588e-06
-0.0109247
8.81539e-06
-0.0114859
7.9778e-06
-0.0120429
6.87831e-06
-0.0126053
5.105e-06
-0.0131604
3.04703e-06
-0.000280384
-0.000841172
6.04814e-08
-0.00140193
2.41448e-07
-0.00196277
5.3947e-07
-0.00252345
9.49441e-07
-0.00308428
1.46041e-06
-0.00364485
2.06358e-06
-0.00420558
2.74038e-06
-0.00476606
3.48128e-06
-0.00532655
4.26085e-06
-0.00588694
5.0669e-06
-0.00644717
5.86307e-06
-0.00700741
6.63229e-06
-0.00756731
7.33178e-06
-0.00812741
7.94367e-06
-0.00868693
8.42793e-06
-0.00924696
8.73904e-06
-0.0098058
8.86064e-06
-0.0103661
8.7033e-06
-0.0109239
8.32007e-06
-0.0114848
7.51346e-06
-0.0120411
6.45568e-06
-0.0126033
4.76444e-06
-0.0131573
2.82015e-06
-0.000280444
-0.000841353
5.79196e-08
-0.00140223
2.31245e-07
-0.00196318
5.16782e-07
-0.00252396
9.09691e-07
-0.00308489
1.39938e-06
-0.00364553
1.97748e-06
-0.00420632
2.62591e-06
-0.00476684
3.33579e-06
-0.00532736
4.08266e-06
-0.00588773
4.85501e-06
-0.00644794
5.61805e-06
-0.00700811
6.35525e-06
-0.00756792
7.02617e-06
-0.00812789
7.61257e-06
-0.00868725
8.07758e-06
-0.00924708
8.37419e-06
-0.00980564
8.49306e-06
-0.0103657
8.33935e-06
-0.0109231
7.97441e-06
-0.0114838
7.19534e-06
-0.0120394
6.19642e-06
-0.0126013
4.55936e-06
-0.0131545
2.74201e-06
-0.000280502
-0.000841526
5.51557e-08
-0.00140252
2.20233e-07
-0.00196357
4.92281e-07
-0.00252445
8.66736e-07
-0.00308546
1.33342e-06
-0.00364618
1.88444e-06
-0.00420703
2.5023e-06
-0.00476758
3.17869e-06
-0.00532812
3.89017e-06
-0.00588849
4.62588e-06
-0.00644867
5.35294e-06
-0.00700878
6.05519e-06
-0.0075685
6.69516e-06
-0.00812835
7.25357e-06
-0.00868755
7.69781e-06
-0.00924719
7.97872e-06
-0.00980549
8.09762e-06
-0.0103654
7.94939e-06
-0.0109223
7.60466e-06
-0.0114828
6.84973e-06
-0.0120378
5.89612e-06
-0.0125995
4.30348e-06
-0.0131517
2.65765e-06
-0.000280557
-0.000841692
5.2167e-08
-0.00140279
2.08319e-07
-0.00196394
4.65751e-07
-0.00252491
8.20201e-07
-0.00308601
1.26196e-06
-0.00364679
1.7837e-06
-0.0042077
2.36856e-06
-0.00476829
3.00881e-06
-0.00532886
3.68204e-06
-0.00588921
4.3781e-06
-0.00644937
5.06622e-06
-0.00700941
5.73059e-06
-0.00756906
6.3369e-06
-0.00812879
6.86461e-06
-0.00868783
7.28567e-06
-0.0092473
7.54923e-06
-0.00980534
7.6697e-06
-0.010365
7.53033e-06
-0.0109215
7.21479e-06
-0.0114818
6.48782e-06
-0.0120362
5.57535e-06
-0.0125978
3.99848e-06
-0.0131491
2.4565e-06
-0.000280609
-0.000841848
4.89348e-08
-0.00140305
1.95429e-07
-0.0019643
4.37024e-07
-0.00252535
7.69786e-07
-0.00308653
1.18454e-06
-0.00364738
1.67462e-06
-0.00420834
2.22391e-06
-0.00476897
2.82523e-06
-0.00532955
3.45732e-06
-0.0058899
4.11063e-06
-0.00645003
4.75701e-06
-0.00701002
5.38063e-06
-0.00756959
5.95102e-06
-0.00812921
6.44532e-06
-0.0086881
6.84119e-06
-0.00924741
7.08463e-06
-0.0098052
7.20602e-06
-0.0103647
7.07484e-06
-0.0109208
6.79675e-06
-0.0114809
6.10295e-06
-0.0120346
5.28445e-06
-0.0125963
3.98727e-06
-0.0131466
2.31136e-06
-0.000280659
-0.000841995
4.54422e-08
-0.00140329
1.81494e-07
-0.00196463
4.05945e-07
-0.00252577
7.15223e-07
-0.00308702
1.10075e-06
-0.00364793
1.55663e-06
-0.00420895
2.06755e-06
-0.0047696
2.62695e-06
-0.0053302
3.21484e-06
-0.00589054
3.82219e-06
-0.00645065
4.42409e-06
-0.00701059
5.00411e-06
-0.00757008
5.53672e-06
-0.00812961
5.99514e-06
-0.00868834
6.36501e-06
-0.00924753
6.58607e-06
-0.00980507
6.70742e-06
-0.0103644
6.57958e-06
-0.0109202
6.33154e-06
-0.01148
5.6578e-06
-0.0120331
4.9645e-06
-0.0125948
3.62516e-06
-0.0131443
2.15265e-06
-0.000280704
-0.000842131
4.1681e-08
-0.00140351
1.66473e-07
-0.00196494
3.72412e-07
-0.00252615
6.56323e-07
-0.00308748
1.01028e-06
-0.00364844
1.42929e-06
-0.0042095
1.89885e-06
-0.00477018
2.41309e-06
-0.00533081
2.95354e-06
-0.00589114
3.51151e-06
-0.00645123
4.06615e-06
-0.00701112
4.59946e-06
-0.00757054
5.09276e-06
-0.00812998
5.51267e-06
-0.00868856
5.85681e-06
-0.00924764
6.05423e-06
-0.00980495
6.17805e-06
-0.0103641
6.04845e-06
-0.0109195
5.82998e-06
-0.0114793
5.14525e-06
-0.0120318
4.60635e-06
-0.0125934
3.32706e-06
-0.0131421
1.97778e-06
-0.000280746
-0.000842256
3.76596e-08
-0.00140372
1.50379e-07
-0.00196522
3.36422e-07
-0.0025265
5.93049e-07
-0.00308789
9.13064e-07
-0.00364891
1.29246e-06
-0.00421002
1.71755e-06
-0.00477072
2.18323e-06
-0.00533136
2.67287e-06
-0.00589169
3.17777e-06
-0.00645176
3.68225e-06
-0.00701161
4.16531e-06
-0.00757096
4.61803e-06
-0.00813033
4.99609e-06
-0.00868876
5.31584e-06
-0.00924775
5.48791e-06
-0.00980483
5.61785e-06
-0.0103638
5.48129e-06
-0.0109188
5.34676e-06
-0.0114788
4.97489e-06
-0.0120305
4.10661e-06
-0.012592
3.02316e-06
-0.0131401
1.79004e-06
-0.000280784
-0.000842369
3.33994e-08
-0.0014039
1.33269e-07
-0.00196548
2.9807e-07
-0.00252682
5.25544e-07
-0.00308827
8.09236e-07
-0.00364933
1.14633e-06
-0.00421048
1.52392e-06
-0.00477121
1.93759e-06
-0.00533187
2.37302e-06
-0.00589219
2.82088e-06
-0.00645224
3.27233e-06
-0.00701206
3.70102e-06
-0.00757134
4.11233e-06
-0.00813065
4.44353e-06
-0.00868892
4.74326e-06
-0.00924788
4.88551e-06
-0.00980468
5.02831e-06
-0.0103637
4.8451e-06
-0.0109181
4.82656e-06
-0.0114782
4.357e-06
-0.0120295
3.66593e-06
-0.0125908
2.72101e-06
-0.0131383
1.60948e-06
-0.000280817
-0.000842469
2.89103e-08
-0.00140407
1.15196e-07
-0.0019657
2.57486e-07
-0.0025271
4.5406e-07
-0.00308861
6.99161e-07
-0.00364971
9.91449e-07
-0.0042109
1.31876e-06
-0.00477165
1.67717e-06
-0.00533232
2.05513e-06
-0.00589264
2.44177e-06
-0.00645266
2.83791e-06
-0.00701247
3.20722e-06
-0.00757167
3.57777e-06
-0.00813095
3.8535e-06
-0.00868905
4.14406e-06
-0.00924802
4.24819e-06
-0.00980443
4.43565e-06
-0.0103637
4.54318e-06
-0.0109176
4.16262e-06
-0.0114776
3.76547e-06
-0.0120285
3.20337e-06
-0.0125897
2.39029e-06
-0.0131367
1.41302e-06
-0.000280846
-0.000842556
2.41493e-08
-0.00140421
9.61494e-08
-0.0019659
2.14806e-07
-0.00252735
3.78996e-07
-0.0030889
5.83577e-07
-0.00365003
8.28837e-07