/*--------------------------------*- C++ -*----------------------------------*\
  =========                 |
  \\      /  F ield         | OpenFOAM: The Open Source CFD Toolbox
   \\    /   O peration     | Website:  https://openfoam.org
    \\  /    A nd           | Version:  10
     \\/     M anipulation  |
\*---------------------------------------------------------------------------*/
FoamFile
{
    format      ascii;
    class       volScalarField;
    location    "0.18";
    object      rho;
}
// * * * * * * * * * * * * * * * * * * * * * * * * * * * * * * * * * * * * * //

dimensions      [1 -3 0 0 0 0 0];

internalField   nonuniform List<scalar> 
4176
(
0.0308507
0.0308536
0.03086
0.0308702
0.0308835
0.0308996
0.0309207
0.030942
0.0309713
0.0309975
0.0310343
0.0310667
0.0311088
0.0311496
0.0311942
0.0312459
0.031289
0.0313569
0.0313952
0.0314811
0.0315129
0.0316179
0.0316381
0.0317525
0.0308584
0.0308612
0.0308666
0.0308764
0.0308876
0.0309031
0.030921
0.0309415
0.0309667
0.0309916
0.0310237
0.031054
0.0310916
0.0311288
0.0311696
0.0312159
0.0312558
0.0313161
0.0313516
0.0314285
0.0314557
0.0315556
0.0315765
0.0317055
0.0308777
0.0308806
0.0308863
0.0308963
0.0309081
0.030924
0.0309428
0.0309637
0.0309903
0.0310157
0.0310495
0.0310804
0.03112
0.0311581
0.0312011
0.0312485
0.0312908
0.0313537
0.0313893
0.0314699
0.0314974
0.0315961
0.031615
0.0317362
0.0309064
0.0309092
0.0309147
0.0309244
0.0309359
0.0309513
0.0309697
0.0309899
0.0310159
0.0310403
0.0310737
0.0311032
0.0311424
0.0311788
0.0312215
0.0312671
0.031309
0.031372
0.031403
0.0314859
0.031511
0.0316084
0.0316261
0.0317385
0.0309458
0.0309486
0.0309541
0.0309638
0.0309752
0.0309908
0.031009
0.0310294
0.0310551
0.0310799
0.0311129
0.0311428
0.0311817
0.0312183
0.0312611
0.031306
0.0313499
0.0314098
0.0314445
0.0315253
0.0315521
0.031649
0.0316682
0.0317821
0.0309952
0.030998
0.0310034
0.0310131
0.0310242
0.0310397
0.0310575
0.0310778
0.031103
0.0311276
0.0311599
0.0311896
0.0312278
0.031264
0.0313064
0.0313503
0.0313946
0.0314515
0.0314896
0.0315664
0.031594
0.0316899
0.0317099
0.0318253
0.031055
0.0310579
0.0310632
0.0310728
0.0310838
0.0310992
0.0311168
0.031137
0.0311619
0.0311863
0.0312183
0.0312478
0.0312857
0.0313214
0.0313637
0.0314068
0.0314514
0.0315066
0.0315456
0.0316205
0.0316493
0.0317437
0.0317639
0.0318773
0.0311251
0.0311279
0.0311331
0.0311427
0.0311536
0.0311688
0.0311861
0.0312061
0.0312307
0.0312548
0.0312864
0.0313155
0.031353
0.0313881
0.0314302
0.0314723
0.031517
0.0315703
0.0316105
0.0316827
0.0317126
0.0318055
0.0318261
0.0319383
0.0312056
0.0312084
0.0312135
0.031223
0.0312337
0.0312488
0.0312659
0.0312857
0.0313099
0.0313338
0.031365
0.0313936
0.0314307
0.0314653
0.031507
0.0315483
0.031593
0.0316446
0.0316857
0.0317555
0.0317863
0.0318772
0.0318984
0.0320087
0.0312964
0.0312992
0.0313042
0.0313136
0.0313242
0.0313391
0.0313559
0.0313755
0.0313993
0.0314229
0.0314536
0.0314818
0.0315185
0.0315524
0.0315938
0.0316341
0.0316787
0.0317287
0.0317705
0.0318378
0.0318701
0.0319578
0.0319798
0.0320884
0.0313976
0.0314004
0.0314053
0.0314147
0.031425
0.0314398
0.0314563
0.0314756
0.0314991
0.0315223
0.0315527
0.0315804
0.0316166
0.0316498
0.0316908
0.0317302
0.0317745
0.031823
0.0318653
0.0319302
0.0319631
0.0320487
0.0320711
0.0321776
0.0315093
0.031512
0.0315169
0.0315261
0.0315363
0.0315509
0.0315671
0.0315862
0.0316093
0.0316321
0.031662
0.0316892
0.0317249
0.0317574
0.0317979
0.0318363
0.0318804
0.0319273
0.03197
0.0320326
0.0320659
0.0321494
0.0321718
0.0322763
0.0316316
0.0316343
0.031639
0.0316482
0.0316581
0.0316725
0.0316884
0.0317072
0.0317299
0.0317523
0.0317817
0.0318084
0.0318435
0.0318753
0.0319153
0.0319527
0.0319963
0.0320418
0.0320848
0.0321449
0.032179
0.0322597
0.0322824
0.0323845
0.0317644
0.0317671
0.0317718
0.0317808
0.0317905
0.0318047
0.0318203
0.0318387
0.031861
0.0318829
0.0319118
0.0319379
0.0319725
0.0320035
0.032043
0.0320793
0.0321225
0.0321665
0.0322096
0.0322673
0.0323019
0.0323801
0.0324027
0.0325025
0.031908
0.0319107
0.0319152
0.0319241
0.0319336
0.0319475
0.0319627
0.0319808
0.0320026
0.0320241
0.0320524
0.0320779
0.0321119
0.0321421
0.032181
0.0322162
0.0322589
0.0323014
0.0323444
0.0323997
0.0324347
0.0325104
0.0325331
0.0326302
0.0320623
0.032065
0.0320694
0.0320782
0.0320874
0.0321011
0.0321159
0.0321336
0.0321549
0.0321759
0.0322036
0.0322285
0.0322617
0.0322912
0.0323293
0.0323635
0.0324056
0.0324465
0.0324894
0.0325423
0.0325779
0.0326503
0.0326736
0.0327679
0.0322276
0.0322302
0.0322345
0.0322431
0.0322521
0.0322655
0.0322799
0.0322972
0.032318
0.0323384
0.0323655
0.0323896
0.0324222
0.0324507
0.0324882
0.0325212
0.0325626
0.0326021
0.0326447
0.032695
0.0327309
0.0328007
0.0328242
0.0329155
0.0324038
0.0324064
0.0324106
0.032419
0.0324277
0.0324408
0.0324548
0.0324716
0.0324919
0.0325117
0.0325381
0.0325615
0.0325933
0.0326209
0.0326575
0.0326894
0.0327301
0.0327681
0.0328102
0.0328581
0.0328944
0.0329609
0.032985
0.0330732
0.0325912
0.0325937
0.0325978
0.032606
0.0326144
0.0326272
0.0326407
0.0326571
0.0326767
0.0326959
0.0327216
0.0327442
0.0327752
0.0328017
0.0328375
0.0328682
0.0329081
0.0329445
0.0329861
0.0330316
0.033068
0.0331317
0.033156
0.033241
0.0327897
0.0327922
0.0327961
0.0328042
0.0328122
0.0328247
0.0328377
0.0328536
0.0328726
0.0328911
0.032916
0.0329378
0.0329679
0.0329934
0.0330283
0.0330577
0.0330967
0.0331315
0.0331725
0.0332156
0.0332522
0.0333126
0.0333374
0.033419
0.0329995
0.033002
0.0330057
0.0330136
0.0330213
0.0330334
0.0330459
0.0330613
0.0330796
0.0330975
0.0331216
0.0331424
0.0331716
0.0331961
0.03323
0.033258
0.0332961
0.0333292
0.0333694
0.0334102
0.0334467
0.0335041
0.0335291
0.0336074
0.0332208
0.0332232
0.0332268
0.0332344
0.0332417
0.0332534
0.0332654
0.0332802
0.0332979
0.033315
0.0333382
0.0333582
0.0333864
0.0334097
0.0334426
0.0334693
0.0335063
0.0335377
0.033577
0.0336155
0.0336519
0.033706
0.0337313
0.0338061
0.0334536
0.033456
0.0334593
0.0334667
0.0334736
0.0334849
0.0334964
0.0335105
0.0335275
0.0335438
0.0335662
0.0335852
0.0336124
0.0336345
0.0336663
0.0336916
0.0337275
0.0337571
0.0337955
0.0338317
0.0338679
0.0339186
0.0339441
0.0340153
0.0336979
0.0337003
0.0337034
0.0337106
0.0337171
0.033728
0.0337388
0.0337523
0.0337685
0.033784
0.0338055
0.0338235
0.0338497
0.0338706
0.0339013
0.0339251
0.0339598
0.0339876
0.034025
0.0340588
0.0340947
0.034142
0.0341675
0.034235
0.033954
0.0339563
0.0339592
0.0339661
0.0339723
0.0339827
0.0339929
0.0340058
0.0340211
0.0340358
0.0340563
0.0340733
0.0340983
0.034118
0.0341476
0.0341699
0.0342034
0.0342294
0.0342656
0.0342971
0.0343325
0.0343765
0.0344017
0.0344656
0.0342218
0.034224
0.0342268
0.0342335
0.0342391
0.0342491
0.0342587
0.0342709
0.0342854
0.0342992
0.0343187
0.0343346
0.0343585
0.0343769
0.0344052
0.034426
0.0344583
0.0344824
0.0345175
0.0345466
0.0345814
0.0346219
0.034647
0.0347072
0.0345015
0.0345036
0.0345062
0.0345126
0.0345179
0.0345274
0.0345363
0.0345478
0.0345615
0.0345744
0.0345929
0.0346076
0.0346304
0.0346474
0.0346745
0.0346937
0.0347247
0.0347469
0.0347808
0.0348075
0.0348415
0.0348786
0.0349035
0.0349602
0.034793
0.0347952
0.0347975
0.0348037
0.0348085
0.0348175
0.0348258
0.0348367
0.0348495
0.0348614
0.0348789
0.0348925
0.0349141
0.0349297
0.0349555
0.034973
0.0350026
0.035023
0.0350555
0.0350799
0.035113
0.0351465
0.0351713
0.0352241
0.0350967
0.0350988
0.0351009
0.0351068
0.0351112
0.0351197
0.0351273
0.0351375
0.0351494
0.0351605
0.0351768
0.0351893
0.0352096
0.0352238
0.0352483
0.0352641
0.0352923
0.0353107
0.035342
0.0353639
0.0353959
0.0354261
0.0354511
0.0354989
0.0354124
0.0354144
0.0354164
0.035422
0.0354259
0.035434
0.0354409
0.0354504
0.0354615
0.0354716
0.0354869
0.0354981
0.0355172
0.0355299
0.035553
0.0355672
0.0355939
0.0356103
0.0356401
0.0356597
0.0356907
0.0357171
0.0357423
0.0357853
0.0357404
0.0357424
0.0357441
0.0357494
0.0357529
0.0357605
0.0357667
0.0357755
0.0357857
0.0357948
0.0358091
0.0358191
0.035837
0.0358482
0.03587
0.0358823
0.0359076
0.0359219
0.0359503
0.0359674
0.0359971
0.0360204
0.0360448
0.0360842
0.0360807
0.0360826
0.0360841
0.0360892
0.0360921
0.0360993
0.0361048
0.0361129
0.0361221
0.0361303
0.0361435
0.0361524
0.036169
0.0361788
0.0361991
0.0362097
0.0362335
0.0362457
0.0362725
0.0362871
0.0363156
0.0363355
0.0363596
0.0363946
0.0364333
0.0364352
0.0364365
0.0364413
0.0364438
0.0364504
0.0364553
0.0364626
0.036471
0.0364782
0.0364903
0.036498
0.0365134
0.0365217
0.0365407
0.0365495
0.0365718
0.0365819
0.0366071
0.0366192
0.0366461
0.036663
0.0366869
0.0367169
0.0367984
0.0368002
0.0368013
0.0368059
0.0368079
0.0368141
0.0368182
0.0368248
0.0368323
0.0368386
0.0368496
0.036856
0.0368702
0.036877
0.0368947
0.0369018
0.0369226
0.0369305
0.0369542
0.0369637
0.0369892
0.0370026
0.0370261
0.0370517
0.0371761
0.0371779
0.0371787
0.037183
0.0371846
0.0371903
0.0371937
0.0371997
0.0372062
0.0372116
0.0372215
0.0372267
0.0372397
0.037245
0.0372612
0.0372666
0.0372859
0.0372917
0.037314
0.0373208
0.0373448
0.037355
0.0373779
0.0373987
0.0375664
0.0375681
0.0375688
0.0375728
0.037574
0.0375792
0.037582
0.0375872
0.0375928
0.0375972
0.037606
0.0376101
0.0376218
0.0376256
0.0376404
0.037644
0.0376619
0.0376656
0.0376864
0.0376907
0.0377133
0.0377201
0.0377421
0.0377582
0.0379695
0.0379712
0.0379716
0.0379754
0.0379761
0.0379809
0.037983
0.0379875
0.0379923
0.0379957
0.0380035
0.0380063
0.0380167
0.0380191
0.0380324
0.0380343
0.0380507
0.0380522
0.0380715
0.0380733
0.0380945
0.0380983
0.038119
0.0381304
0.0383854
0.038387
0.0383873
0.0383909
0.0383911
0.0383954
0.0383969
0.0384007
0.0384046
0.0384072
0.0384138
0.0384155
0.0384246
0.0384255
0.0384374
0.0384375
0.0384524
0.0384517
0.0384696
0.0384687
0.0384886
0.0384892
0.038509
0.0385155
0.0388143
0.0388159
0.038816
0.0388193
0.0388191
0.038823
0.0388238
0.038827
0.03883
0.0388316
0.0388373
0.0388377
0.0388456
0.038845
0.0388555
0.0388538
0.0388672
0.0388643
0.0388806
0.0388771
0.0388956
0.0388931
0.0389119
0.0389138
0.0392563
0.0392579
0.0392578
0.0392609
0.0392602
0.0392637
0.0392638
0.0392663
0.0392685
0.0392692
0.0392738
0.0392731
0.0392798
0.0392776
0.0392868
0.0392833
0.0392951
0.03929
0.0393049
0.0392985
0.0393157
0.03931
0.0393277
0.0393254
0.0397116
0.0397131
0.0397128
0.0397156
0.0397146
0.0397176
0.039717
0.0397189
0.0397202
0.03972
0.0397236
0.0397217
0.0397272
0.0397236
0.0397314
0.039726
0.0397365
0.039729
0.0397425
0.0397333
0.0397492
0.03974
0.0397565
0.0397505
0.0401802
0.0401817
0.0401812
0.0401838
0.0401823
0.0401848
0.0401836
0.0401849
0.0401853
0.0401842
0.0401867
0.0401836
0.0401879
0.0401828
0.0401893
0.0401822
0.0401912
0.0401815
0.0401936
0.0401815
0.0401961
0.0401834
0.0401988
0.0401885
0.0406623
0.0406638
0.040663
0.0406654
0.0406635
0.0406656
0.0406637
0.0406643
0.0406638
0.0406618
0.0406632
0.040659
0.0406621
0.0406555
0.0406607
0.0406518
0.0406594
0.0406474
0.0406583
0.0406433
0.0406568
0.0406404
0.0406548
0.0406398
0.041158
0.0411594
0.0411585
0.0411606
0.0411582
0.0411599
0.0411573
0.0411572
0.0411559
0.0411529
0.0411533
0.0411479
0.0411498
0.0411417
0.0411456
0.0411349
0.0411411
0.0411268
0.0411365
0.0411186
0.0411311
0.0411111
0.0411247
0.0411051
0.0416674
0.0416688
0.0416676
0.0416695
0.0416666
0.0416678
0.0416646
0.0416638
0.0416616
0.0416578
0.041657
0.0416505
0.0416511
0.0416416
0.0416441
0.0416316
0.0416364
0.0416199
0.0416283
0.0416076
0.0416191
0.0415955
0.0416084
0.0415843
0.0421905
0.0421918
0.0421905
0.0421921
0.0421888
0.0421896
0.0421856
0.0421842
0.0421811
0.0421763
0.0421745
0.0421667
0.0421661
0.0421551
0.0421563
0.0421419
0.0421454
0.0421265
0.0421338
0.0421101
0.0421207
0.0420934
0.0421059
0.042077
0.0427274
0.0427287
0.0427272
0.0427286
0.0427248
0.0427251
0.0427204
0.0427183
0.0427143
0.0427086
0.0427057
0.0426967
0.0426949
0.0426824
0.0426823
0.0426661
0.0426681
0.042647
0.042653
0.0426264
0.0426362
0.0426048
0.0426178
0.0425832
0.0432782
0.0432794
0.0432777
0.0432788
0.0432746
0.0432744
0.0432691
0.0432663
0.0432614
0.0432547
0.0432508
0.0432406
0.0432375
0.0432236
0.0432221
0.043204
0.0432048
0.0431812
0.0431861
0.0431565
0.0431653
0.0431296
0.0431436
0.0431036
0.0438428
0.043844
0.043842
0.043843
0.0438382
0.0438377
0.0438316
0.0438281
0.0438224
0.0438148
0.0438098
0.0437983
0.0437941
0.0437786
0.0437758
0.0437558
0.0437554
0.0437294
0.0437332
0.0437004
0.0437087
0.0436686
0.0436829
0.043638
0.0444212
0.0444224
0.0444202
0.0444209
0.0444157
0.0444147
0.044408
0.0444038
0.0443972
0.0443886
0.0443826
0.0443699
0.0443645
0.0443475
0.0443435
0.0443214
0.04432
0.0442915
0.0442943
0.044258
0.0442665
0.0442219
0.0442358
0.0441863
0.0450133
0.0450146
0.0450122
0.0450126
0.045007
0.0450055
0.0449981
0.0449933
0.0449858
0.0449763
0.0449693
0.0449554
0.0449489
0.0449302
0.0449252
0.0449009
0.0448986
0.0448674
0.0448695
0.044829
0.0448393
0.0447888
0.044803
0.0447488
0.0456192
0.0456204
0.0456178
0.045618
0.0456119
0.0456101
0.045602
0.0455966
0.0455882
0.0455778
0.0455698
0.0455546
0.0455472
0.0455268
0.0455208
0.0454942
0.0454914
0.0454569
0.0454592
0.0454146
0.0454246
0.0453706
0.0453842
0.0453256
0.0462386
0.0462397
0.046237
0.046237
0.0462305
0.0462283
0.0462195
0.0462135
0.0462043
0.046193
0.0461841
0.0461676
0.0461593
0.0461371
0.0461304
0.0461013
0.0460983
0.0460597
0.0460638
0.0460147
0.0460237
0.0459665
0.0459794
0.0459167
0.0468714
0.0468725
0.0468696
0.0468694
0.0468624
0.0468599
0.0468505
0.0468439
0.046834
0.0468217
0.0468121
0.0467942
0.0467853
0.046761
0.0467541
0.0467221
0.0467194
0.0466774
0.0466809
0.0466288
0.0466371
0.0465767
0.046589
0.046522
0.0475175
0.0475186
0.0475155
0.0475151
0.0475077
0.0475049
0.0474949
0.0474877
0.0474771
0.0474638
0.0474537
0.0474342
0.0474251
0.0473983
0.0473919
0.0473567
0.0473542
0.0473092
0.0473115
0.0472573
0.0472646
0.0472012
0.0472125
0.0471417
0.0481765
0.0481777
0.0481744
0.0481739
0.0481661
0.048163
0.0481524
0.0481446
0.0481335
0.048119
0.0481089
0.0480873
0.0480787
0.0480488
0.0480435
0.0480049
0.0480022
0.0479549
0.0479565
0.0479
0.0479057
0.0478396
0.0478504
0.0477757
0.0488484
0.0488496
0.0488461
0.0488456
0.0488374
0.048834
0.0488229
0.0488145
0.0488032
0.0487872
0.0487775
0.0487534
0.0487456
0.0487135
0.0487073
0.0486675
0.0486637
0.0486147
0.0486149
0.0485563
0.0485613
0.0484924
0.0485023
0.0484239
0.0495329
0.0495342
0.0495302
0.0495301
0.0495212
0.0495179
0.0495062
0.049497
0.049486
0.0494684
0.0494587
0.0494336
0.0494247
0.049392
0.0493843
0.0493438
0.0493385
0.0492883
0.049287
0.0492267
0.0492302
0.049159
0.0491682
0.0490863
0.0502298
0.0502312
0.050227
0.0502269
0.0502174
0.0502143
0.0502019
0.0501926
0.0501808
0.050163
0.0501524
0.0501267
0.0501169
0.0500834
0.0500747
0.0500332
0.0500266
0.049975
0.049973
0.0499106
0.0499133
0.0498396
0.049848
0.0497629
0.0509389
0.0509403
0.050936
0.0509358
0.0509262
0.0509228
0.0509097
0.0509011
0.0508879
0.0508701
0.0508588
0.0508324
0.0508218
0.0507877
0.0507779
0.0507356
0.050728
0.0506755
0.0506718
0.0506081
0.0506096
0.0505339
0.0505416
0.0504533
0.0516599
0.0516614
0.0516572
0.0516567
0.0516471
0.0516435
0.05163
0.0516216
0.0516069
0.0515901
0.0515773
0.0515508
0.0515394
0.0515048
0.0514939
0.0514511
0.0514422
0.0513885
0.0513843
0.0513188
0.0513195
0.0512416
0.0512486
0.0511575
0.0523929
0.0523944
0.0523902
0.0523896
0.0523799
0.0523762
0.0523624
0.052354
0.0523383
0.0523221
0.0523075
0.052282
0.0522692
0.0522341
0.0522226
0.052179
0.0521692
0.0521149
0.0521092
0.0520426
0.0520422
0.0519626
0.0519689
0.0518751
0.0531375
0.0531391
0.0531349
0.0531343
0.0531245
0.0531207
0.0531067
0.0530982
0.0530819
0.053066
0.0530502
0.0530252
0.0530111
0.0529758
0.0529635
0.0529194
0.0529085
0.0528534
0.052847
0.0527791
0.0527778
0.0526965
0.052702
0.0526059
0.0538939
0.0538955
0.0538912
0.0538907
0.0538807
0.053877
0.0538626
0.0538541
0.0538373
0.0538217
0.0538049
0.0537802
0.0537648
0.0537298
0.0537166
0.0536715
0.0536601
0.0536042
0.0535967
0.0535279
0.0535256
0.053443
0.0534478
0.0533495
0.0546619
0.0546636
0.0546593
0.0546588
0.0546486
0.0546449
0.0546303
0.0546218
0.0546045
0.054589
0.0545713
0.0545468
0.0545301
0.0544957
0.0544813
0.0544355
0.0544234
0.0543668
0.0543584
0.0542888
0.0542856
0.0542016
0.0542057
0.0541055
0.0554416
0.0554433
0.055439
0.0554386
0.0554282
0.0554244
0.0554096
0.0554009
0.0553832
0.0553678
0.0553492
0.0553249
0.0553073
0.0552724
0.0552575
0.055211
0.0551982
0.0551408
0.0551315
0.0550613
0.0550571
0.0549719
0.0549754
0.0548734
0.056233
0.0562348
0.0562303
0.05623
0.0562194
0.0562156
0.0562003
0.0561916
0.0561733
0.0561579
0.0561384
0.0561141
0.0560956
0.0560604
0.0560445
0.0559977
0.0559842
0.0559259
0.0559158
0.0558449
0.0558399
0.0557538
0.0557564
0.0556529
0.0570361
0.057038
0.0570333
0.0570329
0.057022
0.0570181
0.0570024
0.0569934
0.0569746
0.0569589
0.0569384
0.0569142
0.0568945
0.0568592
0.0568424
0.056795
0.056781
0.0567217
0.0567108
0.0566394
0.0566332
0.0565464
0.0565484
0.0564436
0.0578505
0.0578525
0.0578476
0.0578472
0.0578359
0.0578317
0.0578155
0.0578061
0.0577867
0.0577706
0.057749
0.0577249
0.0577038
0.0576684
0.0576502
0.0576029
0.0575882
0.0575277
0.0575163
0.0574441
0.0574372
0.0573498
0.0573509
0.0572452
0.0586759
0.0586779
0.0586728
0.0586721
0.0586604
0.0586558
0.0586391
0.0586291
0.058609
0.0585925
0.0585697
0.0585457
0.0585228
0.0584881
0.058468
0.0584208
0.0584052
0.058344
0.0583317
0.058259
0.0582513
0.0581634
0.058164
0.0580574
0.059511
0.059513
0.0595078
0.0595068
0.0594948
0.0594896
0.0594724
0.0594619
0.059441
0.0594239
0.0594001
0.0593761
0.0593515
0.0593173
0.0592955
0.0592483
0.0592313
0.0591701
0.0591576
0.0590838
0.0590756
0.0589875
0.0589872
0.0588803
0.0603543
0.0603563
0.060351
0.0603497
0.0603375
0.060332
0.0603143
0.0603033
0.0602818
0.0602642
0.0602397
0.0602156
0.0601892
0.0601559
0.0601319
0.0600857
0.0600661
0.0600068
0.0599931
0.0599187
0.0599099
0.0598216
0.0598209
0.0597136
0.0612038
0.0612057
0.0612005
0.0611992
0.0611869
0.0611812
0.0611634
0.0611522
0.0611305
0.0611126
0.0610876
0.0610635
0.0610361
0.0610035
0.0609773
0.0609329
0.0609111
0.0608525
0.0608381
0.0607636
0.0607544
0.0606663
0.060665
0.0605577
0.0620571
0.0620592
0.0620541
0.062053
0.062041
0.0620356
0.0620181
0.0620071
0.0619856
0.061968
0.0619431
0.0619193
0.0618914
0.0618597
0.0618322
0.0617893
0.061766
0.0617082
0.061692
0.0616194
0.0616092
0.0615213
0.0615199
0.0614127
0.0629125
0.0629147
0.06291
0.0629093
0.062898
0.0628933
0.0628766
0.0628666
0.062846
0.0628293
0.0628052
0.0627823
0.0627549
0.0627245
0.0626963
0.0626554
0.0626301
0.0625747
0.0625561
0.0624859
0.0624749
0.0623872
0.0623858
0.0622791
0.0637689
0.0637714
0.0637673
0.0637674
0.0637569
0.0637535
0.0637381
0.0637296
0.0637105
0.0636955
0.063673
0.0636519
0.0636257
0.0635971
0.0635695
0.0635307
0.0635048
0.0634519
0.0634323
0.0633626
0.0633519
0.0632644
0.063263
0.0631567
0.0646275
0.0646302
0.0646267
0.0646278
0.0646184
0.0646166
0.0646027
0.0645961
0.0645791
0.0645663
0.0645459
0.0645272
0.0645031
0.064477
0.0644511
0.0644149
0.0643899
0.0643396
0.0643203
0.0642514
0.0642409
0.0641533
0.0641522
0.0640458
0.0654913
0.0654943
0.0654913
0.0654934
0.0654851
0.0654847
0.0654724
0.0654677
0.0654528
0.0654423
0.0654242
0.0654084
0.0653866
0.0653635
0.0653402
0.0653069
0.065284
0.0652372
0.0652184
0.0651525
0.0651428
0.0650551
0.0650542
0.0649469
0.066366
0.0663696
0.0663666
0.0663697
0.0663617
0.0663628
0.0663512
0.0663483
0.0663346
0.0663262
0.06631
0.0662966
0.066277
0.0662565
0.0662366
0.066205
0.066187
0.0661407
0.0661271
0.0660621
0.0660566
0.0659699
0.0659702
0.0658623
0.0672594
0.0672637
0.0672598
0.0672644
0.067255
0.067258
0.0672448
0.0672444
0.067229
0.0672232
0.0672066
0.0671952
0.0671765
0.0671576
0.0671416
0.0671076
0.0670989
0.0670475
0.0670444
0.0669764
0.0669783
0.0668938
0.0668978
0.0667956
0.0681808
0.0681846
0.0681816
0.0681842
0.0681759
0.0681761
0.0681642
0.0681606
0.0681464
0.0681378
0.0681217
0.0681091
0.0680897
0.0680726
0.068054
0.068023
0.0680138
0.0679645
0.0679624
0.0678973
0.0679022
0.0678196
0.0678284
0.0677339
0.0691384
0.0691419
0.0691384
0.06914
0.0691302
0.0691288
0.0691146
0.0691087
0.069092
0.0690807
0.0690617
0.0690464
0.0690243
0.0690054
0.0689819
0.0689543
0.0689373
0.0688913
0.0688886
0.0688217
0.068829
0.0687446
0.0687568
0.0686627
0.0701389
0.0701421
0.0701377
0.070138
0.0701261
0.0701224
0.0701051
0.0700959
0.0700751
0.0700596
0.070036
0.0700158
0.0699886
0.0699648
0.0699356
0.0699045
0.0698809
0.0698345
0.0698251
0.0697559
0.0697631
0.0696736
0.0696883
0.06959
0.0711854
0.0711889
0.071183
0.0711823
0.0711679
0.0711619
0.0711409
0.0711282
0.0711024
0.0710823
0.0710524
0.0710264
0.0709919
0.0709613
0.0709237
0.0708857
0.0708539
0.0708003
0.0707841
0.0707061
0.0707111
0.0706129
0.0706281
0.0705216
0.0722782
0.0722823
0.0722744
0.0722734
0.0722564
0.0722487
0.0722237
0.0722086
0.0721768
0.0721539
0.0721156
0.0720859
0.0720415
0.0720043
0.0719573
0.0719095
0.0718693
0.0718004
0.0717775
0.0716856
0.0716831
0.0715714
0.0715844
0.0714641
0.0734138
0.0734172
0.07341
0.0734067
0.0733896
0.0733787
0.073353
0.0733332
0.0733004
0.0732704
0.0732309
0.0731922
0.0731445
0.0730984
0.0730427
0.0729888
0.0729309
0.0728572
0.0728169
0.0727122
0.072695
0.0725648
0.0725694
0.0724271
0.0745856
0.0745888
0.0745816
0.0745777
0.0745598
0.074548
0.0745208
0.0744994
0.0744646
0.0744323
0.0743897
0.0743476
0.0742957
0.0742447
0.0741834
0.0741226
0.0740535
0.0739794
0.0739107
0.0738085
0.0737648
0.0736169
0.0736051
0.0734296
0.0757857
0.0757888
0.0757817
0.0757777
0.0757596
0.0757475
0.0757199
0.075698
0.0756625
0.0756293
0.0755857
0.0755422
0.0754888
0.0754357
0.0753718
0.075308
0.0752347
0.0751564
0.0750779
0.0749772
0.0749038
0.0747591
0.0747201
0.074507
0.0770053
0.0770085
0.0770016
0.0769979
0.07698
0.0769684
0.0769411
0.0769196
0.0768845
0.0768517
0.0768086
0.0767656
0.0767126
0.0766599
0.0765965
0.0765329
0.0764601
0.0763821
0.0763023
0.0762038
0.0761244
0.0759877
0.0759314
0.0757063
0.0782358
0.0782392
0.0782326
0.0782296
0.0782122
0.0782014
0.0781749
0.0781546
0.0781206
0.0780893
0.0780476
0.0780063
0.0779552
0.0779045
0.0778433
0.0777824
0.0777119
0.0776371
0.0775627
0.0774647
0.0773975
0.0772595
0.0772195
0.0770217
0.0794693
0.079473
0.0794668
0.0794645
0.0794478
0.0794382
0.0794128
0.0793942
0.0793617
0.0793324
0.0792927
0.079254
0.0792053
0.0791578
0.0790997
0.0790424
0.0789759
0.0789057
0.0788356
0.0787437
0.0786821
0.0785517
0.0785147
0.0783313
0.0806986
0.0807026
0.0806968
0.0806953
0.0806795
0.0806713
0.0806472
0.0806304
0.0805997
0.0805729
0.0805355
0.0804997
0.0804541
0.08041
0.0803555
0.0803024
0.08024
0.0801752
0.0801101
0.0800241
0.0799674
0.0798469
0.0798122
0.0796425
0.0819175
0.0819221
0.0819166
0.0819162
0.081901
0.0818945
0.0818716
0.081857
0.0818281
0.0818041
0.0817689
0.0817367
0.0816936
0.0816539
0.0816027
0.0815543
0.0814964
0.0814372
0.0813764
0.081297
0.0812456
0.0811343
0.0811021
0.0809461
0.0831214
0.0831266
0.0831207
0.083122
0.083107
0.0831028
0.0830804
0.0830689
0.0830408
0.0830207
0.0829866
0.0829594
0.0829177
0.0828837
0.0828346
0.0827921
0.0827378
0.0826843
0.0826285
0.082556
0.0825082
0.0824071
0.0823773
0.0822347
0.0843058
0.0843112
0.0843055
0.0843081
0.0842935
0.0842914
0.0842696
0.0842612
0.0842339
0.0842179
0.0841846
0.0841627
0.0841218
0.0840944
0.0840461
0.0840114
0.0839587
0.0839121
0.0838603
0.0837953
0.0837508
0.0836597
0.0836323
0.083503
0.0854671
0.0854726
0.0854679
0.0854704
0.0854579
0.0854556
0.0854372
0.0854286
0.0854055
0.0853897
0.0853614
0.0853403
0.0853048
0.0852791
0.0852362
0.0852048
0.0851569
0.0851161
0.085068
0.0850098
0.0849691
0.0848881
0.0848628
0.0847463
0.0866029
0.0866082
0.0866041
0.086607
0.0865958
0.0865944
0.0865779
0.0865705
0.0865503
0.0865358
0.0865115
0.0864915
0.0864611
0.086437
0.0863998
0.0863708
0.0863283
0.0862925
0.0862473
0.0861979
0.0861607
0.0860885
0.086065
0.0859612
0.0877103
0.0877156
0.087712
0.0877154
0.0877053
0.0877049
0.08769
0.0876842
0.0876662
0.0876535
0.0876322
0.0876145
0.0875879
0.0875663
0.0875336
0.0875078
0.0874701
0.0874385
0.0873974
0.0873565
0.087321
0.087258
0.0872364
0.0871447
0.0887875
0.0887929
0.0887898
0.0887938
0.0887845
0.0887852
0.0887717
0.0887674
0.0887515
0.0887407
0.0887221
0.0887067
0.0886834
0.0886647
0.0886359
0.0886136
0.0885802
0.0885532
0.0885166
0.0884817
0.0884477
0.0883952
0.088375
0.0882951
0.0898333
0.0898387
0.089836
0.0898404
0.089832
0.0898338
0.0898216
0.0898187
0.0898047
0.0897958
0.0897797
0.0897666
0.0897465
0.0897304
0.0897054
0.0896863
0.0896571
0.0896342
0.0896017
0.089573
0.0895409
0.0894971
0.0894795
0.0894102
0.0908466
0.0908518
0.0908494
0.0908545
0.0908466
0.0908495
0.0908384
0.0908371
0.0908247
0.0908178
0.0908039
0.090793
0.0907757
0.0907624
0.0907406
0.0907249
0.0906994
0.0906804
0.0906522
0.0906278
0.0906
0.0905639
0.0905479
0.090489
0.0918262
0.0918315
0.0918294
0.0918349
0.0918278
0.0918316
0.0918216
0.0918216
0.0918109
0.0918056
0.0917939
0.0917851
0.0917705
0.0917596
0.0917412
0.0917283
0.0917065
0.0916911
0.0916665
0.0916472
0.0916225
0.0915942
0.0915792
0.0915301
0.092772
0.0927773
0.0927754
0.0927812
0.092775
0.0927792
0.0927707
0.0927717
0.0927625
0.0927589
0.0927491
0.0927424
0.0927302
0.0927218
0.0927061
0.0926963
0.0926777
0.0926658
0.0926452
0.0926296
0.0926088
0.092587
0.0925731
0.0925329
0.0936837
0.0936888
0.0936869
0.0936939
0.0936867
0.0936938
0.0936842
0.0936879
0.0936791
0.0936775
0.0936693
0.0936646
0.0936546
0.0936484
0.0936356
0.0936283
0.0936129
0.0936043
0.0935866
0.0935757
0.0935582
0.093541
0.0935294
0.0934975
0.0945608
0.0945658
0.0945652
0.0945698
0.0945675
0.09457
0.0945664
0.0945671
0.0945623
0.0945606
0.0945549
0.0945515
0.0945437
0.0945396
0.0945292
0.0945246
0.0945119
0.0945063
0.0944922
0.0944843
0.0944702
0.0944581
0.0944477
0.094424
0.0954042
0.0954093
0.0954069
0.0954162
0.0954075
0.0954189
0.0954079
0.0954164
0.0954079
0.0954105
0.0954047
0.0954037
0.0953975
0.0953955
0.0953875
0.095385
0.095375
0.0953721
0.0953605
0.0953566
0.095345
0.0953369
0.0953292
0.0953125
0.0962131
0.0962175
0.0962186
0.0962212
0.0962234
0.0962229
0.0962252
0.0962238
0.0962244
0.096223
0.0962215
0.0962206
0.0962168
0.0962163
0.0962104
0.0962101
0.0962026
0.0962022
0.0961935
0.0961922
0.0961836
0.0961794
0.0961736
0.0961635
0.0969891
0.0969941
0.0969917
0.0970019
0.0969933
0.0970068
0.0969958
0.0970077
0.0969996
0.0970059
0.0970018
0.0970043
0.0970011
0.0970027
0.0969987
0.0970004
0.0969949
0.096997
0.0969905
0.0969926
0.0969861
0.0969857
0.0969822
0.0969774
0.0977318
0.0977356
0.0977377
0.0977395
0.0977436
0.0977427
0.097748
0.0977461
0.0977505
0.0977497
0.0977516
0.0977528
0.0977524
0.0977549
0.0977528
0.0977562
0.097753
0.097757
0.0977529
0.0977574
0.0977534
0.0977566
0.0977545
0.097755
0.0984425
0.098447
0.0984456
0.0984545
0.0984489
0.0984607
0.0984531
0.0984647
0.0984591
0.0984671
0.098465
0.0984701
0.0984696
0.0984741
0.0984734
0.0984786
0.0984768
0.0984831
0.0984809
0.0984878
0.0984855
0.098492
0.0984915
0.0984967
0.0991214
0.0991249
0.0991271
0.0991297
0.0991332
0.0991346
0.0991394
0.0991398
0.099145
0.0991463
0.09915
0.0991534
0.0991553
0.0991605
0.0991614
0.0991679
0.0991681
0.0991758
0.0991753
0.0991847
0.0991838
0.0991935
0.0991938
0.0992033
0.0997699
0.0997738
0.0997738
0.0997804
0.0997788
0.0997869
0.0997848
0.0997932
0.0997923
0.0997995
0.0998006
0.0998069
0.0998089
0.0998155
0.0998175
0.0998255
0.0998267
0.0998363
0.0998374
0.0998483
0.0998491
0.0998614
0.0998629
0.0998758
0.100388
0.100392
0.100394
0.100397
0.1004
0.100403
0.100407
0.100411
0.100415
0.100419
0.100423
0.100429
0.100432
0.10044
0.100443
0.100452
0.100455
0.100466
0.100468
0.100481
0.100482
0.100497
0.1005
0.100515
0.100978
0.100981
0.100983
0.100988
0.100988
0.100994
0.100996
0.101002
0.101005
0.101011
0.101015
0.101022
0.101026
0.101034
0.101038
0.101049
0.101052
0.101064
0.101068
0.101082
0.101085
0.101102
0.101105
0.101124
0.10154
0.101543
0.101545
0.101548
0.101552
0.101555
0.101559
0.101564
0.101568
0.101575
0.101579
0.101587
0.101591
0.101601
0.101605
0.101616
0.101621
0.101634
0.101638
0.101655
0.101658
0.101677
0.10168
0.101702
0.102075
0.102078
0.102079
0.102084
0.102085
0.102092
0.102093
0.1021
0.102104
0.102111
0.102116
0.102124
0.102129
0.102139
0.102145
0.102156
0.102162
0.102176
0.102181
0.102198
0.102203
0.102223
0.102227
0.102251
0.102584
0.102586
0.102589
0.10259
0.102597
0.102598
0.102605
0.102608
0.102614
0.102621
0.102626
0.102635
0.102641
0.102651
0.102657
0.10267
0.102676
0.102691
0.102697
0.102715
0.10272
0.102742
0.102746
0.102772
0.103068
0.103071
0.103071
0.103077
0.103077
0.103086
0.103086
0.103095
0.103098
0.103106
0.103111
0.103121
0.103127
0.103138
0.103145
0.103158
0.103164
0.10318
0.103187
0.103205
0.103211
0.103234
0.103239
0.103266
0.103528
0.10353
0.103533
0.103534
0.103541
0.103541
0.10355
0.103552
0.103561
0.103566
0.103574
0.103582
0.103589
0.1036
0.103607
0.103621
0.103628
0.103645
0.103652
0.103672
0.103678
0.103702
0.103706
0.103736
0.103965
0.103968
0.103969
0.103974
0.103974
0.103983
0.103983
0.103994
0.103995
0.104006
0.10401
0.104021
0.104027
0.104039
0.104047
0.104061
0.104069
0.104085
0.104093
0.104113
0.10412
0.104145
0.10415
0.10418
0.104381
0.104382
0.104386
0.104387
0.104393
0.104394
0.104403
0.104405
0.104414
0.104419
0.104428
0.104436
0.104444
0.104456
0.104464
0.104478
0.104486
0.104504
0.104512
0.104533
0.10454
0.104565
0.104571
0.104602
0.104775
0.104777
0.104778
0.104783
0.104784
0.104792
0.104793
0.104803
0.104806
0.104816
0.104821
0.104832
0.104839
0.104851
0.10486
0.104874
0.104883
0.1049
0.104909
0.10493
0.104938
0.104964
0.10497
0.105001
0.10515
0.105151
0.105154
0.105156
0.105161
0.105164
0.10517
0.105175
0.105182
0.105189
0.105197
0.105206
0.105214
0.105227
0.105235
0.10525
0.105259
0.105276
0.105285
0.105307
0.105315
0.105341
0.105347
0.10538
0.105505
0.105507
0.105508
0.105513
0.105514
0.105521
0.105524
0.105531
0.105536
0.105545
0.105552
0.105562
0.10557
0.105582
0.105591
0.105606
0.105615
0.105633
0.105642
0.105664
0.105672
0.105698
0.105705
0.105738
0.105842
0.105843
0.105846
0.105847
0.105853
0.105855
0.105862
0.105867
0.105874
0.105882
0.105889
0.105899
0.105907
0.10592
0.105928
0.105943
0.105952
0.105971
0.105979
0.106002