/*--------------------------------*- C++ -*----------------------------------*\
  =========                 |
  \\      /  F ield         | OpenFOAM: The Open Source CFD Toolbox
   \\    /   O peration     | Website:  https://openfoam.org
    \\  /    A nd           | Version:  10
     \\/     M anipulation  |
\*---------------------------------------------------------------------------*/
FoamFile
{
    format      ascii;
    class       volScalarField;
    location    "0.18";
    object      T;
}
// * * * * * * * * * * * * * * * * * * * * * * * * * * * * * * * * * * * * * //

dimensions      [0 0 0 1 0 0 0];

internalField   nonuniform List<scalar> 
4176
(
180.354
180.359
180.379
180.39
180.433
180.453
180.513
180.546
180.621
180.668
180.757
180.817
180.92
180.992
181.109
181.199
181.314
181.437
181.542
181.709
181.784
182.019
182.032
182.333
180.363
180.368
180.389
180.401
180.443
180.465
180.525
180.56
180.635
180.685
180.775
180.837
180.943
181.016
181.136
181.228
181.347
181.472
181.58
181.75
181.825
182.07
182.087
182.417
180.391
180.396
180.416
180.428
180.469
180.491
180.549
180.584
180.656
180.706
180.792
180.854
180.957
181.029
181.147
181.236
181.354
181.474
181.58
181.746
181.817
182.057
182.074
182.415
180.443
180.447
180.467
180.479
180.52
180.542
180.6
180.635
180.707
180.757
180.844
180.905
181.009
181.079
181.199
181.287
181.406
181.529
181.629
181.801
181.869
182.105
182.12
182.445
180.518
180.522
180.542
180.554
180.594
180.615
180.673
180.707
180.779
180.827
180.914
180.974
181.077
181.146
181.265
181.351
181.472
181.592
181.69
181.863
181.931
182.163
182.179
182.494
180.617
180.621
180.641
180.652
180.692
180.714
180.771
180.805
180.875
180.924
181.009
181.069
181.171
181.24
181.358
181.443
181.565
181.68
181.784
181.951
182.021
182.251
182.27
182.584
180.74
180.744
180.763
180.775
180.814
180.835
180.892
180.925
180.995
181.043
181.127
181.187
181.287
181.356
181.472
181.556
181.678
181.788
181.896
182.057
182.13
182.355
182.377
182.69
180.886
180.891
180.91
180.921
180.96
180.981
181.037
181.07
181.139
181.187
181.269
181.328
181.428
181.495
181.61
181.692
181.815
181.921
182.031
182.187
182.262
182.483
182.506
182.815
181.057
181.061
181.08
181.091
181.13
181.15
181.205
181.238
181.306
181.353
181.435
181.493
181.591
181.657
181.771
181.852
181.973
182.076
182.188
182.338
182.416
182.632
182.657
182.961
181.251
181.256
181.274
181.285
181.324
181.343
181.398
181.43
181.497
181.543
181.624
181.681
181.778
181.843
181.956
182.034
182.155
182.254
182.367
182.512
182.591
182.804
182.829
183.128
181.469
181.474
181.492
181.503
181.541
181.56
181.614
181.645
181.711
181.757
181.836
181.892
181.988
182.051
182.163
182.24
182.359
182.455
182.569
182.709
182.788
182.997
183.022
183.316
181.711
181.715
181.734
181.744
181.782
181.8
181.854
181.884
181.949
181.994
182.072
182.127
182.221
182.283
182.393
182.468
182.586
182.679
182.793
182.927
183.01
183.209
183.238
183.526
181.977
181.981
181.999
182.009
182.046
182.064
182.117
182.147
182.211
182.254
182.331
182.385
182.477
182.538
182.646
182.719
182.835
182.926
183.039
183.169
183.251
183.446
183.474
183.757
182.266
182.27
182.288
182.298
182.334
182.352
182.403
182.433
182.496
182.538
182.613
182.666
182.757
182.816
182.922
182.993
183.108
183.195
183.308
183.433
183.516
183.705
183.733
184.009
182.579
182.583
182.601
182.61
182.646
182.663
182.714
182.742
182.804
182.845
182.919
182.97
183.059
183.117
183.221
183.29
183.402
183.487
183.599
183.719
183.803
183.985
184.013
184.284
182.916
182.92
182.937
182.946
182.981
182.998
183.047
183.075
183.135
183.176
183.248
183.297
183.385
183.441
183.542
183.609
183.72
183.802
183.912
184.027
184.11
184.288
184.315
184.579
183.276
183.28
183.297
183.305
183.34
183.356
183.405
183.431
183.49
183.529
183.6
183.648
183.733
183.787
183.887
183.952
184.06
184.139
184.247
184.358
184.441
184.611
184.639
184.897
183.66
183.664
183.681
183.689
183.723
183.738
183.786
183.811
183.869
183.906
183.975
184.021
184.105
184.157
184.254
184.316
184.423
184.498
184.605
184.71
184.793
184.958
184.985
185.236
184.068
184.072
184.089
184.096
184.129
184.143
184.19
184.214
184.271
184.307
184.374
184.418
184.499
184.549
184.644
184.704
184.808
184.88
184.985
185.085
185.168
185.325
185.353
185.597
184.5
184.504
184.52
184.527
184.559
184.572
184.618
184.641
184.696
184.73
184.796
184.838
184.917
184.965
185.057
185.114
185.215
185.284
185.387
185.483
185.564
185.715
185.743
185.98
184.955
184.959
184.975
184.981
185.013
185.025
185.07
185.091
185.144
185.177
185.241
185.281
185.358
185.403
185.493
185.547
185.645
185.711
185.811
185.902
185.983
186.126
186.154
186.384
185.434
185.438
185.453
185.459
185.49
185.501
185.545
185.565
185.616
185.647
185.709
185.747
185.821
185.864
185.951
186.002
186.097
186.16
186.257
186.343
186.423
186.56
186.587
186.809
185.937
185.94
185.955
185.96
185.991
186.001
186.043
186.061
186.111
186.141
186.2
186.236
186.308
186.348
186.432
186.48
186.572
186.631
186.725
186.807
186.885
187.016
187.042
187.257
186.463
186.466
186.481
186.485
186.515
186.524
186.565
186.582
186.63
186.657
186.714
186.748
186.817
186.855
186.936
186.981
187.07
187.125
187.216
187.293
187.369
187.493
187.519
187.725
187.012
187.016
187.03
187.034
187.062
187.07
187.109
187.125
187.171
187.197
187.251
187.283
187.349
187.384
187.462
187.504
187.59
187.641
187.729
187.801
187.875
187.992
188.018
188.215
187.585
187.588
187.602
187.605
187.633
187.639
187.678
187.691
187.736
187.759
187.812
187.84
187.904
187.937
188.011
188.05
188.133
188.18
188.265
188.332
188.404
188.514
188.539
188.726
188.181
188.184
188.198
188.2
188.227
188.232
188.269
188.281
188.324
188.345
188.395
188.421
188.482
188.511
188.583
188.618
188.698
188.741
188.822
188.885
188.954
189.057
189.081
189.26
188.8
188.803
188.816
188.818
188.844
188.848
188.883
188.893
188.934
188.953
189.001
189.024
189.083
189.109
189.177
189.209
189.285
189.325
189.402
189.46
189.526
189.623
189.646
189.815
189.442
189.445
189.457
189.458
189.483
189.486
189.52
189.528
189.567
189.584
189.629
189.65
189.706
189.729
189.794
189.822
189.895
189.931
190.004
190.058
190.121
190.209
190.231
190.393
190.106
190.109
190.121
190.121
190.145
190.147
190.179
190.186
190.223
190.238
190.281
190.299
190.352
190.372
190.433
190.458
190.527
190.559
190.629
190.677
190.737
190.819
190.837
190.994
190.793
190.796
190.807
190.807
190.83
190.83
190.861
190.867
190.902
190.914
190.955
190.97
191.02
191.037
191.095
191.116
191.181
191.209
191.275
191.319
191.375
191.45
191.469
191.614
191.502
191.505
191.516
191.514
191.537
191.536
191.566
191.569
191.602
191.613
191.651
191.664
191.71
191.724
191.779
191.797
191.858
191.882
191.944
191.983
192.035
192.104
192.121
192.256
192.234
192.236
192.246
192.244
192.266
192.264
192.292
192.294
192.325
192.333
192.369
192.379
192.423
192.434
192.486
192.499
192.557
192.576
192.635
192.668
192.718
192.779
192.794
192.921
192.987
192.989
192.999
192.996
193.017
193.013
193.04
193.04
193.07
193.076
193.109
193.117
193.158
193.166
193.214
193.224
193.279
193.293
193.348
193.376
193.422
193.478
193.491
193.608
193.762
193.763
193.773
193.77
193.79
193.785
193.811
193.809
193.836
193.84
193.871
193.876
193.915
193.919
193.965
193.971
194.022
194.032
194.083
194.106
194.148
194.197
194.209
194.316
194.558
194.56
194.569
194.565
194.584
194.578
194.602
194.599
194.625
194.626
194.655
194.657
194.693
194.695
194.737
194.739
194.787
194.793
194.841
194.859
194.896
194.94
194.949
195.047
195.375
195.377
195.386
195.381
195.399
195.392
195.415
195.41
195.434
195.434
195.46
195.46
195.493
195.491
195.531
195.529
195.574
195.575
195.62
195.633
195.667
195.704
195.71
195.799
196.214
196.215
196.224
196.218
196.236
196.228
196.249
196.243
196.265
196.263
196.287
196.284
196.314
196.31
196.346
196.341
196.382
196.379
196.42
196.429
196.459
196.49
196.493
196.572
197.073
197.074
197.083
197.077
197.093
197.084
197.104
197.096
197.117
197.112
197.134
197.129
197.157
197.149
197.183
197.173
197.212
197.205
197.242
197.246
197.272
197.298
197.298
197.368
197.953
197.954
197.962
197.955
197.971
197.961
197.98
197.971
197.99
197.983
198.003
197.995
198.02
198.01
198.041
198.027
198.063
198.051
198.085
198.084
198.107
198.127
198.123
198.185
198.853
198.854
198.862
198.855
198.87
198.858
198.877
198.865
198.883
198.874
198.892
198.882
198.905
198.891
198.919
198.902
198.934
198.919
198.949
198.943
198.962
198.976
198.97
199.024
199.774
199.775
199.782
199.774
199.789
199.776
199.793
199.781
199.796
199.786
199.802
199.79
199.81
199.793
199.819
199.798
199.827
199.807
199.834
199.823
199.839
199.847
199.838
199.884
200.714
200.715
200.722
200.714
200.727
200.714
200.73
200.716
200.73
200.718
200.732
200.717
200.735
200.716
200.738
200.714
200.741
200.716
200.74
200.723
200.736
200.738
200.726
200.765
201.675
201.676
201.683
201.674
201.686
201.672
201.687
201.671
201.684
201.67
201.681
201.664
201.68
201.658
201.678
201.65
201.674
201.645
201.667
201.645
201.655
201.649
201.637
201.666
202.655
202.656
202.662
202.653
202.665
202.65
202.663
202.646
202.657
202.641
202.651
202.632
202.645
202.62
202.637
202.606
202.628
202.594
202.613
202.585
202.594
202.582
202.567
202.588
203.655
203.655
203.661
203.651
203.662
203.646
203.658
203.64
203.649
203.632
203.64
203.618
203.629
203.601
203.616
203.581
203.601
203.563
203.579
203.546
203.554
203.533
203.518
203.531
204.673
204.674
204.679
204.669
204.679
204.662
204.673
204.654
204.661
204.642
204.648
204.624
204.632
204.602
204.615
204.576
204.593
204.551
204.565
204.526
204.532
204.505
204.489
204.493
205.71
205.711
205.716
205.705
205.715
205.697
205.706
205.686
205.692
205.671
205.674
205.649
205.655
205.622
205.632
205.59
205.604
205.558
205.57
205.524
205.531
205.497
205.479
205.474
206.766
206.766
206.771
206.759
206.768
206.749
206.758
206.736
206.74
206.718
206.719
206.691
206.695
206.66
206.668
206.622
206.634
206.583
206.595
206.542
206.548
206.506
206.488
206.475
207.839
207.839
207.844
207.832
207.84
207.82
207.827
207.804
207.807
207.783
207.783
207.752
207.754
207.716
207.722
207.673
207.683
207.626
207.638
207.578
207.584
207.532
207.518
207.494
208.929
208.929
208.934
208.921
208.929
208.908
208.914
208.889
208.891
208.865
208.863
208.831
208.831
208.789
208.793
208.741
208.749
208.687
208.698
208.634
208.637
208.579
208.564
208.533
210.036
210.036
210.041
210.027
210.034
210.013
210.018
209.992
209.992
209.964
209.961
209.927
209.925
209.88
209.883
209.827
209.833
209.767
209.777
209.706
209.71
209.644
209.629
209.59
211.16
211.159
211.163
211.15
211.156
211.133
211.138
211.111
211.11
211.08
211.075
211.039
211.035
210.988
210.989
210.929
210.935
210.865
210.872
210.794
210.801
210.726
210.711
210.664
212.298
212.298
212.302
212.288
212.293
212.27
212.273
212.245
212.243
212.212
212.206
212.167
212.162
212.112
212.112
212.048
212.053
211.977
211.986
211.901
211.906
211.827
211.81
211.757
213.452
213.451
213.455
213.44
213.445
213.421
213.424
213.394
213.391
213.359
213.352
213.31
213.305
213.251
213.251
213.181
213.189
213.105
213.116
213.025
213.028
212.944
212.927
212.866
214.619
214.619
214.622
214.607
214.612
214.587
214.589
214.558
214.554
214.52
214.512
214.468
214.463
214.406
214.405
214.33
214.339
214.252
214.259
214.165
214.168
214.079
214.059
213.993
215.8
215.8
215.802
215.787
215.791
215.766
215.767
215.736
215.731
215.695
215.688
215.64
215.636
215.574
215.574
215.497
215.502
215.413
215.419
215.322
215.321
215.228
215.208
215.136
216.993
216.993
216.995
216.98
216.984
216.959
216.959
216.926
216.921
216.883
216.876
216.826
216.821
216.756
216.757
216.676
216.681
216.589
216.593
216.493
216.492
216.394
216.373
216.294
218.198
218.198
218.2
218.185
218.188
218.163
218.162
218.129
218.124
218.084
218.077
218.025
218.02
217.953
217.952
217.87
217.873
217.78
217.78
217.679
217.675
217.574
217.552
217.468
219.415
219.415
219.417
219.402
219.404
219.379
219.377
219.344
219.338
219.298
219.289
219.237
219.23
219.163
219.16
219.076
219.078
218.982
218.983
218.878
218.873
218.768
218.746
218.657
220.642
220.641
220.643
220.628
220.63
220.605
220.602
220.57
220.562
220.523
220.512
220.46
220.452
220.383
220.38
220.295
220.296
220.199
220.196
220.091
220.084
219.976
219.953
219.859
221.878
221.878
221.88
221.865
221.867
221.841
221.838
221.807
221.796
221.759
221.746
221.694
221.685
221.616
221.611
221.526
221.524
221.425
221.423
221.315
221.308
221.197
221.173
221.075
223.125
223.124
223.127
223.111
223.113
223.087
223.084
223.053
223.041
223.004
222.989
222.939
222.927
222.859
222.853
222.767
222.765
222.665
222.66
222.551
222.542
222.429
222.405
222.302
224.38
224.38
224.382
224.366
224.368
224.342
224.339
224.308
224.295
224.259
224.242
224.194
224.179
224.113
224.103
224.019
224.015
223.913
223.909
223.798
223.788
223.673
223.648
223.542
225.643
225.643
225.646
225.63
225.632
225.606
225.603
225.571
225.558
225.523
225.504
225.457
225.441
225.374
225.363
225.28
225.274
225.172
225.167
225.054
225.043
224.926
224.902
224.792
226.916
226.916
226.918
226.902
226.904
226.878
226.875
226.843
226.83
226.795
226.775
226.728
226.711
226.645
226.632
226.549
226.542
226.439
226.433
226.318
226.308
226.189
226.164
226.051
228.196
228.196
228.199
228.183
228.185
228.159
228.155
228.123
228.109
228.075
228.053
228.007
227.988
227.922
227.909
227.825
227.817
227.715
227.708
227.591
227.58
227.46
227.435
227.319
229.484
229.484
229.487
229.471
229.473
229.446
229.442
229.411
229.395
229.361
229.339
229.293
229.273
229.207
229.192
229.108
229.098
228.997
228.989
228.871
228.86
228.738
228.713
228.595
230.78
230.78
230.782
230.766
230.768
230.741
230.736
230.704
230.689
230.654
230.63
230.585
230.562
230.498
230.483
230.396
230.386
230.285
230.275
230.158
230.145
230.022
229.998
229.878
232.082
232.082
232.084
232.068
232.069
232.042
232.037
232.004
231.988
231.953
231.927
231.882
231.858
231.794
231.778
231.69
231.679
231.578
231.567
231.45
231.437
231.313
231.288
231.167
233.389
233.39
233.391
233.375
233.375
233.348
233.342
233.309
233.291
233.256
233.229
233.185
233.157
233.095
233.075
232.99
232.978
232.875
232.863
232.749
232.734
232.609
232.584
232.462
234.7
234.7
234.702
234.685
234.685
234.657
234.651
234.617
234.599
234.563
234.534
234.491
234.461
234.4
234.377
234.294
234.281
234.175
234.164
234.051
234.035
233.91
233.885
233.762
236.011
236.011
236.013
235.996
235.996
235.967
235.961
235.926
235.908
235.872
235.842
235.799
235.767
235.708
235.682
235.601
235.586
235.482
235.468
235.358
235.34
235.216
235.192
235.068
237.32
237.32
237.322
237.304
237.305
237.276
237.27
237.236
237.217
237.181
237.152
237.109
237.076
237.019
236.99
236.913
236.892
236.795
236.779
236.667
236.65
236.527
236.503
236.38
238.622
238.622
238.625
238.608
238.609
238.581
238.576
238.542
238.525
238.49
238.461
238.42
238.387
238.331
238.301
238.227
238.204
238.11
238.094
237.979
237.965
237.843
237.82
237.696
239.917
239.917
239.921
239.904
239.907
239.88
239.876
239.845
239.829
239.796
239.769
239.73
239.698
239.646
239.615
239.545
239.52
239.429
239.413
239.3
239.285
239.165
239.143
239.019
241.203
241.204
241.208
241.193
241.197
241.172
241.171
241.142
241.129
241.099
241.074
241.038
241.009
240.96
240.932
240.865
240.84
240.754
240.734
240.629
240.612
240.492
240.471
240.348
242.484
242.485
242.491
242.476
242.483
242.46
242.461
242.435
242.424
242.398
242.377
242.345
242.319
242.274
242.249
242.187
242.164
242.081
242.065
241.96
241.946
241.826
241.806
241.683
243.765
243.767
243.773
243.76
243.768
243.747
243.75
243.726
243.719
243.696
243.678
243.65
243.627
243.587
243.566
243.508
243.489
243.411
243.399
243.297
243.286
243.168
243.15
243.025
245.056
245.059
245.064
245.053
245.06
245.041
245.045
245.024
245.017
244.997
244.981
244.957
244.937
244.9
244.884
244.827
244.817
244.736
244.735
244.634
244.63
244.514
244.5
244.378
246.367
246.37
246.375
246.364
246.372
246.352
246.356
246.335
246.328
246.309
246.293
246.27
246.25
246.217
246.202
246.145
246.144
246.06
246.07
245.966
245.972
245.859
245.851
245.738
247.711
247.714
247.719
247.706
247.713
247.691
247.694
247.67
247.663
247.64
247.623
247.598
247.577
247.544
247.525
247.472
247.468
247.39
247.395
247.298
247.307
247.195
247.194
247.086
249.097
249.099
249.104
249.089
249.094
249.07
249.07
249.041
249.03
249.004
248.982
248.952
248.926
248.89
248.864
248.813
248.799
248.725
248.726
248.625
248.637
248.522
248.526
248.417
250.532
250.534
250.537
250.52
250.523
250.495
250.491
250.458
250.441
250.409
250.38
250.344
250.31
250.266
250.232
250.175
250.151
250.071
250.067
249.96
249.97
249.847
249.854
249.737
252.016
252.019
252.02
252.002
252.002
251.971
251.962
251.925
251.901
251.864
251.826
251.784
251.739
251.687
251.64
251.574
251.538
251.446
251.433
251.311
251.317
251.18
251.186
251.056
253.549
253.551
253.552
253.532
253.53
253.496
253.484
253.442
253.414
253.37
253.325
253.275
253.221
253.159
253.101
253.025
252.973
252.868
252.838
252.701
252.693
252.536
252.537
252.383
255.121
255.123
255.124
255.102
255.1
255.063
255.049
255.004
254.973
254.924
254.875
254.818
254.758
254.688
254.619
254.535
254.464
254.355
254.299
254.152
254.12
253.94
253.926
253.737
256.724
256.725
256.726
256.704
256.701
256.663
256.648
256.601
256.569
256.517
256.466
256.406
256.342
256.267
256.193
256.103
256.02
255.91
255.826
255.683
255.616
255.424
255.386
255.151
258.344
258.345
258.347
258.325
258.322
258.284
258.269
258.222
258.189
258.138
258.086
258.026
257.96
257.885
257.809
257.718
257.63
257.519
257.427
257.286
257.194
257.008
256.942
256.672
259.971
259.972
259.974
259.952
259.95
259.913
259.899
259.853
259.822
259.772
259.721
259.662
259.598
259.526
259.45
259.362
259.276
259.167
259.075
258.939
258.847
258.665
258.597
258.329
261.592
261.594
261.596
261.575
261.574
261.538
261.526
261.482
261.452
261.405
261.356
261.301
261.239
261.171
261.099
261.016
260.933
260.831
260.744
260.613
260.531
260.355
260.297
260.054
263.199
263.201
263.204
263.183
263.184
263.149
263.139
263.097
263.07
263.026
262.98
262.929
262.871
262.807
262.739
262.663
262.585
262.49
262.407
262.289
262.213
262.049
261.996
261.773
264.782
264.784
264.788
264.768
264.77
264.737
264.729
264.69
264.665
264.625
264.582
264.536
264.481
264.424
264.36
264.29
264.217
264.131
264.055
263.946
263.876
263.726
263.676
263.473
266.336
266.338
266.342
266.324
266.327
266.297
266.29
266.254
266.231
266.195
266.155
266.114
266.062
266.012
265.952
265.89
265.821
265.745
265.673
265.574
265.511
265.375
265.328
265.144
267.854
267.857
267.861
267.845
267.848
267.821
267.815
267.783
267.761
267.731
267.692
267.658
267.608
267.566
267.508
267.455
267.39
267.322
267.259
267.165
267.109
266.987
266.943
266.777
269.334
269.337
269.342
269.326
269.331
269.305
269.302
269.272
269.253
269.226
269.19
269.162
269.115
269.079
269.024
268.98
268.918
268.861
268.798
268.718
268.667
268.558
268.515
268.369
270.771
270.775
270.78
270.765
270.772
270.746
270.746
270.718
270.703
270.678
270.647
270.62
270.579
270.547
270.498
270.459
270.403
270.352
270.295
270.227
270.177
270.082
270.043
269.913
272.164
272.168
272.174
272.159
272.168
272.143
272.146
272.119
272.107
272.084
272.058
272.034
271.998
271.969
271.926
271.891
271.841
271.799
271.745
271.689
271.639
271.558
271.522
271.408
273.511
273.514
273.522
273.507
273.517
273.494
273.498
273.473
273.465
273.444
273.422
273.4
273.369
273.344
273.306
273.276
273.231
273.194
273.145
273.099
273.053
272.983
272.95
272.851
274.811
274.814
274.822
274.808
274.819
274.797
274.803
274.78
274.774
274.756
274.737
274.718
274.691
274.67
274.636
274.611
274.571
274.541
274.497
274.458
274.415
274.358
274.325
274.242
276.063
276.066
276.075
276.061
276.074
276.052
276.061
276.038
276.035
276.019
276.003
275.988
275.964
275.946
275.917
275.896
275.861
275.836
275.796
275.766
275.724
275.681
275.647
275.579
277.267
277.27
277.278
277.267
277.279
277.26
277.268
277.25
277.247
277.234
277.22
277.208
277.187
277.173
277.147
277.131
277.099
277.08
277.045
277.02
276.983
276.949
276.918
276.862
278.423
278.426
278.436
278.422
278.439
278.416
278.431
278.409
278.412
278.399
278.388
278.378
278.361
278.35
278.328
278.315
278.288
278.274
278.241
278.225
278.189
278.165
278.136
278.092
279.532
279.535
279.544
279.533
279.546
279.53
279.54
279.525
279.526
279.517
279.508
279.501
279.486
279.478
279.459
279.45
279.426
279.416
279.389
279.376
279.345
279.33
279.3
279.268
280.594
280.597
280.606
280.595
280.609
280.594
280.606
280.591
280.595
280.586
280.58
280.575
280.562
280.557
280.542
280.536
280.516
280.51
280.484
280.479
280.45
280.441
280.414
280.391
281.609
281.612
281.622
281.61
281.628
281.609
281.626
281.61
281.616
281.609
281.604
281.602
281.592
281.589
281.576
281.573
281.556
281.554
281.533
281.53
281.506
281.503
281.477
281.464
282.58
282.584
282.59
282.587
282.593
282.589
282.593
282.589
282.589
282.587
282.583
282.582
282.574
282.574
282.564
282.564
282.549
282.551
282.532
282.535
282.512
282.515
282.491
282.486
283.507
283.509
283.52
283.508
283.528
283.508
283.53
283.513
283.524
283.517
283.518
283.518
283.512
283.514
283.505
283.508
283.497
283.501
283.485
283.491
283.472
283.479
283.458
283.459
284.391
284.394
284.399
284.399
284.403
284.404
284.405
284.408
284.406
284.41
284.406
284.41
284.406
284.41
284.403
284.408
284.398
284.406
284.392
284.402
284.385
284.397
284.379
284.385
285.233
285.235
285.244
285.237
285.251
285.24
285.256
285.246
285.257
285.253
285.256
285.258
285.257
285.262
285.258
285.265
285.258
285.267
285.256
285.269
285.254
285.27
285.254
285.265
286.035
286.038
286.043
286.042
286.05
286.048
286.054
286.056
286.057
286.063
286.061
286.068
286.066
286.073
286.07
286.08
286.074
286.086
286.077
286.092
286.08
286.099
286.085
286.101
286.798
286.801
286.806
286.806
286.812
286.813
286.818
286.82
286.824
286.827
286.83
286.836
286.836
286.844
286.843
286.854
286.85
286.864
286.856
286.875
286.864
286.886
286.873
286.894
287.524
287.526
287.532
287.53
287.541
287.536
287.547
287.546
287.552
287.556
287.559
287.566
287.568
287.577
287.577
287.589
287.587
287.603
287.597
287.616
287.608
287.632
287.62
287.646
288.213
288.217
288.219
288.224
288.225
288.232
288.232
288.241
288.241
288.25
288.251
288.261
288.262
288.273
288.274
288.287
288.287
288.304
288.299
288.322
288.314
288.34
288.329
288.358
288.869
288.871
288.875
288.877
288.883
288.884
288.892
288.893
288.901
288.905
288.911
288.918
288.922
288.933
288.936
288.95
288.95
288.968
288.966
288.988
288.983
289.01
289.002
289.032
289.491
289.494
289.497
289.499
289.505
289.507
289.513
289.519
289.522
289.531
289.534
289.544
289.548
289.56
289.563
289.578
289.58
289.599
289.596
289.622
289.617
289.646
289.638
289.671
290.082
290.085
290.085
290.093
290.09
290.102
290.1
290.111
290.113
290.122
290.127
290.137
290.141
290.154
290.158
290.174
290.176
290.196
290.196
290.221
290.218
290.247
290.238
290.278
290.641
290.644
290.649
290.647
290.659
290.654
290.669
290.666
290.678
290.682
290.689
290.699
290.704
290.717
290.722
290.738
290.741
290.763
290.762
290.79
290.786
290.817
290.809
290.851
291.173
291.177
291.176
291.186
291.18
291.197
291.189
291.207
291.203
291.218
291.219
291.233
291.237
291.251
291.256
291.273
291.277
291.299
291.299
291.327
291.325
291.357
291.351
291.39
291.677
291.678
291.684
291.682
291.694
291.688
291.706
291.7
291.716
291.716
291.728
291.736
291.744
291.757
291.763
291.78
291.784
291.807
291.809
291.837
291.834
291.868
291.862
291.904
292.154
292.158
292.157
292.166
292.162
292.177
292.171
292.189
292.185
292.201
292.202
292.217
292.222
292.236
292.242
292.26
292.265
292.288
292.289
292.318
292.316
292.353
292.346
292.387
292.608
292.608
292.614
292.613
292.622
292.62
292.633
292.632
292.645
292.649
292.659
292.668
292.676
292.69
292.696
292.715
292.72
292.743
292.746
292.774
292.773
292.81
292.803
292.847
293.036
293.039
293.039
293.047
293.045
293.056
293.055
293.067
293.069
293.081
293.086
293.099
293.105
293.12
293.126
293.145
293.15
293.174
293.177
293.206
293.205
293.243
293.237
293.279
293.443
293.443
293.449
293.447
293.457
293.456
293.466
293.47
293.478
293.486
293.493
293.505
293.512
293.526
293.534
293.552
293.558
293.581
293.585
293.614
293.613
293.651
293.645
293.69
293.827
293.831
293.829
293.838
293.835
293.847
293.846
293.857
293.861
293.871
293.878
293.89
293.897
293.912
293.919
293.938
293.943
293.967
293.971
294
294
294.037
294.032
294.076
294.192
294.192
294.198
294.195
294.208
294.203
294.217
294.217
294.228
294.234
294.243
294.254
294.261
294.276
294.284
294.302
294.309
294.332
294.336
294.365
294.365
294.403
294.397
294.441
294.537
294.54
294.538
294.549
294.542
294.559
294.552
294.57
294.567
294.583
294.586
294.6
294.606
294.621
294.629
294.647
294.653
294.677
294.681
294.71
294.711
294.747
294.743
294.786
294.864
294.864
294.871
294.866
294.88
294.873
294.891
294.885
294.902
294.904
294.915
294.924
294.933
294.948
294.955
294.973
294.98
295.003
295.007
295.037
295.038
295.074
295.069
295.112
295.174
295.176
295.175
295.184
295.179
295.194
295.188
295.206
295.202
295.219
295.221
295.236
295.241
295.257
295.264
295.282
295.289
295.312
295.317
295.345
295.347
295.382
295.378
295.422
295.467
295.467
295.472
295.471
295.479
295.479
295.489
295.49
295.502
295.507
295.516
295.526
295.534
295.549
295.557
295.575
295.581
295.604
295.608
295.638
295.639
295.673
295.671
295.712
295.744
295.746
295.747
295.751
295.753
295.759
295.763
295.771
295.776
295.785
295.792
295.804
295.811
295.826
295.833
295.851
295.858
295.881
295.885
295.913
295.916
295.949
295.946
295.989
296.007
296.008
296.01
296.013
296.015
296.023
296.024
296.035
296.037
296.049
296.053
296.066
296.073
296.087
296.095
296.113
296.12
296.142
296.147
296.175
296.177
296.209
296.208
296.249
296.256
296.257
296.259
296.26
296.266
296.267
296.277
296.278
296.289
296.294
296.303
296.313
296.321
296.335
296.343
296.361
296.367
296.389
296.394
296.422
296.425
296.457
296.454
296.495
296.491
296.493
296.493
296.498
296.498
296.507
296.507
296.518
296.52
296.532
296.536
296.549
296.555
296.569
296.577
296.595
296.602
296.623
296.629
296.655
296.657
296.691
296.688
296.728
296.714
296.714
296.718
296.718
296.725
296.725
296.734
296.736
296.745
296.752
296.76
296.77
296.778
296.791
296.799
296.816
296.823
296.845
296.85
296.876
296.877
296.912
296.909
296.947
296.925
296.927
296.926
296.933
296.93
296.941
296.939
296.951
296.953
296.964
296.969
296.981
296.987
297.001
297.008
297.026
297.032
297.054
297.059
297.085
297.088
297.119
297.117
297.156
297.125
297.124
297.13
297.126
297.137
297.132
297.146
297.144
297.156
297.161
297.169
297.179
297.186
297.2
297.207
297.224
297.23
297.252
297.256
297.282
297.283
297.317
297.315
297.352
297.313
297.316
297.313
297.323
297.315
297.332
297.324
297.341
297.338
297.353
297.355
297.368
297.374
297.388
297.395
297.411
297.418
297.439
297.443
297.47
297.472
297.502
297.5
297.538
297.492
297.491
297.497
297.492
297.505
297.498
297.514
297.509
297.524
297.526
297.536
297.545
297.552
297.565
297.572
297.589
297.594
297.616
297.62
297.645
297.646
297.679
297.676
297.713
297.661
297.663
297.661
297.669
297.665
297.678
297.673
297.687
297.685
297.699
297.701
297.715
297.719
297.734
297.74
297.757
297.762
297.783
297.787
297.813
297.815
297.845
297.843
297.878
297.821
297.821
297.824
297.824
297.83
297.831
297.838
297.842
297.849
297.856
297.862
297.873
297.878
297.892
297.899
297.915
297.92
297.941
297.944
297.971
297.971
298.002
297.999
298.035
297.972
297.973
297.974
297.977
297.98
297.983
297.988
297.993
297.999
298.006
298.013
298.023
298.029
298.043
298.049
298.065
298.07
298.09
298.094
298.119
298.119
298.152
298.148
298.182
298.115
298.116
298.117
298.12
298.122
298.127
298.129
298.138
298.14
298.15
298.154
298.166
298.171
298.185
298.19
298.207
298.211
298.232
298.234
298.261
298.262
298.289
298.288
298.322
298.25
298.251
298.252
298.255
298.257
298.262
298.265
298.272
298.276
298.284
298.289
298.3
298.305
298.319
298.323
298.341
298.345
298.366
298.368
298.393
298.393
298.424
298.421
298.454
298.378
298.378
298.38
298.382
298.386
298.388
298.394
298.397
298.404
298.411
298.416
298.427
298.432
298.446
298.45
298.467
298.472
298.491
298.493
298.519
298.52
298.547
298.546
298.578
298.499
298.5
298.5
298.504
298.504
298.511
298.511
298.521
298.522
298.533
298.535
298.548
298.551
298.566
298.57
298.586
298.589
298.612
298.612
298.638
298.638
298.666
298.664
298.696
298.613
298.613
298.615
298.617
298.619
298.623
298.627
298.632
298.636
298.645
298.649
298.661
298.664
298.678
298.682
298.7
298.703
298.722
298.725
298.748
298.749
298.778
298.775
298.806
298.72
298.721
298.722
298.724
298.727
298.73
298.734
298.739
298.744
298.752
298.756
298.768
298.771
298.784
298.789
298.806
298.808
298.829
298.83
298.855
298.856
298.881
298.881
298.911
298.821
298.822
298.822
298.827
298.826
298.834
298.833
298.843
298.843
298.854
298.856
298.868
298.871
298.885
298.889
298.906
298.907
298.929
298.931
298.953
298.953
298.981
298.98
299.009
298.917
298.917
298.919
298.921
298.923
298.927
298.93
298.936
298.939
298.948
298.951
298.963
298.966
298.98
298.983
299.001
299.003
299.022
299.024
299.048
299.047
299.075
299.073
299.102
299.006
299.007
299.009
299.01
299.014
299.016
299.021
299.025
299.03
299.037
299.041
299.052
299.055
299.069
299.072
299.089
299.09
299.112
299.112
299.136
299.136
299.16
299.161
299.188
299.092
299.093
299.092
299.097
299.095
299.104
299.102
299.113
299.111
299.123
299.124
299.137
299.139
299.154
299.155
299.172
299.176
299.193
299.196
299.218
299.218
299.245
299.243
299.271
299.171
299.171
299.172
299.175
299.177
299.181
299.183
299.189
299.192
299.201
299.204
299.215
299.218
299.232
299.234
299.25
299.253
299.273
299.272
299.296
299.296
299.321
299.32
299.347
299.246
299.246
299.248
299.248
299.253
299.254
299.26
299.262
299.268
299.274
299.279
299.288
299.292
299.306
299.307
299.324
299.326
299.345
299.346
299.369
299.37
299.395
299.392
299.42
299.315
299.317
299.315
299.322
299.318
299.328
299.324
299.336
299.334
299.346
299.346
299.359
299.361
299.375
299.376
299.392
299.396
299.413
299.416
299.435