/*--------------------------------*- C++ -*----------------------------------*\
  =========                 |
  \\      /  F ield         | OpenFOAM: The Open Source CFD Toolbox
   \\    /   O peration     | Website:  https://openfoam.org
    \\  /    A nd           | Version:  10
     \\/     M anipulation  |
\*---------------------------------------------------------------------------*/
FoamFile
{
    format      ascii;
    class       volVectorField;
    location    "0.18";
    object      U;
}
// * * * * * * * * * * * * * * * * * * * * * * * * * * * * * * * * * * * * * //

dimensions      [0 1 -1 0 0 0 0];

internalField   nonuniform List<vector> 
4176
(
(497.476 -0.0146289 -3.00479e-09)
(497.462 0.0645784 9.59392e-10)
(497.437 0.000431329 -2.64441e-10)
(497.389 0.0915611 4.32608e-11)
(497.333 0.0497813 1.24342e-10)
(497.26 0.0909332 -2.07128e-10)
(497.168 0.124456 -3.58777e-10)
(497.077 0.0620859 -1.0065e-10)
(496.941 0.223671 1.30775e-10)
(496.837 0.00652896 2.05744e-10)
(496.66 0.342604 1.28999e-10)
(496.537 -0.0672725 2.49422e-10)
(496.326 0.46793 2.65525e-10)
(496.179 -0.137473 2.41761e-11)
(495.945 0.565775 -1.4755e-10)
(495.761 -0.13348 -1.30645e-10)
(495.524 0.526379 -2.09782e-10)
(495.274 0.0258716 -1.28445e-10)
(495.061 0.332659 2.01974e-10)
(494.718 0.325302 1.95854e-10)
(494.563 -0.0193768 -4.42162e-11)
(494.085 0.774253 -1.30885e-10)
(494.055 -0.518617 1.483e-11)
(493.432 1.44477 7.40756e-11)
(497.458 0.00443685 -3.00372e-09)
(497.444 0.115412 9.59871e-10)
(497.418 0.0754801 -2.64623e-10)
(497.368 0.204477 4.26309e-11)
(497.312 0.185039 1.24563e-10)
(497.236 0.265652 -2.07113e-10)
(497.143 0.32036 -3.59883e-10)
(497.048 0.297173 -1.00812e-10)
(496.912 0.480625 1.31353e-10)
(496.802 0.299642 2.06003e-10)
(496.624 0.661102 1.2874e-10)
(496.496 0.280527 2.49699e-10)
(496.281 0.84848 2.64217e-10)
(496.13 0.260383 2.42986e-11)
(495.889 1.01045 -1.47443e-10)
(495.701 0.304182 -1.30356e-10)
(495.458 1.04013 -2.11145e-10)
(495.203 0.512885 -1.28568e-10)
(494.984 0.91222 2.01091e-10)
(494.634 0.857506 1.95532e-10)
(494.479 0.626113 -4.42196e-11)
(493.98 1.33328 -1.33272e-10)
(493.944 0.122811 1.55903e-11)
(493.257 1.995 7.36347e-11)
(497.401 0.022787 -3.00706e-09)
(497.387 0.162069 9.5908e-10)
(497.363 0.146659 -2.66571e-10)
(497.313 0.308819 4.37255e-11)
(497.26 0.312642 1.24556e-10)
(497.184 0.42784 -2.08048e-10)
(497.096 0.504477 -3.5776e-10)
(497 0.516401 -9.93693e-11)
(496.87 0.721338 1.3319e-10)
(496.761 0.574294 2.06336e-10)
(496.587 0.958868 1.28002e-10)
(496.462 0.607913 2.4933e-10)
(496.252 1.20425 2.66229e-10)
(496.104 0.635954 2.44988e-11)
(495.866 1.42664 -1.47761e-10)
(495.686 0.715918 -1.29388e-10)
(495.443 1.52063 -2.14164e-10)
(495.197 0.968117 -1.30274e-10)
(494.982 1.45504 2.0191e-10)
(494.641 1.34618 1.95264e-10)
(494.494 1.24531 -4.52183e-11)
(494.005 1.88443 -1.30748e-10)
(493.97 0.83644 1.58133e-11)
(493.259 2.61114 7.45379e-11)
(497.298 0.0415219 -3.00568e-09)
(497.284 0.209576 9.63014e-10)
(497.259 0.219158 -2.67499e-10)
(497.209 0.415139 4.68685e-11)
(497.157 0.442612 1.24022e-10)
(497.08 0.593194 -2.12529e-10)
(496.992 0.69203 -3.58231e-10)
(496.897 0.740024 -1.02289e-10)
(496.766 0.966543 1.26249e-10)
(496.657 0.854595 2.0984e-10)
(496.483 1.26219 1.29126e-10)
(496.359 0.942256 2.48041e-10)
(496.146 1.56691 2.68169e-10)
(496.001 1.02014 2.30808e-11)
(495.76 1.8515 -1.54948e-10)
(495.582 1.13739 -1.30882e-10)
(495.335 2.01506 -2.12046e-10)
(495.085 1.42864 -1.30717e-10)
(494.88 2.00719 2.04357e-10)
(494.529 1.84305 1.94806e-10)
(494.387 1.85587 -4.80605e-11)
(493.904 2.42221 -1.31702e-10)
(493.875 1.52343 1.39665e-11)
(493.194 3.20792 6.49837e-11)
(497.146 0.0598539 -3.00662e-09)
(497.132 0.256099 9.69345e-10)
(497.108 0.29008 -2.63696e-10)
(497.059 0.519326 4.69499e-11)
(497.007 0.569748 1.27523e-10)
(496.931 0.75536 -2.07273e-10)
(496.844 0.875497 -3.60642e-10)
(496.75 0.959563 -1.00542e-10)
(496.62 1.20641 1.31564e-10)
(496.513 1.13007 2.07824e-10)
(496.34 1.55897 1.29482e-10)
(496.219 1.27105 2.51349e-10)
(496.007 1.92216 2.65133e-10)
(495.865 1.39788 2.22424e-11)
(495.623 2.26921 -1.53078e-10)
(495.45 1.55207 -1.3366e-10)
(495.2 2.51038 -2.13411e-10)
(494.955 1.8718 -1.30004e-10)
(494.753 2.55226 1.99044e-10)
(494.4 2.34097 2.00721e-10)
(494.26 2.45032 -4.03794e-11)
(493.783 2.948 -1.28897e-10)
(493.752 2.16607 1.74997e-11)
(493.092 3.76578 7.57175e-11)
(496.946 0.0781779 -3.01766e-09)
(496.932 0.302327 9.66982e-10)
(496.908 0.360849 -2.6218e-10)
(496.859 0.622928 4.23744e-11)
(496.808 0.69658 1.16624e-10)
(496.732 0.91667 -2.12406e-10)
(496.646 1.05853 -3.58728e-10)
(496.552 1.17805 -1.04909e-10)
(496.424 1.4457 1.31964e-10)
(496.317 1.40446 2.13272e-10)
(496.146 1.85487 1.29904e-10)
(496.024 1.59901 2.46012e-10)
(495.815 2.27581 2.62829e-10)
(495.674 1.77552 2.47763e-11)
(495.433 2.68362 -1.56163e-10)
(495.264 1.97101 -1.31309e-10)
(495.008 3.00098 -2.0317e-10)
(494.776 2.31468 -1.27222e-10)
(494.56 3.1018 2.09e-10)
(494.219 2.83778 2.03003e-10)
(494.074 3.04653 -4.46648e-11)
(493.601 3.47598 -1.39771e-10)
(493.565 2.81299 1.42069e-11)
(492.903 4.32269 7.58716e-11)
(496.698 0.0963243 -3.01596e-09)
(496.684 0.347891 9.63666e-10)
(496.66 0.430827 -2.78127e-10)
(496.611 0.725091 4.25357e-11)
(496.561 0.821957 1.31551e-10)
(496.486 1.07576 -2.11656e-10)
(496.401 1.23946 -3.70655e-10)
(496.307 1.3936 -1.00791e-10)
(496.181 1.68224 1.38314e-10)
(496.075 1.67535 2.08541e-10)
(495.906 2.14732 1.27203e-10)
(495.785 1.92318 2.57428e-10)
(495.577 2.62506 2.78993e-10)
(495.438 2.14952 2.6809e-11)
(495.198 3.09194 -1.518e-10)
(495.033 2.3883 -1.2825e-10)
(494.775 3.48057 -2.12915e-10)
(494.554 2.75936 -1.32976e-10)
(494.328 3.64918 2.03629e-10)
(494 3.32265 2.00692e-10)
(493.849 3.64167 -4.61205e-11)
(493.383 4.00355 -1.40007e-10)
(493.343 3.4696 1.64377e-11)
(492.682 4.8849 8.08436e-11)
(496.401 0.114334 -3.02997e-09)
(496.387 0.392989 9.7356e-10)
(496.364 0.500182 -2.57761e-10)
(496.315 0.826234 4.62073e-11)
(496.265 0.946163 1.18995e-10)
(496.191 1.23326 -2.08848e-10)
(496.107 1.41864 -3.54721e-10)
(496.014 1.607 -1.02435e-10)
(495.889 1.91645 1.19939e-10)
(495.783 1.94364 2.06128e-10)
(495.617 2.43685 1.38184e-10)
(495.497 2.24445 2.52116e-10)
(495.291 2.97071 2.5382e-10)
(495.154 2.52055 1.82886e-11)
(494.915 3.49577 -1.44823e-10)
(494.753 2.80309 -1.36571e-10)
(494.494 3.95278 -2.09611e-10)
(494.282 3.20165 -1.1652e-10)
(494.049 4.19187 2.07601e-10)
(493.733 3.80303 1.86103e-10)
(493.576 4.23505 -4.63261e-11)
(493.117 4.52636 -1.24018e-10)
(493.074 4.12083 1.3842e-11)
(492.421 5.43984 5.75496e-11)
(496.055 0.132162 -3.03995e-09)
(496.042 0.437532 9.59558e-10)
(496.019 0.568755 -2.79634e-10)
(495.97 0.926149 3.40832e-11)
(495.921 1.06891 1.19168e-10)
(495.847 1.38881 -2.17304e-10)
(495.764 1.59564 -3.70599e-10)
(495.672 1.81775 -1.06032e-10)
(495.549 2.14773 1.26318e-10)
(495.445 2.20863 2.03081e-10)
(495.279 2.7227 1.26474e-10)
(495.161 2.56196 2.5098e-10)
(494.957 3.31189 2.62606e-10)
(494.822 2.88758 1.97064e-11)
(494.585 3.89416 -1.51587e-10)
(494.427 3.21406 -1.33722e-10)
(494.167 4.41653 -2.14218e-10)
(493.964 3.64098 -1.27708e-10)
(493.725 4.72774 2.04279e-10)
(493.421 4.2767 1.93131e-10)
(493.258 4.8259 -4.83256e-11)
(492.808 5.04445 -1.35236e-10)
(492.761 4.7676 1.55194e-11)
(492.117 5.98815 7.3829e-11)
(495.662 0.149806 -3.02176e-09)
(495.648 0.481529 9.88151e-10)
(495.625 0.636541 -2.60825e-10)
(495.577 1.02486 5.73527e-11)
(495.529 1.1902 1.37994e-10)
(495.455 1.54247 -2.004e-10)
(495.374 1.77046 -3.54229e-10)
(495.282 2.02587 -8.91103e-11)
(495.161 2.37606 1.44544e-10)
(495.058 2.47029 2.19838e-10)
(494.894 3.00478 1.44861e-10)
(494.778 2.87557 2.6723e-10)
(494.576 3.64849 2.81538e-10)
(494.443 3.25037 3.25266e-11)
(494.207 4.28702 -1.38008e-10)
(494.053 3.62088 -1.23237e-10)
(493.793 4.87214 -2.00733e-10)
(493.598 4.07655 -1.16834e-10)
(493.355 5.25613 2.18272e-10)
(493.062 4.74403 2.04868e-10)
(492.893 5.41218 -3.62261e-11)
(492.455 5.55598 -1.23207e-10)
(492.404 5.40805 2.4892e-11)
(491.769 6.52814 8.29077e-11)
(495.219 0.16724 -3.04015e-09)
(495.206 0.524925 9.76436e-10)
(495.183 0.703443 -2.70408e-10)
(495.136 1.12224 4.99471e-11)
(495.088 1.30987 1.31491e-10)
(495.015 1.69406 -2.08518e-10)
(494.935 1.9429 -3.59746e-10)
(494.844 2.23116 -9.13041e-11)
(494.724 2.60117 1.42672e-10)
(494.622 2.72835 2.18175e-10)
(494.461 3.28274 1.45261e-10)
(494.346 3.18486 2.701e-10)
(494.146 3.98003 2.84569e-10)
(494.016 3.60833 3.43928e-11)
(493.782 4.67385 -1.33393e-10)
(493.632 4.02284 -1.17441e-10)
(493.373 5.3195 -1.93546e-10)
(493.185 4.50782 -1.10742e-10)
(492.938 5.77621 2.28832e-10)
(492.657 5.20568 2.1578e-10)
(492.483 5.99112 -4.79271e-11)
(492.056 6.0588 -1.57251e-10)
(492.001 6.04281 -4.37832e-12)
(491.377 7.05939 5.16911e-11)
(494.728 0.184441 -3.04601e-09)
(494.715 0.567677 9.78822e-10)
(494.693 0.769384 -2.73578e-10)
(494.646 1.21821 4.45967e-11)
(494.599 1.42781 1.26672e-10)
(494.527 1.84346 -2.14631e-10)
(494.447 2.11282 -3.68355e-10)
(494.358 2.43348 -1.01632e-10)
(494.24 2.82291 1.32673e-10)
(494.139 2.98262 2.08778e-10)
(493.98 3.5564 1.34856e-10)
(493.867 3.48958 2.61186e-10)
(493.669 4.30624 2.74003e-10)
(493.542 3.96107 2.48166e-11)
(493.31 5.05427 -1.48011e-10)
(493.164 4.41934 -1.31355e-10)
(492.906 5.75865 -2.10954e-10)
(492.724 4.93443 -1.24234e-10)
(492.475 6.28731 2.10493e-10)
(492.205 5.66001 1.97466e-10)
(492.026 6.56241 -4.30141e-11)
(491.612 6.55282 -1.28063e-10)
(491.553 6.66985 2.15231e-11)
(490.94 7.58123 7.81158e-11)
(494.189 0.201381 -3.05259e-09)
(494.175 0.609725 9.78026e-10)
(494.154 0.834264 -2.79722e-10)
(494.107 1.31264 3.87667e-11)
(494.061 1.54386 1.18635e-10)
(493.989 1.9905 -2.2713e-10)
(493.912 2.28 -3.83392e-10)
(493.823 2.63262 -1.18601e-10)
(493.707 3.04105 1.15813e-10)
(493.608 3.23289 1.90144e-10)
(493.45 3.82549 1.08728e-10)
(493.34 3.78942 2.35424e-10)
(493.144 4.62678 2.41523e-10)
(493.02 4.30814 1.937e-11)
(492.79 5.42785 -1.24191e-10)
(492.649 4.80969 -1.14203e-10)
(492.392 6.18946 -1.93142e-10)
(492.217 5.35599 -1.1197e-10)
(491.965 6.78877 2.23148e-10)
(491.707 6.10661 2.07956e-10)
(491.524 7.12492 -3.48875e-11)
(491.122 7.03688 -1.23016e-10)
(491.06 7.28824 2.68301e-11)
(490.459 8.09318 8.12109e-11)
(493.6 0.218035 -3.05174e-09)
(493.587 0.651016 1.00201e-09)
(493.565 0.897988 -2.80685e-10)
(493.519 1.4054 1.95545e-11)
(493.474 1.65784 1.15917e-10)
(493.404 2.13498 -2.18464e-10)
(493.327 2.44424 -3.62931e-10)
(493.24 2.82835 -8.14965e-11)
(493.125 3.25534 1.3525e-10)
(493.028 3.47888 1.90815e-10)
(492.873 4.08975 1.2189e-10)
(492.765 4.08412 2.59262e-10)
(492.571 4.9414 2.84185e-10)
(492.45 4.64921 3.8667e-11)
(492.223 5.79422 -1.5739e-10)
(492.086 5.19339 -1.5531e-10)
(491.83 6.61151 -2.298e-10)
(491.662 5.77192 -1.30733e-10)
(491.409 7.28013 2.17532e-10)
(491.162 6.54496 2.13816e-10)
(490.975 7.67805 -4.72675e-11)
(490.586 7.51002 -1.5198e-10)
(490.521 7.89655 9.96908e-12)
(489.933 8.59471 7.8399e-11)
(492.962 0.234381 -3.07356e-09)
(492.949 0.6915 9.62993e-10)
(492.928 0.96047 -2.72108e-10)
(492.883 1.49638 7.6323e-11)
(492.838 1.76959 1.41869e-10)
(492.769 2.27671 -2.15905e-10)
(492.694 2.60527 -3.8364e-10)
(492.608 3.02039 -1.27663e-10)
(492.496 3.46547 1.32655e-10)
(492.4 3.72029 2.33142e-10)
(492.247 4.34888 1.42833e-10)
(492.141 4.37335 2.53885e-10)
(491.951 5.24978 2.50203e-10)
(491.833 4.98392 1.71816e-11)
(491.607 6.15305 -1.33357e-10)
(491.475 5.56995 -1.26337e-10)
(491.222 7.02437 -2.19858e-10)
(491.06 6.18149 -1.42232e-10)
(490.806 7.76078 1.77012e-10)
(490.571 6.97477 1.8487e-10)
(490.379 8.2214 -3.43365e-11)
(490.004 7.97138 -1.27829e-10)
(489.937 8.49356 1.01135e-11)
(489.362 9.08526 5.30257e-11)
(492.276 0.250396 -3.06507e-09)
(492.262 0.731131 1.01391e-09)
(492.242 1.02163 -2.79599e-10)
(492.197 1.58545 1.66236e-11)
(492.154 1.87896 1.14764e-10)
(492.085 2.41549 -2.16781e-10)
(492.012 2.76286 -3.56476e-10)
(491.928 3.20845 -7.45067e-11)
(491.817 3.67112 1.36981e-10)
(491.724 3.95675 1.92617e-10)
(491.573 4.60249 1.28781e-10)
(491.47 4.65673 2.6816e-10)
(491.282 5.55157 2.95042e-10)
(491.168 5.3119 1.37458e-11)
(490.945 6.50403 -1.89877e-10)
(490.817 5.93896 -1.51913e-10)
(490.566 7.42768 -2.20498e-10)
(490.411 6.58389 -1.17448e-10)
(490.156 8.22995 2.33126e-10)
(489.933 7.39576 1.91556e-10)
(489.738 8.75432 -7.33261e-11)
(489.376 8.42067 -1.41165e-10)
(489.306 9.07867 2.34742e-11)
(488.745 9.56416 9.0557e-11)
(491.539 0.266058 -3.08674e-09)
(491.526 0.769862 9.77967e-10)
(491.506 1.08138 -2.98196e-10)
(491.462 1.6725 1.2852e-11)
(491.42 1.98578 1.25707e-10)
(491.352 2.55111 -1.9064e-10)
(491.28 2.91674 -3.53631e-10)
(491.198 3.39224 -9.31626e-11)
(491.089 3.87193 1.33979e-10)
(490.998 4.18788 2.04296e-10)
(490.85 4.85018 1.17793e-10)
(490.75 4.93383 2.37064e-10)
(490.565 5.84635 2.76115e-10)
(490.454 5.63275 4.44762e-11)
(490.234 6.8468 -1.39385e-10)
(490.111 6.30001 -1.28726e-10)
(489.863 7.82116 -2.17196e-10)
(489.715 6.97827 -1.33995e-10)
(489.46 8.68681 1.91148e-10)
(489.248 7.80759 1.68578e-10)
(489.05 9.27528 -8.49648e-11)
(488.703 8.85854 -1.38058e-10)
(488.628 9.65232 4.13862e-11)
(488.083 10.0301 8.72788e-11)
(490.753 0.281343 -3.08636e-09)
(490.74 0.80764 1.00432e-09)
(490.721 1.13964 -2.64943e-10)
(490.677 1.75742 6.75468e-11)
(490.636 2.08989 1.49345e-10)
(490.57 2.68338 -1.95543e-10)
(490.5 3.06669 -3.46776e-10)
(490.419 3.57146 -6.91591e-11)
(490.313 4.06757 1.74862e-10)
(490.224 4.41329 2.16689e-10)
(490.079 5.09151 1.01996e-10)
(489.982 5.20416 2.34133e-10)
(489.8 6.13364 2.43819e-10)
(489.693 5.94595 -7.21179e-12)
(489.476 7.18093 -1.81637e-10)
(489.358 6.6527 -1.54188e-10)
(489.112 8.20459 -2.34573e-10)
(488.971 7.36388 -1.37573e-10)
(488.717 9.13072 2.04502e-10)
(488.517 8.20997 1.97178e-10)
(488.315 9.78387 -4.14855e-11)
(487.983 9.28457 -1.23868e-10)
(487.904 10.2137 3.02422e-11)
(487.375 10.4826 9.13226e-11)
(489.917 0.296222 -3.10072e-09)
(489.904 0.8444 9.92964e-10)
(489.885 1.1963 -2.86045e-10)
(489.842 1.84007 4.13271e-11)
(489.803 2.19112 1.16964e-10)
(489.738 2.81209 -2.3938e-10)
(489.67 3.21243 -3.93621e-10)
(489.591 3.74584 -1.19397e-10)
(489.487 4.25769 1.16758e-10)
(489.401 4.63259 1.92891e-10)
(489.259 5.32603 1.15241e-10)
(489.165 5.46722 2.39091e-10)
(488.986 6.41292 2.40175e-10)
(488.883 6.25093 -1.53519e-11)
(488.67 7.50588 -1.99879e-10)
(488.557 6.99645 -1.77351e-10)
(488.314 8.57751 -2.22291e-10)
(488.18 7.74021 -9.68064e-11)
(487.927 9.5612 2.44681e-10)
(487.739 8.60249 2.23676e-10)
(487.534 10.2796 -2.07247e-11)
(487.217 9.69844 -1.12775e-10)
(487.134 10.7621 3.84478e-11)
(486.621 10.9211 9.55394e-11)
(489.031 0.310661 -3.12461e-09)
(489.018 0.880067 1.00641e-09)
(489 1.25125 -2.57501e-10)
(488.958 1.92027 4.63145e-11)
(488.919 2.28927 1.43115e-10)
(488.856 2.93702 -1.90699e-10)
(488.789 3.35372 -3.72974e-10)
(488.713 3.91507 -1.23726e-10)
(488.612 4.44197 1.3513e-10)
(488.528 4.84541 2.32424e-10)
(488.389 5.55334 1.29213e-10)
(488.298 5.72256 2.69559e-10)
(488.123 6.68368 2.90796e-10)
(488.025 6.54712 4.71734e-12)
(487.815 7.82109 -1.55016e-10)
(487.708 7.33065 -1.17969e-10)
(487.468 8.93938 -2.27649e-10)
(487.341 8.10671 -1.59362e-10)
(487.09 9.97789 1.95416e-10)
(486.913 8.98474 1.96909e-10)
(486.706 10.7619 -7.41253e-11)
(486.404 10.0998 -1.41006e-10)
(486.317 11.297 2.60447e-11)
(485.821 11.3453 5.89096e-11)
(488.094 0.324621 -3.1128e-09)
(488.082 0.914551 1.02044e-09)
(488.064 1.30433 -2.5852e-10)
(488.023 1.99785 8.09174e-11)
(487.986 2.3841 1.61723e-10)
(487.924 3.05789 -2.29412e-10)
(487.859 3.49026 -4.19994e-10)
(487.785 4.07886 -1.32918e-10)
(487.686 4.62007 1.17354e-10)
(487.606 5.05141 2.01775e-10)
(487.47 5.77305 1.29742e-10)
(487.383 5.96974 2.66176e-10)
(487.212 6.94543 2.82226e-10)
(487.118 6.83396 3.01072e-11)
(486.912 8.12596 -1.36787e-10)
(486.81 7.65461 -1.14167e-10)
(486.574 9.28961 -1.90006e-10)
(486.454 8.46267 -1.34959e-10)
(486.206 10.3804 1.67654e-10)
(486.04 9.35634 1.64761e-10)
(485.83 11.2302 -7.45136e-11)
(485.545 10.4884 -1.53883e-10)
(485.453 11.8178 -3.9782e-13)
(484.975 11.7546 6.77331e-11)
(487.107 0.338062 -3.14062e-09)
(487.095 0.947761 9.75581e-10)
(487.078 1.3554 -2.82729e-10)
(487.037 2.0726 8.13934e-11)
(487.002 2.47538 1.38704e-10)
(486.941 3.17445 -2.30472e-10)
(486.879 3.62176 -3.97543e-10)
(486.807 4.23689 -8.94932e-11)
(486.711 4.79167 1.809e-10)
(486.634 5.25023 2.40427e-10)
(486.502 5.98478 1.4495e-10)
(486.418 6.20836 2.53497e-10)
(486.251 7.19773 2.38754e-10)
(486.162 7.11094 7.29717e-12)
(485.96 8.41994 -1.42467e-10)
(485.864 7.96767 -1.36471e-10)
(485.632 9.62756 -2.35598e-10)
(485.52 8.8073 -1.56647e-10)
(485.275 10.7684 2.13239e-10)
(485.119 9.71695 2.20574e-10)
(484.908 11.6835 -4.08757e-11)
(484.638 10.8638 -1.45665e-10)
(484.542 12.3241 -1.42142e-11)
(484.082 12.1487 7.24662e-11)
(486.069 0.350946 -3.1532e-09)
(486.057 0.979613 9.79414e-10)
(486.041 1.40433 -2.83886e-10)
(486.001 2.14435 8.71625e-11)
(485.967 2.56288 1.49111e-10)
(485.909 3.28641 -2.26168e-10)
(485.849 3.7479 -3.98871e-10)
(485.779 4.38882 -1.39587e-10)
(485.686 4.95639 1.3176e-10)
(485.612 5.44152 2.46342e-10)
(485.483 6.18817 1.55714e-10)
(485.404 6.43804 2.64218e-10)
(485.241 7.44019 2.49831e-10)
(485.156 7.37762 1.62482e-11)
(484.96 8.70253 -1.32796e-10)
(484.869 8.26924 -1.32326e-10)
(484.642 9.95258 -2.31184e-10)
(484.537 9.13972 -1.47866e-10)
(484.295 11.1415 2.24392e-10)
(484.15 10.0662 2.30033e-10)
(483.938 12.1208 -3.10186e-11)
(483.685 11.2254 -1.37147e-10)
(483.585 12.8152 5.42492e-13)
(483.144 12.5272 4.52522e-11)
(484.98 0.363243 -3.17087e-09)
(484.968 1.01004 1.02411e-09)
(484.953 1.451 -2.60077e-10)
(484.914 2.21293 4.38175e-11)
(484.882 2.64637 9.37776e-11)
(484.825 3.39351 -2.43318e-10)
(484.768 3.86837 -3.74548e-10)
(484.701 4.53432 -1.23897e-10)
(484.611 5.11389 1.37731e-10)
(484.54 5.62491 2.37246e-10)
(484.415 6.38282 1.3022e-10)
(484.34 6.65839 2.80322e-10)
(484.181 7.6724 3.09023e-10)
(484.102 7.63359 1.10311e-11)
(483.91 8.97333 -2.02849e-10)
(483.825 8.55882 -1.56623e-10)
(483.603 10.2642 -2.15836e-10)
(483.505 9.45924 -1.43372e-10)
(483.267 11.4993 2.19894e-10)
(483.133 10.4034 2.16823e-10)
(482.921 12.5413 -5.76061e-11)
(482.684 11.5723 -1.2359e-10)
(482.581 13.2902 5.15379e-11)
(482.158 12.8895 7.87589e-11)
(483.84 0.37493 -3.15031e-09)
(483.828 1.03898 1.05191e-09)
(483.813 1.49532 -2.45736e-10)
(483.776 2.27821 5.54892e-11)
(483.745 2.72569 9.93832e-11)
(483.691 3.49554 -2.44713e-10)
(483.636 3.9829 -3.81196e-10)
(483.571 4.67306 -8.06439e-11)
(483.485 5.26379 1.76329e-10)
(483.417 5.79999 2.17414e-10)
(483.297 6.56833 1.03645e-10)
(483.226 6.86902 2.50535e-10)
(483.072 7.89397 2.71718e-10)
(482.997 7.87845 2.06937e-11)
(482.81 9.23192 -1.42975e-10)
(482.732 8.83599 -1.07762e-10)
(482.514 10.5618 -2.27484e-10)
(482.425 9.76533 -1.62842e-10)
(482.191 11.8412 1.93116e-10)
(482.068 10.7279 1.88824e-10)
(481.856 12.9443 -4.16339e-11)
(481.635 11.9037 -1.14298e-10)
(481.529 13.7478 5.71462e-11)
(481.126 13.235 7.90109e-11)
(482.649 0.385993 -3.15585e-09)
(482.637 1.0664 1.02542e-09)
(482.623 1.53723 -3.05997e-10)
(482.587 2.34009 6.76289e-11)
(482.558 2.80069 1.26697e-10)
(482.505 3.5923 -2.51677e-10)
(482.453 4.09126 -3.66158e-10)
(482.391 4.80476 -1.02712e-10)
(482.309 5.40575 1.16365e-10)
(482.245 5.9664 2.34906e-10)
(482.128 6.74429 1.43412e-10)
(482.062 7.0695 2.51751e-10)
(481.912 8.10447 2.95211e-10)
(481.843 8.11181 9.89316e-12)
(481.661 9.47791 -1.95194e-10)
(481.589 9.10034 -1.38779e-10)
(481.377 10.8453 -2.39462e-10)
(481.295 10.0575 -1.53074e-10)
(481.066 12.1666 2.22857e-10)
(480.953 11.039 1.84416e-10)
(480.742 13.3291 -8.17353e-11)
(480.538 12.2189 -1.3448e-10)
(480.43 14.1867 -2.61919e-12)
(480.047 13.5634 4.40149e-11)
(481.406 0.396422 -3.22554e-09)
(481.395 1.09229 1.00444e-09)
(481.382 1.57669 -3.07389e-10)
(481.347 2.39851 3.83122e-11)
(481.319 2.87129 1.27345e-10)
(481.269 3.68367 -2.29758e-10)
(481.219 4.19326 -3.78814e-10)
(481.16 4.92919 -8.52495e-11)
(481.081 5.53949 1.62937e-10)
(481.021 6.12379 2.47317e-10)
(480.909 6.91029 1.78803e-10)
(480.847 7.25941 2.58556e-10)
(480.702 8.30344 2.67077e-10)
(480.639 8.33323 3.95461e-12)
(480.462 9.7109 -1.72862e-10)
(480.397 9.35149 -1.44503e-10)
(480.19 11.1141 -2.22689e-10)
(480.116 10.3353 -1.17131e-10)
(479.892 12.4754 2.35784e-10)
(479.789 11.336 2.15337e-10)
(479.58 13.6951 -8.22399e-11)
(479.393 12.5174 -1.60325e-10)
(479.282 14.6067 -2.20412e-12)
(478.919 13.8745 5.99115e-11)
(480.112 0.406205 -3.196e-09)
(480.101 1.11661 1.06144e-09)
(480.089 1.61365 -2.51737e-10)
(480.055 2.45341 5.10907e-11)
(480.029 2.9374 9.35317e-11)
(479.981 3.76955 -2.61063e-10)
(479.934 4.28877 -3.97555e-10)
(479.878 5.04617 -9.11608e-11)
(479.803 5.66477 1.63845e-10)
(479.746 6.27189 2.60079e-10)
(479.639 7.06599 1.44237e-10)
(479.582 7.43835 2.36989e-10)
(479.442 8.49046 2.56064e-10)
(479.384 8.54223 -2.03326e-12)
(479.213 9.93042 -1.67927e-10)
(479.155 9.58899 -1.28789e-10)
(478.953 11.3679 -1.93468e-10)
(478.887 10.5984 -8.00449e-11)
(478.668 12.7673 2.25172e-10)
(478.576 11.618 1.63678e-10)
(478.37 14.041 -7.06069e-11)
(478.199 12.7995 -1.39782e-10)
(478.085 15.0086 3.31265e-11)
(477.742 14.1688 1.08107e-10)
(478.767 0.41533 -3.1949e-09)
(478.756 1.13933 1.03332e-09)
(478.745 1.64808 -3.28757e-10)
(478.712 2.50474 4.50196e-11)
(478.688 2.99896 1.64521e-10)
(478.642 3.84986 -2.2528e-10)
(478.598 4.3777 -4.11019e-10)
(478.545 5.1556 -9.10331e-11)
(478.473 5.78145 1.28908e-10)
(478.421 6.41049 1.83894e-10)
(478.317 7.21112 1.44962e-10)
(478.265 7.60599 3.08204e-10)
(478.131 8.66512 2.81679e-10)
(478.079 8.73838 -1.39177e-11)
(477.913 10.136 -1.62781e-10)
(477.862 9.81236 -1.0692e-10)
(477.666 11.6063 -2.18927e-10)
(477.609 10.8463 -1.45605e-10)
(477.395 13.042 2.39158e-10)
(477.314 11.8842 1.90987e-10)
(477.11 14.3659 -8.97262e-11)
(476.956 13.065 -1.45574e-10)
(476.839 15.3912 4.53472e-11)
(476.518 14.4448 8.12923e-11)
(477.371 0.423781 -3.26732e-09)
(477.36 1.16042 1.01077e-09)
(477.349 1.67991 -3.18074e-10)
(477.318 2.55241 3.24652e-11)
(477.296 3.05588 1.17061e-10)
(477.251 3.9245 -2.51769e-10)
(477.21 4.45995 -4.00588e-10)
(477.16 5.25737 -1.03375e-10)
(477.092 5.88941 1.42285e-10)
(477.044 6.53946 2.21436e-10)
(476.945 7.34552 1.51883e-10)
(476.898 7.7621 2.91735e-10)
(476.769 8.82711 2.95464e-10)
(476.723 8.92128 2.06557e-11)
(476.563 10.3272 -1.57323e-10)
(476.519 10.0211 -1.3021e-10)
(476.329 11.8287 -2.13139e-10)
(476.28 11.0786 -1.12033e-10)
(476.072 13.299 2.47073e-10)
(476.001 12.1343 2.24685e-10)
(475.801 14.6691 -2.04347e-11)
(475.664 13.3138 -1.68057e-10)
(475.545 15.7531 -1.64724e-11)
(475.245 14.7012 5.37034e-11)
(475.922 0.431541 -3.20489e-09)
(475.912 1.17985 1.0789e-09)
(475.902 1.7091 -2.77272e-10)
(475.872 2.59637 7.25664e-11)
(475.852 3.10809 1.48357e-10)
(475.81 3.99339 -2.27297e-10)
(475.771 4.53544 -3.83528e-10)
(475.724 5.35141 -9.05534e-11)
(475.66 5.98857 1.49716e-10)
(475.615 6.65874 2.22573e-10)
(475.521 7.46906 1.46285e-10)
(475.479 7.90657 2.74772e-10)
(475.355 8.9762 2.71034e-10)
(475.316 9.09068 -3.8108e-12)
(475.161 10.5036 -1.96974e-10)
(475.125 10.2147 -1.77663e-10)
(474.941 12.0348 -2.66145e-10)
(474.901 11.2946 -1.00571e-10)
(474.698 13.538 2.48935e-10)
(474.638 12.3679 2.14309e-10)
(474.442 14.9505 -3.33857e-11)
(474.322 13.5452 -1.29377e-10)
(474.2 16.0937 2.18243e-11)
(473.923 14.938 8.24323e-11)
(474.423 0.438595 -3.23515e-09)
(474.412 1.19757 1.05564e-09)
(474.404 1.73559 -3.16075e-10)
(474.375 2.63654 7.2654e-11)
(474.356 3.1555 1.36565e-10)
(474.316 4.05644 -2.55143e-10)
(474.281 4.60407 -3.72463e-10)
(474.237 5.43762 -9.68137e-11)
(474.176 6.07885 1.3149e-10)
(474.136 6.76825 2.49341e-10)
(474.046 7.58169 1.53521e-10)
(474.009 8.03934 2.69895e-10)
(473.89 9.11232 3.1118e-10)
(473.857 9.24644 1.41698e-11)
(473.708 10.6649 -1.91635e-10)
(473.68 10.3929 -1.30363e-10)
(473.502 12.2239 -2.34078e-10)
(473.471 11.4939 -1.47491e-10)
(473.274 13.7585 2.50533e-10)
(473.225 12.5843 2.03433e-10)
(473.033 15.2101 -7.35488e-11)
(472.928 13.7592 -1.18238e-10)
(472.806 16.4121 2.24735e-11)
(472.551 15.1549 5.98659e-11)
(472.871 0.444935 -3.29967e-09)
(472.861 1.21358 1.06041e-09)
(472.853 1.75936 -2.79677e-10)
(472.825 2.67287 3.2179e-11)
(472.809 3.19806 1.43535e-10)
(472.771 4.11358 -2.09321e-10)
(472.738 4.66576 -4.12799e-10)
(472.698 5.51592 -9.01305e-11)
(472.641 6.16017 1.78197e-10)
(472.604 6.86793 2.11641e-10)
(472.519 7.68336 1.60783e-10)
(472.487 8.16039 3.22281e-10)
(472.374 9.23542 2.79259e-10)
(472.347 9.38854 1.99692e-11)
(472.204 10.8111 -1.39023e-10)
(472.183 10.5555 -1.61457e-10)
(472.011 12.3957 -2.2839e-10)
(471.989 11.6758 -9.97364e-11)
(471.799 13.9598 2.18159e-10)
(471.761 12.7825 2.09984e-10)
(471.574 15.4481 -1.98914e-11)
(471.484 13.9564 -1.47853e-10)
(471.36 16.7074 2.94565e-11)
(471.128 15.3512 1.07306e-10)
(471.268 0.45056 -3.27591e-09)
(471.258 1.22786 1.1028e-09)
(471.251 1.7804 -2.48984e-10)
(471.225 2.70535 6.76057e-11)
(471.21 3.23574 1.05472e-10)
(471.174 4.16477 -2.51804e-10)
(471.144 4.72046 -3.8171e-10)
(471.107 5.58624 -6.31483e-11)
(471.054 6.23244 2.05962e-10)
(471.021 6.95771 2.46025e-10)
(470.941 7.77398 1.21268e-10)
(470.914 8.26967 2.78566e-10)
(470.806 9.34547 3.07433e-10)
(470.785 9.51701 4.50532e-11)
(470.648 10.9422 -1.19489e-10)
(470.634 10.7024 -1.43519e-10)
(470.469 12.5502 -2.77809e-10)
(470.456 11.8401 -1.42531e-10)
(470.272 14.1414 2.33502e-10)
(470.245 12.9618 2.22882e-10)
(470.064 15.6643 5.0503e-13)
(469.989 14.1369 -1.36822e-10)
(469.864 16.979 -2.49378e-11)
(469.655 15.5263 5.98959e-11)
(469.613 0.455477 -3.34931e-09)
(469.603 1.24044 1.03323e-09)
(469.597 1.79873 -3.35119e-10)
(469.572 2.73401 1.86911e-11)
(469.559 3.26856 1.05969e-10)
(469.525 4.21003 -2.74159e-10)
(469.498 4.76816 -4.30006e-10)
(469.464 5.64856 -1.31402e-10)
(469.415 6.29561 1.19766e-10)
(469.386 7.03749 2.0014e-10)
(469.311 7.85347 1.21969e-10)
(469.289 8.3671 2.60238e-10)
(469.186 9.44241 2.60786e-10)
(469.171 9.63182 -2.00982e-11)
(469.04 11.0581 -2.10315e-10)
(469.034 10.8338 -1.82254e-10)
(468.875 12.6873 -2.71989e-10)
(468.871 11.9869 -1.61285e-10)
(468.693 14.3033 1.93114e-10)
(468.678 13.1218 1.6887e-10)
(468.503 15.8577 -9.08706e-11)
(468.442 14.3 -1.73721e-10)
(468.317 17.2263 -1.78057e-11)
(468.131 15.6799 4.82276e-11)
(467.906 0.459696 -3.29815e-09)
(467.896 1.25135 1.07728e-09)
(467.891 1.8144 -3.23916e-10)
(467.867 2.7589 8.35291e-11)
(467.856 3.29659 1.46655e-10)
(467.825 4.24939 -2.54615e-10)
(467.8 4.8089 -3.64247e-10)
(467.769 5.70289 -8.27784e-11)
(467.724 6.34967 1.48087e-10)
(467.699 7.10725 2.76369e-10)
(467.628 7.92175 1.77966e-10)
(467.611 8.45258 2.88526e-10)
(467.514 9.52612 3.38408e-10)
(467.506 9.7329 3.19239e-11)
(467.381 11.1589 -1.76313e-10)
(467.381 10.9498 -1.70061e-10)
(467.229 12.8072 -2.80236e-10)
(467.234 12.1162 -1.23616e-10)
(467.063 14.4456 2.16285e-10)
(467.058 13.2623 1.69667e-10)
(466.889 16.0282 -4.15071e-11)
(466.843 14.4447 -1.49935e-10)
(466.719 17.4483 -1.7591e-11)
(466.556 15.8119 9.18342e-11)
(466.147 0.46323 -3.30563e-09)
(466.137 1.2606 1.09072e-09)
(466.133 1.82745 -3.19243e-10)
(466.11 2.78007 9.13931e-11)
(466.101 3.31989 1.54073e-10)
(466.072 4.28295 -2.49159e-10)
(466.05 4.84277 -3.59023e-10)
(466.022 5.74929 -7.55353e-11)
(465.98 6.39466 1.55937e-10)
(465.96 7.16699 2.15652e-10)
(465.894 7.97878 1.16157e-10)
(465.882 8.52604 3.03677e-10)
(465.79 9.59647 2.83562e-10)
(465.788 9.82011 -2.16785e-11)
(465.669 11.2443 -1.63345e-10)
(465.677 11.0502 -1.57805e-10)
(465.53 12.9099 -2.67451e-10)
(465.545 12.2284 -1.10822e-10)
(465.38 14.5685 2.32675e-10)
(465.386 13.3835 1.82993e-10)
(465.222 16.1763 -2.77954e-11)
(465.191 14.5696 -1.3849e-10)
(465.07 17.6433 3.76253e-12)
(464.93 15.9225 1.11205e-10)
(464.336 0.466089 -3.33903e-09)
(464.327 1.26822 1.14326e-09)
(464.323 1.83792 -2.93828e-10)
(464.301 2.79758 3.31157e-11)
(464.294 3.33854 1.54531e-10)
(464.267 4.31078 -1.92909e-10)
(464.248 4.86984 -3.88235e-10)
(464.223 5.78788 -1.25025e-10)
(464.185 6.43067 1.63983e-10)
(464.168 7.21679 2.79865e-10)
(464.107 8.0246 1.66298e-10)
(464.1 8.58747 2.70894e-10)
(464.014 9.65338 3.06106e-10)
(464.017 9.8933 5.19915e-11)
(463.904 11.3141 -1.7851e-10)
(463.92 11.1348 -1.84967e-10)
(463.78 12.9951 -2.39845e-10)
(463.804 12.3232 -9.78297e-11)
(463.645 14.672 2.34778e-10)
(463.662 13.4858 1.71109e-10)
(463.504 16.3027 -5.76368e-11)
(463.486 14.6737 -1.20343e-10)
(463.369 17.8099 1.13698e-11)
(463.251 16.0113 4.27697e-11)
(462.472 0.468277 -3.38163e-09)
(462.463 1.27422 1.0785e-09)
(462.46 1.84584 -3.29309e-10)
(462.44 2.81146 1.83191e-11)
(462.434 3.35258 9.30656e-11)
(462.409 4.33295 -3.03526e-10)
(462.393 4.89022 -3.97171e-10)
(462.371 5.81873 -3.16793e-11)
(462.336 6.45781 2.14526e-10)
(462.324 7.25676 2.88428e-10)
(462.267 8.05928 1.95713e-10)
(462.265 8.63693 3.21004e-10)
(462.184 9.69684 3.14663e-10)
(462.194 9.95244 1.77076e-11)
(462.087 11.3682 -1.86713e-10)
(462.111 11.2035 -1.72392e-10)
(461.977 13.0625 -2.70289e-10)
(462.01 12.4004 -1.63402e-10)
(461.857 14.7561 1.85027e-10)
(461.885 13.5692 1.52503e-10)
(461.733 16.4075 -5.11987e-11)
(461.729 14.7579 -8.89965e-11)
(461.615 17.9482 7.08933e-11)
(461.52 16.0778 1.1926e-10)
(460.556 0.469796 -3.42503e-09)
(460.547 1.27862 1.09223e-09)
(460.545 1.85122 -2.96861e-10)
(460.526 2.82173 1.11802e-11)
(460.522 3.36204 1.13889e-10)
(460.499 4.34949 -2.53526e-10)
(460.486 4.90393 -3.92063e-10)
(460.466 5.84191 -6.73934e-11)
(460.435 6.47615 1.30785e-10)
(460.427 7.28698 2.32832e-10)
(460.374 8.08294 1.75297e-10)
(460.377 8.67454 2.5962e-10)
(460.302 9.72693 2.79683e-10)
(460.318 9.99758 1.04783e-11)
(460.217 11.4066 -1.65974e-10)
(460.249 11.2561 -1.25933e-10)
(460.121 13.1119 -2.64046e-10)
(460.163 12.4597 -1.3055e-10)
(460.017 14.8201 2.5359e-10)
(460.057 13.6334 1.66013e-10)
(459.91 16.4906 -8.21701e-11)
(459.919 14.8225 -1.47233e-10)
(459.809 18.059 3.38239e-11)
(459.735 16.1224 1.06896e-10)
(458.587 0.470642 -3.36983e-09)
(458.579 1.2814 1.12206e-09)
(458.577 1.85405 -3.19223e-10)
(458.559 2.82838 2.64168e-11)
(458.557 3.36693 1.00374e-10)
(458.536 4.3604 -2.32762e-10)
(458.525 4.91099 -4.15149e-10)