/*--------------------------------*- C++ -*----------------------------------*\
  =========                 |
  \\      /  F ield         | OpenFOAM: The Open Source CFD Toolbox
   \\    /   O peration     | Website:  https://openfoam.org
    \\  /    A nd           | Version:  10
     \\/     M anipulation  |
\*---------------------------------------------------------------------------*/
FoamFile
{
    format      ascii;
    class       volScalarField;
    location    "0.16";
    object      Ma;
}
// * * * * * * * * * * * * * * * * * * * * * * * * * * * * * * * * * * * * * //

dimensions      [0 0 0 0 0 0 0];

internalField   nonuniform List<scalar> 
4176
(
1.845
1.84493
1.84472
1.84449
1.84407
1.8437
1.84304
1.84254
1.84166
1.84103
1.83992
1.83916
1.83785
1.83694
1.83549
1.83435
1.83289
1.83134
1.83003
1.82791
1.82697
1.82403
1.82386
1.82005
1.84488
1.84481
1.8446
1.84436
1.84394
1.84355
1.84289
1.84236
1.84147
1.84081
1.8397
1.83891
1.83757
1.83664
1.83515
1.83398
1.83248
1.83091
1.82956
1.8274
1.82645
1.82339
1.82318
1.81899
1.84453
1.84446
1.84426
1.84402
1.84361
1.84322
1.84259
1.84207
1.84121
1.84056
1.83948
1.8387
1.8374
1.83648
1.83501
1.83389
1.8324
1.83087
1.82956
1.82745
1.82656
1.82356
1.82334
1.81902
1.84388
1.84381
1.84362
1.84337
1.84297
1.84258
1.84195
1.84142
1.84057
1.83992
1.83883
1.83806
1.83675
1.83585
1.83436
1.83325
1.83174
1.83019
1.82894
1.82677
1.8259
1.82295
1.82276
1.81864
1.84294
1.84287
1.84268
1.84244
1.84204
1.84165
1.84103
1.84051
1.83967
1.83902
1.83795
1.83719
1.83589
1.83501
1.83353
1.83244
1.83092
1.8294
1.82817
1.82599
1.82514
1.82222
1.82203
1.81804
1.84169
1.84162
1.84143
1.84119
1.8408
1.84041
1.8398
1.83928
1.83845
1.83781
1.83675
1.83599
1.83471
1.83383
1.83236
1.83129
1.82975
1.8283
1.827
1.82488
1.82401
1.82112
1.82089
1.8169
1.84015
1.84007
1.83989
1.83965
1.83926
1.83888
1.83828
1.83777
1.83695
1.83631
1.83527
1.83451
1.83325
1.83238
1.83092
1.82988
1.82833
1.82695
1.82559
1.82356
1.82265
1.81981
1.81955
1.81559
1.8383
1.83823
1.83804
1.83781
1.83743
1.83705
1.83646
1.83595
1.83514
1.83451
1.83348
1.83274
1.83149
1.83063
1.82919
1.82816
1.82662
1.82528
1.8239
1.82193
1.821
1.81821
1.81793
1.81403
1.83616
1.83608
1.8359
1.83567
1.83529
1.83492
1.83434
1.83384
1.83304
1.83242
1.8314
1.83067
1.82944
1.82859
1.82717
1.82617
1.82463
1.82334
1.82194
1.82004
1.81908
1.81635
1.81606
1.81221
1.83372
1.83364
1.83347
1.83324
1.83286
1.8325
1.83192
1.83143
1.83064
1.83003
1.82903
1.82831
1.8271
1.82627
1.82486
1.82388
1.82236
1.82111
1.8197
1.81787
1.81689
1.81422
1.81391
1.81013
1.83098
1.83091
1.83073
1.83051
1.83014
1.82978
1.82921
1.82872
1.82796
1.82735
1.82637
1.82567
1.82447
1.82366
1.82227
1.82131
1.81981
1.8186
1.81718
1.81542
1.81441
1.81182
1.81149
1.80778
1.82795
1.82787
1.8277
1.82748
1.82712
1.82676
1.82621
1.82573
1.82497
1.82438
1.82342
1.82273
1.82155
1.82076
1.81939
1.81846
1.81697
1.81581
1.81438
1.81269
1.81166
1.80915
1.80881
1.80517
1.82462
1.82455
1.82438
1.82416
1.82381
1.82346
1.82291
1.82245
1.8217
1.82113
1.82018
1.8195
1.81835
1.81757
1.81623
1.81532
1.81386
1.81273
1.8113
1.80968
1.80865
1.80621
1.80586
1.8023
1.821
1.82093
1.82077
1.82055
1.82021
1.81986
1.81933
1.81887
1.81814
1.81758
1.81665
1.81599
1.81486
1.8141
1.81278
1.81191
1.81046
1.80937
1.80796
1.80639
1.80536
1.80299
1.80264
1.79916
1.81709
1.81702
1.81686
1.81665
1.81631
1.81598
1.81545
1.81501
1.8143
1.81374
1.81283
1.81219
1.81108
1.81035
1.80906
1.80821
1.80679
1.80574
1.80433
1.80284
1.8018
1.79951
1.79916
1.79577
1.81288
1.81282
1.81266
1.81246
1.81212
1.8118
1.81129
1.81086
1.81016
1.80963
1.80874
1.80812
1.80703
1.80632
1.80505
1.80423
1.80284
1.80183
1.80044
1.79901
1.79797
1.79576
1.79541
1.7921
1.80839
1.80832
1.80817
1.80797
1.80765
1.80734
1.80684
1.80642
1.80574
1.80522
1.80435
1.80375
1.80269
1.80201
1.80077
1.79998
1.79861
1.79764
1.79627
1.79491
1.79387
1.79174
1.79139
1.78817
1.80361
1.80354
1.8034
1.8032
1.80289
1.80258
1.8021
1.80169
1.80103
1.80053
1.79969
1.79911
1.79808
1.79742
1.79621
1.79545
1.79411
1.79318
1.79184
1.79054
1.7895
1.78746
1.7871
1.78398
1.79854
1.79848
1.79833
1.79815
1.79784
1.79755
1.79708
1.79668
1.79604
1.79556
1.79474
1.79419
1.79318
1.79255
1.79137
1.79065
1.78934
1.78845
1.78714
1.7859
1.78487
1.78291
1.78255
1.77952
1.79319
1.79312
1.79298
1.7928
1.79251
1.79223
1.79177
1.79139
1.79077
1.79031
1.78952
1.78899
1.78801
1.78741
1.78626
1.78557
1.7843
1.78345
1.78217
1.78099
1.77997
1.7781
1.77774
1.7748
1.78755
1.78749
1.78735
1.78718
1.78689
1.78662
1.78618
1.78582
1.78522
1.78478
1.78401
1.78351
1.78256
1.78199
1.78088
1.78022
1.77899
1.77819
1.77693
1.77582
1.77481
1.77302
1.77266
1.76983
1.78163
1.78157
1.78144
1.78127
1.781
1.78074
1.78032
1.77997
1.77939
1.77898
1.77823
1.77776
1.77684
1.7763
1.77523
1.77461
1.77341
1.77265
1.77144
1.77038
1.76939
1.76769
1.76733
1.7646
1.77543
1.77537
1.77524
1.77508
1.77482
1.77458
1.77417
1.77385
1.77329
1.7729
1.77218
1.77173
1.77085
1.77034
1.7693
1.76872
1.76757
1.76685
1.76567
1.76468
1.76371
1.76209
1.76174
1.75911
1.76895
1.76889
1.76877
1.76862
1.76837
1.76814
1.76775
1.76744
1.76691
1.76654
1.76585
1.76543
1.76458
1.76411
1.76311
1.76257
1.76146
1.76079
1.75965
1.75871
1.75777
1.75624
1.75589
1.75337
1.76219
1.76214
1.76202
1.76188
1.76164
1.76143
1.76105
1.76077
1.76026
1.75992
1.75926
1.75887
1.75805
1.75761
1.75665
1.75615
1.75508
1.75446
1.75336
1.75248
1.75156
1.75012
1.74979
1.74737
1.75517
1.75512
1.75501
1.75487
1.75465
1.75444
1.75409
1.75383
1.75334
1.75302
1.75239
1.75203
1.75125
1.75085
1.74993
1.74947
1.74844
1.74786
1.74681
1.746
1.74511
1.74375
1.74344
1.74112
1.74788
1.74783
1.74772
1.7476
1.74738
1.74719
1.74686
1.74661
1.74615
1.74586
1.74526
1.74494
1.74419
1.74383
1.74294
1.74252
1.74154
1.74101
1.74
1.73925
1.73839
1.73713
1.73683
1.73461
1.74032
1.74027
1.74017
1.74006
1.73985
1.73968
1.73936
1.73914
1.7387
1.73844
1.73787
1.73758
1.73687
1.73654
1.7357
1.73532
1.73438
1.7339
1.73294
1.73224
1.73143
1.73024
1.72996
1.72785
1.7325
1.73245
1.73236
1.73225
1.73206
1.7319
1.73161
1.7314
1.73099
1.73075
1.73022
1.72995
1.72928
1.72899
1.72819
1.72786
1.72696
1.72653
1.72562
1.72498
1.7242
1.72311
1.72284
1.72084
1.72443
1.72438
1.7243
1.7242
1.72402
1.72387
1.72359
1.72341
1.72302
1.72281
1.72231
1.72208
1.72144
1.72119
1.72043
1.72014
1.71929
1.71891
1.71805
1.71746
1.71673
1.71573
1.71548
1.71358
1.7161
1.71605
1.71598
1.71588
1.71572
1.71558
1.71533
1.71516
1.7148
1.71462
1.71414
1.71394
1.71334
1.71313
1.71242
1.71217
1.71137
1.71104
1.71022
1.7097
1.70901
1.70809
1.70786
1.70608
1.70752
1.70748
1.70741
1.70732
1.70717
1.70705
1.70681
1.70667
1.70633
1.70617
1.70572
1.70556
1.705
1.70482
1.70415
1.70395
1.70319
1.70291
1.70215
1.70168
1.70104
1.7002
1.69999
1.69832
1.6987
1.69866
1.69859
1.69851
1.69837
1.69827
1.69805
1.69792
1.69761
1.69748
1.69706
1.69693
1.6964
1.69627
1.69563
1.69548
1.69477
1.69454
1.69382
1.69342
1.69282
1.69206
1.69187
1.69032
1.68963
1.68959
1.68953
1.68946
1.68933
1.68924
1.68904
1.68894
1.68865
1.68854
1.68816
1.68805
1.68756
1.68746
1.68687
1.68676
1.68609
1.68592
1.68525
1.68491
1.68436
1.68367
1.6835
1.68207
1.68033
1.68029
1.68023
1.68017
1.68006
1.67998
1.67979
1.67971
1.67945
1.67936
1.67901
1.67894
1.67848
1.67842
1.67787
1.6778
1.67717
1.67705
1.67643
1.67615
1.67565
1.67504
1.6749
1.67357
1.67079
1.67076
1.6707
1.67065
1.67054
1.67048
1.67031
1.67025
1.67001
1.66995
1.66962
1.66959
1.66916
1.66914
1.66862
1.6686
1.66802
1.66794
1.66737
1.66715
1.66669
1.66616
1.66605
1.66484
1.66102
1.66099
1.66094
1.6609
1.6608
1.66075
1.6606
1.66056
1.66034
1.66031
1.66001
1.66
1.65961
1.65962
1.65914
1.65916
1.65862
1.6586
1.65807
1.65791
1.6575
1.65704
1.65696
1.65587
1.65103
1.651
1.65096
1.65092
1.65083
1.6508
1.65066
1.65064
1.65044
1.65043
1.65016
1.65018
1.64982
1.64987
1.64943
1.6495
1.649
1.64903
1.64854
1.64843
1.64806
1.64768
1.64764
1.64665
1.64082
1.64079
1.64075
1.64072
1.64064
1.64062
1.6405
1.64049
1.64031
1.64033
1.64008
1.64013
1.63981
1.6399
1.63949
1.6396
1.63914
1.63922
1.63877
1.63873
1.6384
1.63808
1.63808
1.63721
1.63039
1.63035
1.63032
1.6303
1.63023
1.63022
1.63012
1.63012
1.62997
1.63001
1.62979
1.62987
1.62957
1.62969
1.62932
1.62947
1.62905
1.62919
1.62878
1.62879
1.62851
1.62826
1.62829
1.62752
1.61974
1.61971
1.61968
1.61966
1.61961
1.6196
1.61952
1.61954
1.6194
1.61946
1.61927
1.61938
1.61911
1.61927
1.61893
1.61913
1.61875
1.61893
1.61856
1.61864
1.6184
1.61822
1.61828
1.6176
1.60887
1.60885
1.60882
1.60881
1.60877
1.60878
1.6087
1.60874
1.60863
1.60871
1.60854
1.60867
1.60844
1.60863
1.60833
1.60856
1.60821
1.60845
1.60812
1.60826
1.60805
1.60795
1.60805
1.60746
1.5978
1.59778
1.59776
1.59775
1.59772
1.59774
1.59768
1.59773
1.59764
1.59774
1.5976
1.59776
1.59755
1.59778
1.5975
1.59778
1.59747
1.59775
1.59746
1.59766
1.59749
1.59746
1.59759
1.5971
1.58653
1.5865
1.58649
1.58649
1.58646
1.58649
1.58645
1.58652
1.58645
1.58657
1.58645
1.58664
1.58646
1.58671
1.58647
1.58679
1.58651
1.58684
1.58658
1.58685
1.5867
1.58676
1.58691
1.58652
1.57505
1.57502
1.57501
1.57502
1.57501
1.57505
1.57502
1.5751
1.57505
1.57519
1.5751
1.57531
1.57516
1.57545
1.57524
1.5756
1.57535
1.57573
1.5755
1.57582
1.57571
1.57584
1.57601
1.57572
1.56337
1.56335
1.56334
1.56336
1.56335
1.5634
1.56339
1.56349
1.56345
1.56362
1.56354
1.56378
1.56366
1.56398
1.5638
1.5642
1.56398
1.56441
1.56421
1.5646
1.5645
1.56471
1.5649
1.56471
1.5515
1.55148
1.55148
1.5515
1.5515
1.55156
1.55156
1.55168
1.55166
1.55185
1.5518
1.55206
1.55197
1.55232
1.55217
1.5526
1.55241
1.5529
1.55271
1.55317
1.55309
1.55338
1.55358
1.5535
1.53944
1.53942
1.53942
1.53945
1.53946
1.53953
1.53955
1.53968
1.53968
1.53988
1.53986
1.54015
1.54008
1.54046
1.54034
1.54081
1.54065
1.54119
1.54103
1.54155
1.54148
1.54186
1.54206
1.54208
1.5272
1.52718
1.52719
1.52722
1.52724
1.52732
1.52735
1.52749
1.52752
1.52774
1.52773
1.52805
1.528
1.52842
1.52832
1.52883
1.5287
1.52928
1.52914
1.52973
1.52969
1.53015
1.53033
1.53046
1.51478
1.51476
1.51477
1.51481
1.51484
1.51493
1.51497
1.51513
1.51517
1.51541
1.51543
1.51576
1.51574
1.51619
1.51612
1.51667
1.51656
1.5172
1.51707
1.51773
1.51769
1.51825
1.51842
1.51865
1.50218
1.50217
1.50218
1.50222
1.50226
1.50236
1.50242
1.50259
1.50265
1.5029
1.50294
1.5033
1.50331
1.50378
1.50373
1.50433
1.50424
1.50492
1.50482
1.50555
1.5055
1.50615
1.50633
1.50665
1.48942
1.48941
1.48943
1.48947
1.48952
1.48963
1.48969
1.48988
1.48995
1.49023
1.49029
1.49067
1.4907
1.4912
1.49117
1.49181
1.49173
1.49248
1.49238
1.49318
1.49313
1.49387
1.49405
1.49447
1.4765
1.47649
1.47651
1.47656
1.47661
1.47673
1.47681
1.47701
1.4771
1.47739
1.47747
1.47788
1.47792
1.47846
1.47844
1.47913
1.47906
1.47986
1.47976
1.48065
1.48059
1.4814
1.48159
1.48209
1.46343
1.46342
1.46344
1.46349
1.46356
1.46368
1.46377
1.46398
1.46409
1.4644
1.46449
1.46492
1.46498
1.46555
1.46555
1.46628
1.46621
1.46708
1.46697
1.46793
1.46788
1.46876
1.46896
1.46954
1.45021
1.4502
1.45023
1.45028
1.45035
1.45049
1.45059
1.45081
1.45092
1.45125
1.45135
1.45181
1.45188
1.45249
1.45249
1.45327
1.45319
1.45414
1.45402
1.45504
1.455
1.45594
1.45615
1.45681
1.43685
1.43684
1.43687
1.43693
1.43701
1.43715
1.43726
1.43749
1.43762
1.43796
1.43807
1.43856
1.43862
1.43929
1.43927
1.44012
1.44003
1.44102
1.44093
1.44198
1.44197
1.44296
1.44318
1.44391
1.42337
1.42335
1.42339
1.42345
1.42353
1.42368
1.4238
1.42404
1.42417
1.42454
1.42464
1.42518
1.42522
1.42593
1.42592
1.4268
1.42673
1.42775
1.42767
1.42877
1.42878
1.42981
1.43005
1.43085
1.40976
1.40974
1.40978
1.40984
1.40993
1.41008
1.41021
1.41046
1.41059
1.41099
1.41109
1.41165
1.4117
1.41244
1.41243
1.41333
1.41328
1.41433
1.41428
1.4154
1.41543
1.41651
1.41675
1.41762
1.39603
1.39601
1.39606
1.39611
1.39622
1.39636
1.3965
1.39676
1.39689
1.39731
1.39741
1.39799
1.39805
1.3988
1.39881
1.39973
1.39971
1.40077
1.40074
1.40189
1.40193
1.40306
1.40331
1.40424
1.38219
1.38217
1.38222
1.38228
1.38239
1.38253
1.38268
1.38294
1.38309
1.3835
1.38362
1.3842
1.38428
1.38504
1.38507
1.386
1.38599
1.38707
1.38706
1.38824
1.3883
1.38946
1.38972
1.39071
1.36825
1.36823
1.36828
1.36834
1.36845
1.36859
1.36875
1.369
1.36917
1.36958
1.36971
1.3703
1.37039
1.37115
1.3712
1.37214
1.37215
1.37325
1.37326
1.37446
1.37453
1.37573
1.37599
1.37703
1.35421
1.35419
1.35423
1.3543
1.35441
1.35455
1.35472
1.35496
1.35516
1.35554
1.35571
1.35628
1.35639
1.35716
1.35723
1.35817
1.3582
1.3593
1.35933
1.36055
1.36063
1.36186
1.36213
1.36322
1.34007
1.34005
1.3401
1.34016
1.34027
1.34042
1.34059
1.34083
1.34104
1.34141
1.3416
1.34216
1.34229
1.34305
1.34314
1.34408
1.34413
1.34524
1.34528
1.34652
1.34662
1.34788
1.34815
1.34929
1.32584
1.32582
1.32586
1.32593
1.32604
1.32619
1.32636
1.3266
1.32682
1.32718
1.32739
1.32793
1.32809
1.32885
1.32895
1.32989
1.32995
1.33108
1.33113
1.33238
1.33249
1.33377
1.33405
1.33523
1.31152
1.3115
1.31154
1.31161
1.31172
1.31186
1.31204
1.31227
1.3125
1.31286
1.31309
1.31362
1.3138
1.31454
1.31466
1.31561
1.31568
1.31681
1.31688
1.31814
1.31826
1.31956
1.31984
1.32106
1.2971
1.29708
1.29713
1.29719
1.2973
1.29745
1.29763
1.29786
1.2981
1.29845
1.29869
1.29921
1.29941
1.30015
1.30028
1.30123
1.30132
1.30246
1.30253
1.3038
1.30393
1.30525
1.30554
1.30678
1.2826
1.28258
1.28262
1.28269
1.2828
1.28295
1.28313
1.28337
1.28361
1.28395
1.28421
1.28473
1.28494
1.28568
1.28582
1.28678
1.28687
1.28801
1.2881
1.28938
1.28952
1.29086
1.29114
1.29242
1.26801
1.26798
1.26803
1.26809
1.26821
1.26836
1.26854
1.26878
1.26903
1.26937
1.26965
1.27016
1.27039
1.27112
1.27128
1.27224
1.27235
1.2735
1.27359
1.27488
1.27502
1.27638
1.27666
1.27796
1.25332
1.2533
1.25335
1.25341
1.25354
1.25369
1.25388
1.25412
1.25438
1.25472
1.25501
1.25552
1.25577
1.2565
1.25667
1.25764
1.25775
1.2589
1.25901
1.2603
1.26046
1.26182
1.26211
1.26343
1.23856
1.23854
1.23859
1.23865
1.23878
1.23894
1.23914
1.23938
1.23965
1.24
1.24031
1.24081
1.24108
1.2418
1.242
1.24296
1.24308
1.24425
1.24436
1.24566
1.24582
1.24719
1.24748
1.24882
1.22373
1.2237
1.22376
1.22383
1.22396
1.22412
1.22433
1.22458
1.22486
1.22521
1.22554
1.22603
1.22634
1.22704
1.22727
1.22822
1.22836
1.22953
1.22965
1.23095
1.23112
1.23249
1.23278
1.23413
1.20884
1.20882
1.20887
1.20895
1.20908
1.20925
1.20947
1.20973
1.21002
1.21038
1.21072
1.21121
1.21154
1.21223
1.21249
1.21342
1.21358
1.21475
1.21488
1.21617
1.21635
1.21773
1.21801
1.21937
1.19394
1.19391
1.19397
1.19405
1.19418
1.19436
1.19457
1.19484
1.19513
1.1955
1.19585
1.19633
1.19669
1.19736
1.19765
1.19856
1.19876
1.1999
1.20004
1.20134
1.20151
1.20289
1.20317
1.20454
1.17904
1.17902
1.17907
1.17915
1.17928
1.17945
1.17967
1.17994
1.18023
1.18059
1.18094
1.18142
1.18179
1.18244
1.18277
1.18364
1.18387
1.18498
1.18514
1.18643
1.18661
1.18798
1.18825
1.18962
1.16419
1.16416
1.16421
1.16428
1.16441
1.16457
1.16478
1.16504
1.16532
1.16567
1.16602
1.16648
1.16685
1.16748
1.16782
1.16866
1.16892
1.17
1.17017
1.17145
1.17162
1.17299
1.17325
1.17462
1.1494
1.14937
1.14941
1.14947
1.14958
1.14973
1.14992
1.15016
1.15042
1.15075
1.15108
1.15152
1.15188
1.15247
1.15282
1.15362
1.15389
1.15493
1.15512
1.15638
1.15655
1.15791
1.15816
1.15952
1.13467
1.13464
1.13467
1.13472
1.13481
1.13494
1.1351
1.13531
1.13554
1.13584
1.13614
1.13654
1.13687
1.13743
1.13775
1.13851
1.13879
1.13978
1.13999
1.1412
1.14137
1.14273
1.14297
1.14433
1.11997
1.11993
1.11995
1.11999
1.12006
1.12017
1.1203
1.12048
1.12068
1.12093
1.12119
1.12155
1.12185
1.12236
1.12265
1.12335
1.12361
1.12455
1.12474
1.12593
1.12608
1.12744
1.12767
1.12904
1.10523
1.10519
1.1052
1.10522
1.10528
1.10536
1.10547
1.10562
1.10579
1.106
1.10623
1.10654
1.1068
1.10726
1.1075
1.10816
1.10837
1.10927
1.10941
1.11057
1.11068
1.11203
1.11223
1.11362
1.09034
1.09029
1.0903
1.0903
1.09037
1.09042
1.09054
1.09065
1.09081
1.09099
1.0912
1.09147
1.0917
1.09212
1.0923
1.09296
1.09305
1.09398
1.094
1.09516
1.09518
1.09651
1.09667
1.09803
1.07516
1.07511
1.07512
1.07513
1.07519
1.07525
1.07536
1.07547
1.07564
1.07581
1.07602
1.07627
1.0765
1.07688
1.07705
1.0777
1.07771
1.07866
1.07858
1.07975
1.07967
1.08097
1.08105
1.08232
1.05955
1.0595
1.05952
1.05954
1.05961
1.0597
1.05982
1.05996
1.06014
1.06035
1.06057
1.06085
1.0611
1.06147
1.06169
1.06229
1.06234
1.06325
1.06316
1.06431
1.06419
1.06547
1.06548
1.06668
1.04339
1.04335
1.04337
1.04341
1.0435
1.04362
1.04378
1.04397
1.04419
1.04445
1.04473
1.04506
1.04537
1.04579
1.04608
1.04667
1.04684
1.04771
1.04767
1.04884
1.04869
1.05002
1.04998
1.05119
1.02659
1.02654
1.02658
1.02665
1.02677
1.02693
1.02714
1.02738
1.02767
1.028
1.02835
1.02877
1.02917
1.02967
1.03008
1.03073
1.03101
1.03194
1.03199
1.03324
1.0331
1.03453
1.03445
1.03576
1.0091
1.00906
1.00912
1.0092
1.00936
1.00955
1.00982
1.01011
1.01049
1.01087
1.01134
1.01183
1.01236
1.01297
1.01351
1.01429
1.01471
1.01578
1.01594
1.01736
1.01728
1.01888
1.0188
1.02028
0.99096
0.990914
0.990989
0.991086
0.991272
0.991502
0.991809
0.992158
0.992592
0.993053
0.993607
0.994188
0.994833
0.995554
0.996246
0.997144
0.997759
0.998993
0.999336
1.00095
1.00103
1.00288
1.00286
1.00462
0.972221
0.972181
0.972253
0.972373
0.972568
0.972832
0.973159
0.973559
0.974024
0.974557
0.975154
0.97583
0.976546
0.977373
0.978189
0.979186
0.980035
0.98132
0.982
0.983722
0.984098
0.986232
0.98638
0.988573
0.95299
0.952953
0.953024
0.953153
0.953355
0.953632
0.953975
0.954396
0.954885
0.955449
0.956082
0.956801
0.95757
0.958456
0.959351
0.960424
0.961416
0.962736
0.963731
0.965435
0.966233
0.968516
0.968968
0.971725
0.93339
0.933354
0.933422
0.933552
0.933754
0.934033
0.934378
0.934802
0.935297
0.935868
0.936512
0.93724
0.938029
0.93893
0.939857
0.940952
0.942002
0.943342
0.944468
0.946145
0.947244
0.949483
0.950264
0.953466
0.913547
0.913509
0.913573
0.913698
0.913894
0.914165
0.914504
0.914916
0.915404
0.91596
0.916597
0.917308
0.91809
0.91897
0.919892
0.920963
0.922011
0.923325
0.92445
0.926097
0.927208
0.9294
0.930228
0.933427
0.893585
0.893543
0.893601
0.893716
0.893903
0.894159
0.894484
0.894876
0.895347
0.895876
0.896492
0.897168
0.897924
0.898762
0.899655
0.900672
0.901688
0.902937
0.904007
0.905598
0.906596
0.908742
0.90944
0.912376
0.873607
0.873559
0.873611
0.873715
0.87389
0.874127
0.874434
0.874799
0.875246
0.87574
0.876327
0.876958
0.87768
0.878461
0.879313
0.880262
0.88123
0.882391
0.883407
0.884895
0.885816
0.887836
0.888475
0.891193
0.853705
0.853651
0.853697
0.853787
0.853949
0.854164
0.854452
0.854785
0.855207
0.855658
0.856215
0.856792
0.857478
0.858193
0.859
0.859873
0.860786
0.861855
0.862808
0.864189
0.865039
0.866911
0.867509
0.87002
0.833952
0.83389
0.833935
0.834004
0.834159
0.834345
0.834618
0.834912
0.835315
0.835712
0.836247
0.836755
0.837415
0.838049
0.838821
0.839604
0.840468
0.841434
0.84233
0.843601
0.844387
0.846103
0.846667
0.848969
0.814407
0.814341
0.814385
0.814433
0.814582
0.814735
0.814999
0.815246
0.815637
0.815971
0.816493
0.81692
0.817567
0.818102
0.818857
0.81953
0.820361
0.821222
0.822054
0.823217
0.823948
0.825503
0.826039
0.828133
0.795124
0.795054
0.795091
0.795128
0.795259
0.795394
0.795631
0.795851
0.796209
0.796503
0.796989
0.79736
0.797971
0.798429
0.79915
0.799724
0.80052
0.801269
0.80206
0.803097
0.803783
0.805175
0.805686
0.807575
0.776142
0.77607
0.776095
0.776129
0.776233
0.776362
0.77656
0.776769
0.777076
0.777354
0.777777
0.778124
0.778664
0.779085
0.779735
0.78025
0.780981
0.781636
0.782389
0.783286
0.783939
0.785172
0.785661
0.787348
0.757491
0.757417
0.757432
0.75746
0.757544
0.75766
0.757828
0.758018
0.758283
0.758538
0.758907
0.759225
0.7597
0.760085
0.760662
0.761125
0.761789
0.762358
0.76307
0.76382
0.764455
0.765531
0.765999
0.76749
0.739195
0.739122
0.739127
0.739148
0.739215
0.739316
0.739458
0.739626
0.739857
0.740082
0.740407
0.740689
0.741109
0.74145
0.741966
0.74237
0.742973
0.743462
0.744124
0.744747
0.745364
0.746283
0.746731
0.74803
0.721277
0.721203
0.721201
0.721214
0.721266
0.721351
0.721471
0.721614
0.721815
0.722008
0.722295
0.722538
0.722911
0.723203
0.723664
0.72401
0.724554
0.724965
0.725574
0.726086
0.726688
0.727443
0.727878
0.728989
0.703752
0.703677
0.703668
0.703674
0.703711
0.703782
0.703879
0.704001
0.704172
0.704335
0.704585
0.70479
0.705119
0.705365
0.705775
0.706062
0.706552
0.706889
0.707444
0.707858
0.708432
0.709033
0.70946
0.710389
0.68663
0.686555
0.686542
0.686538
0.686565
0.686617
0.686699
0.686795
0.686942
0.687074
0.687291
0.687457
0.687745
0.687945
0.688308
0.688539
0.688977
0.689245
0.689747
0.690072
0.690607
0.691068
0.691485
0.692243
0.669923
0.669848
0.669827
0.669822
0.669829
0.669876
0.66993
0.670013
0.670129
0.670235
0.670419
0.67055
0.670799
0.670955
0.671273
0.67145
0.671839
0.672041
0.672495
0.672735
0.673227
0.673559
0.673968
0.674565
0.653634
0.653559
0.653537
0.653516
0.653526
0.653544
0.653597
0.653645
0.653748
0.653821
0.653978
0.654073
0.654286
0.6544
0.654676
0.654801
0.655144
0.655283
0.655687
0.65585
0.656296
0.656519
0.656917
0.65736
0.63777
0.637696
0.637665
0.637649
0.637633
0.637657
0.637674
0.637721
0.637788
0.637844
0.637967
0.638033
0.638211
0.638284
0.638521
0.638598
0.638897
0.638975
0.639336
0.639421
0.639826
0.639951
0.640337
0.640628
0.62233
0.622256
0.62223
0.622191
0.62219
0.622173
0.622204
0.622208
0.622274
0.622292
0.622396
0.622427
0.622575
0.622609
0.622809
0.62284
0.623098
0.62312
0.623437
0.623455
0.623817
0.623854
0.624219
0.624371
0.607319
0.607248
0.607208
0.607183
0.607147
0.60715
0.607136
0.60715
0.607175
0.607186
0.607256
0.607262
0.607377
0.607377
0.607541
0.607528
0.607748
0.607716
0.607995
0.607945
0.608272
0.608227
0.608564
0.608589
0.592732
0.592659
0.59263
0.592573
0.592567
0.592516
0.592533
0.592492
0.592529
0.592497
0.592556
0.592529
0.592618
0.592584
0.592715
0.592661
0.592844
0.592763
0.593002
0.592892
0.593181
0.593057
0.593368
0.593279
0.578569
0.578502
0.578455
0.578423
0.578368
0.578356
0.578312
0.5783
0.578285
0.578258
0.57828
0.578235
0.578294
0.578229
0.578329
0.578237
0.578385
0.578257
0.578461
0.578292
0.578547
0.578348
0.578629
0.578439
0.564827
0.564755
0.564726
0.564653
0.564643
0.564562
0.564568
0.564487
0.5645
0.564424
0.564444
0.564366
0.564404
0.564308
0.56438
0.564252
0.564368
0.564196
0.564365
0.564142
0.564365
0.564095
0.564352
0.564066
0.551499
0.551437
0.551384
0.551347
0.551276
0.551252
0.551182
0.551147
0.551099
0.551039
0.551019
0.55093
0.55094
0.550819
0.550863
0.550702
0.550789
0.550575
0.550715
0.55044
0.550635
0.550298
0.550535
0.550159
0.538585
0.538515
0.538486
0.538402
0.538386
0.538284
0.538276
0.538166
0.538155
0.538043
0.538029
0.537907
0.537902
0.537753
0.537773
0.537581
0.53764
0.53739
0.537501
0.537179
0.537348
0.536951
0.53717
0.536711
0.526073
0.526014
0.52596
0.525914
0.525838
0.525794
0.525711
0.525651
0.525579
0.525487
0.525435
0.525306
0.525276
0.525106
0.525103
0.524883
0.524918
0.524631
0.524718
0.524353
0.524499
0.524045
0.524251
0.523715
0.513963
0.513896
0.513864
0.513778
0.513747
0.51364
0.513608
0.513484
0.513445
0.513309
0.513262
0.513105
0.513062
0.512869
0.512846
0.512599
0.512611
0.512294
0.512357
0.511951
0.512077
0.511573
0.511765
0.511159
0.502239
0.502184
0.502132
0.502074
0.502001
0.501932
0.501848
0.501757
0.501673
0.50155
0.501473
0.50131
0.501246
0.501035
0.500993
0.500723
0.500714
0.500367
0.500409
0.499968
0.500075
0.499523
0.499703
0.499035
0.490904
0.490843
0.490804
0.490725
0.490673
0.490572
0.490509
0.490385
0.490313
0.490162
0.490084
0.4899
0.489825
0.489595
0.489536
0.489244
0.489216
0.488843
0.488865
0.48839
0.48848
0.487886
0.488056
0.487326
0.47994
0.479887
0.479839
0.479769
0.479703
0.479609
0.47953
0.479408
0.479319
0.479164
0.479071
0.478876
0.478786
0.47854
0.478465
0.478153
0.478108
0.47771
0.477715
0.477211
0.477284
0.476651
0.476812
0.476028
0.469347
0.469293
0.469247
0.469175
0.469105
0.46901
0.468921
0.468798
0.468697
0.468537
0.468431
0.468225
0.468122
0.467862
0.467771
0.467442
0.46738
0.466961
0.466948
0.466416
0.466475
0.465807
0.465955
0.465129
0.459111
0.45906
0.459015
0.458938
0.458874
0.458764
0.458684
0.458541
0.458445
0.458267
0.458158
0.457938
0.457825
0.45755
0.457446
0.457101
0.457024
0.456585
0.456556
0.456
0.456044
0.455343
0.455483
0.454614
0.449226
0.449178
0.449129
0.449059
0.448981
0.448883
0.448782
0.448651
0.448534
0.448359
0.448234
0.448009
0.447883
0.447597
0.44748
0.44712
0.447028
0.446572
0.446528
0.445949
0.44598
0.445251
0.445379
0.444473
0.439683
0.439636
0.439591
0.439514
0.439443
0.439331
0.43924
0.43909
0.438979
0.438788
0.438662
0.438424
0.43829
0.437992
0.437864
0.43749
0.437386
0.436914
0.436855
0.436258
0.436274
0.435518
0.435638
0.434697
0.430473
0.430429
0.430382
0.430307
0.430233
0.430121
0.430023
0.429872
0.429752
0.429559
0.429423
0.429178
0.429035
0.428728
0.428589
0.428203
0.428086
0.4276
0.427528
0.426913
0.426916
0.426138
0.426248
0.425271
0.421589
0.421547
0.421498
0.421427
0.421344
0.421239
0.421129
0.420983
0.420853
0.420657
0.420513
0.420262
0.420111
0.419794
0.419646
0.419249
0.419122
0.418623
0.418538
0.417909
0.417898
0.417101
0.4172
0.416196
0.413019
0.412978
0.412935
0.412853
0.412785
0.412659
0.412567
0.412398
0.41228
0.412068
0.411926
0.411664
0.411508
0.411183
0.411027
0.41062
0.410483
0.409972
0.409878
0.409234
0.409212
0.408399
0.408487
0.407458
0.404758
0.404721
0.40467
0.404603
0.404513
0.404412
0.404289
0.404144
0.404
0.4038
0.403643
0.403381
0.403217
0.402884
0.402722
0.402305
0.402162
0.40164
0.401538
0.400881
0.400852
0.400023
0.400105
0.399057
0.396796
0.396757
0.396716
0.396632
0.396565
0.396434
0.396339
0.396164
0.39604
0.395819
0.395669
0.395395
0.39523
0.394889
0.394722
0.394296
0.394148
0.393614
0.393509
0.392838
0.392805
0.391961
0.392039
0.390978
0.389123
0.389089
0.38904
0.388971
0.388884
0.388774
0.388655
0.388498
0.388354
0.388143
0.387981
0.387708
0.387535
0.38719
0.387018
0.386585
0.386432
0.385889
0.385779
0.385097
0.385061
0.384205
0.384279
0.383207
0.381733
0.381698
0.381655
0.381578
0.3815
0.381379
0.381269
0.381101
0.380963
0.380743
0.380582
0.380302
0.380127
0.379776
0.3796
0.379161
0.379003
0.378453
0.378338
0.377648
0.377608
0.376741
0.376811
0.375731
0.374616
0.374583
0.374541
0.374462
0.374388
0.37426
0.374156
0.37398
0.373845
0.373619
0.373457
0.373173
0.372995
0.37264
0.37246
0.372016
0.371854
0.371298
0.371178
0.370481
0.370435
0.369563
0.369627
0.368538
0.367764
0.367735
0.367687
0.36762
0.367528
0.367422
0.367294
0.367137
0.366984
0.366767
0.366596
0.366313
0.366131
0.365772
0.365588
0.365141
0.364973
0.364413
0.364288
0.363587
0.363534
0.362657
0.362715
0.361619
0.361172
0.36114
0.361103
0.361017
0.360952
0.360813
0.360718
0.360529
0.3604
0.360163
0.360002
0.35971
0.359528
0.359165
0.358978
0.358527
0.358356
0.357793
0.357662
0.356957
0.356898
0.356017
0.35607
0.354967
0.354827
0.354802
0.354752
0.354689
0.354594
0.354489
0.354358
0.354201
0.354044
0.353825
0.35365
0.353362
0.353175
0.352811
0.352621
0.352167
0.351991
0.351425
0.35129
0.350582
0.350517
0.349633
0.34968
0.348574
0.348728
0.348698
0.348661
0.348579
0.34851
0.348375
0.348273
0.348088
0.347953
0.347716
0.34755
0.347255
0.347069
0.346701
0.346509
0.346052
0.345874
0.345306
0.345166
0.344456
0.344388
0.343497
0.343542
0.342431
0.342861
0.342836
0.342792
0.342722
0.342638
0.34252
0.342402
0.34223
0.342083
0.341853
0.341681
0.341386
0.341198
0.340828
0.340635
0.340176
0.339996
0.339424
0.339281
0.338569
0.338499
0.337602
0.337644
0.336532
0.337225
0.337199
0.337158
0.337085
0.337005
0.336884
0.336767
0.336594
0.336447
0.336215
0.336044
0.335747
0.335559
0.335186
0.334993
0.33453
0.334349
0.333775
0.333632
0.332917
0.332841
0.331948
0.331983
0.33087
0.331808
0.331784
0.331745
0.331668
0.331595
0.331464
0.331359
0.331174
0.331037
0.330796
0.330631
0.330328
0.330143
0.329766
0.329575
0.329108
0.328928
0.328351
0.328207
0.327489
0.327411
0.326518
0.32655
0.325438
0.326607
0.326585
0.326542
0.326473
0.32639
0.326272
0.326153
0.325981
0.325833
0.3256
0.32543
0.325127
0.324943
0.324563
0.324374
0.323903
0.323726
0.323143
0.323004
0.32228
0.322208
0.321308
0.32134
0.320229
0.321615
0.321591
0.321554
0.321477
0.321405
0.321275
0.321169
0.320984
0.320848
0.320605
0.320442
0.320133
0.319953
0.319568
0.319384
0.318907
0.318736
0.318147
0.318011
0.317283
0.317215
0.316311
0.316344
0.315236
0.316824
0.316802
0.316762
0.316691
0.316613
0.31649
0.316378
0.316198
0.316059
0.315816
0.315655
0.315343
0.315168
0.314777
0.314599
0.314115
0.313951
0.313353
0.313227
0.31249
0.312431
0.311523
0.311556
0.310454
0.31223
0.312208
0.31217
0.312096
0.312022
0.311895
0.311788
0.311604
0.311468
0.311223
0.311065
0.310749
0.310578
0.310182
0.310011
0.30952
0.309364
0.308759
0.308642
0.307895
0.307844
0.306934
0.306968
0.305871
0.307825
0.307804
0.307767
0.307693
0.30762
0.307492
0.307387
0.307201
0.307069
0.30682
0.306666
0.306346
0.306181
0.305779
0.305614
0.305117
0.304969
0.304356
0.304247
0.303497
0.30345
0.302539
0.302573
0.301482
0.303606
0.303586
0.303548
0.303475
0.303402
0.303275
0.303169
0.302984
0.302853
0.302603
0.302451
0.302129
0.301967
0.301563
0.301402
0.300901
0.300758
0.300141
0.300039
0.299282
0.299241
0.298329
0.298363
0.297275
0.299566
0.299545
0.29951
0.299434
0.299365
0.299234
0.299134
0.298944
0.298818
0.298563
0.298418
0.298091
0.297935
0.297525
0.297372
0.296864
0.296731
0.296104
0.296012
0.29525
0.295212
0.294301
0.294334
0.293251
0.2957
0.29568
0.295644
0.29557
0.2955
0.29537
0.29527
0.29508
0.294956
0.294699
0.294559
0.294226
0.294078
0.293661
0.293518
0.292999
0.292879
0.292243
0.29216
0.291394
0.291359
0.29045
0.290481
0.289405
0.292003
0.291983
0.291949
0.291873
0.291806
0.291673
0.291579
0.291382
0.291266
0.291002
0.29087
0.290529
0.290393
0.289964
0.289834
0.289305
0.289196
0.288554
0.288476
0.28771
0.287676
0.286771
0.2868
0.285731
0.288472
0.288451
0.288417
0.288342
0.288276
0.288141
0.288049
0.287852
0.28774
0.28747
0.287347
0.286997
0.286873
0.286432
0.286316
0.285777
0.285678
0.28503
0.284958
0.284191
0.284159
0.283257
0.283284
0.282223
0.285099
0.285078
0.285047
0.284967
0.284909
0.284765
0.284685
0.284474
0.284378
0.284094
0.283986
0.283624
0.283512
0.283063
0.282956
0.282411
0.282317
0.281669
0.281598
0.280834
0.280802
0.279905
0.279929
0.278877
0.281883
0.281863
0.281829