/*--------------------------------*- C++ -*----------------------------------*\
  =========                 |
  \\      /  F ield         | OpenFOAM: The Open Source CFD Toolbox
   \\    /   O peration     | Website:  https://openfoam.org
    \\  /    A nd           | Version:  10
     \\/     M anipulation  |
\*---------------------------------------------------------------------------*/
FoamFile
{
    format      ascii;
    class       volScalarField;
    location    "0.16";
    object      p;
}
// * * * * * * * * * * * * * * * * * * * * * * * * * * * * * * * * * * * * * //

dimensions      [1 -1 -2 0 0 0 0];

internalField   nonuniform List<scalar> 
4176
(
1600.87
1601.07
1601.58
1602.2
1603.27
1604.29
1605.92
1607.31
1609.51
1611.29
1613.99
1616.21
1619.34
1622.1
1625.47
1628.97
1632.26
1636.91
1639.85
1645.85
1648.19
1655.82
1657.01
1665.74
1601.34
1601.53
1602
1602.61
1603.57
1604.57
1606.03
1607.41
1609.38
1611.12
1613.59
1615.72
1618.63
1621.23
1624.42
1627.66
1630.81
1635.08
1637.91
1643.46
1645.57
1653.02
1654.26
1664.04
1602.59
1602.79
1603.26
1603.88
1604.86
1605.88
1607.38
1608.77
1610.79
1612.56
1615.09
1617.25
1620.23
1622.86
1626.16
1629.43
1632.7
1637.07
1639.88
1645.59
1647.68
1655.01
1656.16
1665.62
1604.53
1604.72
1605.18
1605.79
1606.75
1607.75
1609.22
1610.58
1612.58
1614.29
1616.8
1618.88
1621.86
1624.39
1627.68
1630.85
1634.11
1638.51
1641.03
1646.92
1648.86
1656.09
1657.16
1666.02
1607.24
1607.43
1607.89
1608.5
1609.46
1610.45
1611.91
1613.28
1615.26
1616.98
1619.47
1621.56
1624.51
1627.04
1630.34
1633.46
1636.84
1641.05
1643.75
1649.54
1651.56
1658.75
1659.9
1668.75
1610.69
1610.88
1611.33
1611.94
1612.88
1613.87
1615.3
1616.66
1618.6
1620.32
1622.77
1624.85
1627.76
1630.27
1633.54
1636.59
1640.01
1644.02
1646.95
1652.49
1654.57
1661.69
1662.91
1671.84
1614.9
1615.08
1615.53
1616.14
1617.06
1618.05
1619.47
1620.82
1622.74
1624.45
1626.87
1628.94
1631.82
1634.3
1637.56
1640.56
1644
1647.88
1650.9
1656.29
1658.46
1665.46
1666.72
1675.54
1619.85
1620.04
1620.48
1621.08
1622
1622.98
1624.38
1625.72
1627.61
1629.3
1631.69
1633.74
1636.59
1639.03
1642.27
1645.22
1648.66
1652.42
1655.52
1660.72
1662.98
1669.87
1671.17
1679.89
1625.57
1625.76
1626.19
1626.79
1627.69
1628.66
1630.05
1631.37
1633.25
1634.92
1637.28
1639.3
1642.13
1644.53
1647.75
1650.64
1654.08
1657.72
1660.89
1665.92
1668.24
1675
1676.34
1684.94
1632.05
1632.23
1632.66
1633.25
1634.15
1635.11
1636.47
1637.78
1639.64
1641.28
1643.62
1645.61
1648.4
1650.77
1653.96
1656.79
1660.22
1663.75
1666.97
1671.83
1674.22
1680.83
1682.2
1690.67
1639.29
1639.48
1639.9
1640.49
1641.37
1642.32
1643.67
1644.96
1646.79
1648.41
1650.72
1652.68
1655.44
1657.76
1660.92
1663.69
1667.1
1670.53
1673.79
1678.48
1680.95
1687.36
1688.78
1697.11
1647.31
1647.5
1647.92
1648.49
1649.37
1650.3
1651.63
1652.91
1654.71
1656.31
1658.58
1660.51
1663.24
1665.51
1668.64
1671.34
1674.74
1678.06
1681.35
1685.88
1688.39
1694.64
1696.08
1704.26
1656.12
1656.3
1656.72
1657.28
1658.14
1659.06
1660.37
1661.63
1663.41
1664.98
1667.22
1669.11
1671.8
1674.03
1677.12
1679.76
1683.12
1686.35
1689.65
1694.02
1696.58
1702.65
1704.1
1712.13
1665.72
1665.9
1666.31
1666.87
1667.71
1668.61
1669.91
1671.14
1672.89
1674.43
1676.64
1678.49
1681.14
1683.32
1686.37
1688.94
1692.27
1695.4
1698.71
1702.92
1705.52
1711.41
1712.86
1720.72
1676.12
1676.3
1676.7
1677.25
1678.08
1678.97
1680.23
1681.44
1683.16
1684.67
1686.84
1688.65
1691.27
1693.39
1696.4
1698.9
1702.19
1705.22
1708.53
1712.57
1715.2
1720.91
1722.37
1730.06
1687.33
1687.51
1687.9
1688.44
1689.26
1690.13
1691.37
1692.55
1694.23
1695.71
1697.84
1699.61
1702.18
1704.25
1707.21
1709.64
1712.89
1715.82
1719.12
1722.99
1725.66
1731.16
1732.65
1740.14
1699.37
1699.54
1699.93
1700.46
1701.26
1702.11
1703.32
1704.48
1706.13
1707.57
1709.65
1711.37
1713.89
1715.9
1718.82
1721.17
1724.38
1727.21
1730.48
1734.19
1736.88
1742.18
1743.7
1750.99
1712.24
1712.41
1712.79
1713.31
1714.09
1714.92
1716.11
1717.23
1718.84
1720.24
1722.28
1723.95
1726.42
1728.37
1731.23
1733.5
1736.66
1739.39
1742.63
1746.17
1748.88
1753.98
1755.52
1762.6
1725.96
1726.13
1726.5
1727.01
1727.77
1728.57
1729.73
1730.82
1732.4
1733.75
1735.75
1737.36
1739.77
1741.65
1744.45
1746.64
1749.75
1752.37
1755.57
1758.95
1761.68
1766.57
1768.13
1774.99
1740.55
1740.72
1741.08
1741.57
1742.3
1743.09
1744.21
1745.27
1746.8
1748.11
1750.05
1751.61
1753.96
1755.77
1758.51
1760.61
1763.65
1766.17
1769.33
1772.54
1775.28
1779.95
1781.54
1788.18
1756.01
1756.17
1756.52
1757
1757.71
1758.47
1759.56
1760.58
1762.07
1763.33
1765.22
1766.72
1769
1770.74
1773.4
1775.42
1778.39
1780.79
1783.9
1786.96
1789.69
1794.15
1795.75
1802.16
1772.36
1772.52
1772.86
1773.32
1774.01
1774.74
1775.8
1776.78
1778.21
1779.42
1781.25
1782.69
1784.91
1786.57
1789.16
1791.08
1793.98
1796.26
1799.31
1802.21
1804.93
1809.16
1810.78
1816.96
1789.61
1789.77
1790.1
1790.54
1791.21
1791.91
1792.92
1793.86
1795.25
1796.41
1798.18
1799.54
1801.69
1803.27
1805.79
1807.61
1810.43
1812.59
1815.57
1818.31
1821.01
1825.02
1826.65
1832.58
1807.78
1807.94
1808.25
1808.68
1809.32
1809.98
1810.96
1811.85
1813.19
1814.29
1816
1817.29
1819.37
1820.86
1823.3
1825.02
1827.76
1829.8
1832.7
1835.28
1837.96
1841.72
1843.36
1849.03
1826.89
1827.04
1827.34
1827.75
1828.36
1828.99
1829.93
1830.77
1832.05
1833.09
1834.73
1835.95
1837.96
1839.36
1841.72
1843.33
1845.99
1847.9
1850.72
1853.13
1855.77
1859.31
1860.93
1866.33
1846.93
1847.09
1847.37
1847.76
1848.34
1848.94
1849.83
1850.63
1851.85
1852.83
1854.4
1855.54
1857.47
1858.78
1861.05
1862.56
1865.12
1866.9
1869.64
1871.88
1874.48
1877.78
1879.38
1884.52
1867.94
1868.09
1868.36
1868.73
1869.28
1869.85
1870.7
1871.44
1872.61
1873.52
1875.02
1876.08
1877.92
1879.13
1881.32
1882.71
1885.18
1886.83
1889.48
1891.56
1894.09
1897.15
1898.75
1903.62
1889.92
1890.07
1890.32
1890.67
1891.2
1891.73
1892.53
1893.23
1894.33
1895.17
1896.6
1897.57
1899.33
1900.45
1902.54
1903.81
1906.19
1907.7
1910.25
1912.17
1914.63
1917.44
1919.03
1923.62
1912.89
1913.03
1913.28
1913.61
1914.1
1914.59
1915.35
1915.99
1917.04
1917.81
1919.16
1920.05
1921.72
1922.73
1924.73
1925.88
1928.16
1929.52
1931.98
1933.72
1936.11
1938.66
1940.23
1944.56
1936.87
1937.01
1937.24
1937.54
1938.01
1938.46
1939.17
1939.76
1940.75
1941.45
1942.72
1943.52
1945.11
1946.01
1947.91
1948.93
1951.11
1952.33
1954.68
1956.25
1958.56
1960.86
1962.41
1966.42
1961.87
1962
1962.22
1962.5
1962.93
1963.35
1964.02
1964.55
1965.47
1966.1
1967.3
1968.01
1969.51
1970.3
1972.1
1973
1975.06
1976.13
1978.38
1979.77
1981.99
1984.04
1985.58
1989.25
1987.91
1988.04
1988.24
1988.5
1988.9
1989.28
1989.9
1990.38
1991.23
1991.79
1992.91
1993.54
1994.94
1995.62
1997.32
1998.08
2000.04
2000.95
2003.09
2004.3
2006.42
2008.23
2009.75
2013.1
2015
2015.13
2015.31
2015.55
2015.92
2016.26
2016.83
2017.25
2018.04
2018.53
2019.57
2020.11
2021.42
2021.99
2023.59
2024.22
2026.07
2026.82
2028.84
2029.86
2031.87
2033.46
2034.94
2037.95
2043.17
2043.29
2043.46
2043.68
2044.01
2044.32
2044.83
2045.2
2045.93
2046.34
2047.3
2047.74
2048.97
2049.43
2050.92
2051.42
2053.16
2053.75
2055.66
2056.48
2058.39
2059.73
2061.18
2063.85
2072.42
2072.54
2072.69
2072.89
2073.19
2073.46
2073.93
2074.24
2074.9
2075.24
2076.12
2076.47
2077.6
2077.95
2079.34
2079.71
2081.34
2081.77
2083.56
2084.19
2085.98
2087.08
2088.48
2090.8
2102.78
2102.9
2103.04
2103.22
2103.49
2103.72
2104.13
2104.39
2104.99
2105.25
2106.05
2106.3
2107.34
2107.58
2108.87
2109.09
2110.61
2110.88
2112.56
2113
2114.68
2115.53
2116.86
2118.83
2134.27
2134.38
2134.51
2134.67
2134.91
2135.1
2135.47
2135.67
2136.2
2136.39
2137.11
2137.27
2138.22
2138.33
2139.52
2139.6
2141.01
2141.12
2142.69
2142.93
2144.5
2145.12
2146.35
2147.96
2166.91
2167.02
2167.13
2167.27
2167.48
2167.63
2167.95
2168.1
2168.56
2168.68
2169.32
2169.38
2170.24
2170.23
2171.31
2171.25
2172.55
2172.49
2173.94
2173.99
2175.45
2175.83
2176.98
2178.23
2200.71
2200.82
2200.92
2201.04
2201.21
2201.33
2201.6
2201.7
2202.1
2202.14
2202.7
2202.67
2203.43
2203.31
2204.28
2204.08
2205.26
2205.02
2206.36
2206.2
2207.56
2207.7
2208.76
2209.65
2235.71
2235.82
2235.9
2236
2236.14
2236.22
2236.45
2236.48
2236.82
2236.79
2237.28
2237.15
2237.81
2237.57
2238.44
2238.09
2239.16
2238.74
2239.97
2239.6
2240.84
2240.73
2241.71
2242.28
2271.93
2272.03
2272.09
2272.18
2272.29
2272.33
2272.5
2272.49
2272.76
2272.65
2273.06
2272.84
2273.41
2273.05
2273.82
2273.31
2274.28
2273.67
2274.79
2274.19
2275.32
2274.96
2275.83
2276.11
2309.38
2309.47
2309.53
2309.59
2309.67
2309.67
2309.8
2309.72
2309.93
2309.75
2310.07
2309.75
2310.23
2309.75
2310.42
2309.77
2310.63
2309.84
2310.84
2310.02
2311.04
2310.4
2311.18
2311.13
2348.09
2348.18
2348.22
2348.26
2348.31
2348.27
2348.35
2348.22
2348.36
2348.1
2348.34
2347.93
2348.31
2347.71
2348.28
2347.47
2348.23
2347.25
2348.16
2347.09
2348.03
2347.1
2347.8
2347.38
2388.08
2388.18
2388.2
2388.22
2388.23
2388.16
2388.18
2387.99
2388.06
2387.73
2387.89
2387.37
2387.66
2386.94
2387.4
2386.44
2387.1
2385.92
2386.74
2385.44
2386.29
2385.06
2385.7
2384.91
2429.39
2429.48
2429.49
2429.48
2429.46
2429.35
2429.32
2429.07
2429.07
2428.66
2428.73
2428.12
2428.31
2427.46
2427.82
2426.71
2427.25
2425.89
2426.61
2425.07
2425.84
2424.32
2424.9
2423.74
2472.02
2472.1
2472.1
2472.07
2472.01
2471.86
2471.78
2471.47
2471.4
2470.91
2470.9
2470.18
2470.28
2469.3
2469.55
2468.28
2468.72
2467.16
2467.78
2465.99
2466.71
2464.86
2465.41
2463.86
2515.99
2516.08
2516.06
2516.01
2515.91
2515.72
2515.58
2515.22
2515.08
2514.5
2514.41
2513.59
2513.58
2512.47
2512.62
2511.19
2511.52
2509.76
2510.29
2508.24
2508.9
2506.73
2507.28
2505.29
2561.34
2561.42
2561.38
2561.31
2561.18
2560.95
2560.75
2560.33
2560.11
2559.46
2559.27
2558.35
2558.24
2557.01
2557.04
2555.45
2555.68
2553.7
2554.15
2551.83
2552.43
2549.92
2550.48
2548.08
2608.06
2608.14
2608.09
2607.99
2607.83
2607.55
2607.3
2606.82
2606.53
2605.79
2605.52
2604.49
2604.28
2602.91
2602.85
2601.08
2601.21
2599.02
2599.39
2596.78
2597.35
2594.44
2595.07
2592.23
2656.18
2656.26
2656.19
2656.07
2655.87
2655.55
2655.25
2654.7
2654.34
2653.52
2653.16
2652.02
2651.72
2650.21
2650.04
2648.1
2648.14
2645.72
2646.03
2643.12
2643.68
2640.37
2641.02
2637.76
2705.71
2705.78
2705.7
2705.56
2705.32
2704.97
2704.6
2703.99
2703.56
2702.66
2702.21
2700.96
2700.57
2698.91
2698.66
2696.52
2696.49
2693.82
2694.09
2690.86
2691.45
2687.7
2688.36
2684.71
2756.66
2756.73
2756.63
2756.47
2756.19
2755.8
2755.38
2754.71
2754.21
2753.21
2752.69
2751.32
2750.84
2749.03
2748.7
2746.36
2746.28
2743.34
2743.59
2739.98
2740.63
2736.51
2737.14
2733.09
2809.03
2809.09
2808.98
2808.8
2808.48
2808.05
2807.58
2806.85
2806.28
2805.2
2804.6
2803.11
2802.56
2800.58
2800.19
2797.63
2797.53
2794.29
2794.57
2790.58
2791.22
2786.77
2787.35
2782.93
2862.82
2862.89
2862.76
2862.56
2862.21
2861.74
2861.21
2860.42
2859.79
2858.62
2857.95
2856.34
2855.73
2853.57
2853.15
2850.34
2850.25
2846.65
2847.01
2842.68
2843.25
2838.51
2839.03
2834.24
2918.05
2918.11
2917.97
2917.75
2917.36
2916.86
2916.29
2915.44
2914.74
2913.48
2912.77
2911.01
2910.38
2908
2907.6
2904.48
2904.47
2900.54
2900.84
2896.28
2896.76
2891.74
2892.2
2887.04
2974.7
2974.77
2974.61
2974.37
2973.95
2973.42
2972.79
2971.89
2971.15
2969.78
2969.05
2967.11
2966.51
2963.87
2963.52
2960.12
2960.07
2955.95
2956.15
2951.37
2951.76
2946.46
2946.86
2941.34
3032.77
3032.85
3032.67
3032.43
3031.97
3031.42
3030.74
3029.78
3029.01
3027.51
3026.8
3024.64
3024.09
3021.23
3020.86
3017.3
3017.15
3012.86
3012.95
3007.97
3008.27
3002.7
3003.04
2997.17
3092.28
3092.36
3092.14
3091.92
3091.41
3090.85
3090.12
3089.09
3088.33
3086.69
3085.98
3083.7
3083.08
3080.12
3079.65
3075.97
3075.71
3071.27
3071.26
3066.08
3066.28
3060.46
3060.74
3054.54
3153.2
3153.28
3153.05
3152.83
3152.27
3151.72
3150.92
3149.87
3149.05
3147.36
3146.59
3144.23
3143.53
3140.48
3139.92
3136.13
3135.76
3131.19
3131.07
3125.7
3125.81
3119.75
3119.97
3113.44
3215.53
3215.62
3215.38
3215.15
3214.58
3213.99
3213.14
3212.12
3211.19
3209.48
3208.64
3206.22
3205.45
3202.31
3201.66
3197.77
3197.31
3192.6
3192.38
3186.85
3186.87
3180.58
3180.73
3173.89
3279.28
3279.38
3279.14
3278.88
3278.3
3277.7
3276.8
3275.8
3274.74
3273.09
3272.11
3269.67
3268.83
3265.62
3264.88
3260.9
3260.34
3255.51
3255.2
3249.5
3249.44
3242.93
3243.03
3235.88
3344.45
3344.54
3344.31
3344.04
3343.45
3342.83
3341.91
3340.89
3339.74
3338.14
3337.01
3334.6
3333.65
3330.39
3329.57
3325.51
3324.87
3319.92
3319.52
3313.66
3313.52
3306.8
3306.84
3299.41
3411.03
3411.13
3410.9
3410.62
3410.02
3409.39
3408.44
3407.41
3406.19
3404.61
3403.36
3400.99
3399.89
3396.63
3395.73
3391.59
3390.86
3385.8
3385.32
3379.32
3379.1
3372.19
3372.18
3364.47
3479.05
3479.15
3478.91
3478.63
3478.02
3477.38
3476.4
3475.37
3474.09
3472.52
3471.17
3468.83
3467.61
3464.33
3463.33
3459.12
3458.32
3453.16
3452.6
3446.46
3446.17
3439.07
3439.01
3431.05
3548.5
3548.6
3548.36
3548.08
3547.46
3546.81
3545.81
3544.76
3543.44
3541.88
3540.44
3538.09
3536.78
3533.48
3532.39
3528.11
3527.23
3521.97
3521.34
3515.07
3514.7
3507.43
3507.32
3499.12
3619.4
3619.52
3619.27
3618.99
3618.35
3617.69
3616.66
3615.6
3614.22
3612.67
3611.14
3608.79
3607.38
3604.06
3602.88
3598.52
3597.58
3592.21
3591.51
3585.12
3584.68
3577.25
3577.08
3568.67
3691.78
3691.9
3691.64
3691.36
3690.7
3690.03
3688.97
3687.88
3686.46
3684.89
3683.27
3680.92
3679.41
3676.04
3674.79
3670.34
3669.34
3663.87
3663.09
3656.59
3656.08
3648.51
3648.28
3639.66
3765.64
3765.77
3765.5
3765.21
3764.52
3763.83
3762.73
3761.61
3760.13
3758.53
3756.81
3754.46
3752.83
3749.43
3748.1
3743.55
3742.5
3736.92
3736.08
3729.46
3728.88
3721.17
3720.89
3712.09
3840.97
3841.11
3840.82
3840.52
3839.79
3839.07
3837.92
3836.77
3835.22
3833.58
3831.74
3829.39
3827.63
3824.21
3822.78
3818.14
3817.03
3811.35
3810.43
3803.71
3803.05
3795.23
3794.9
3785.93
3917.75
3917.89
3917.58
3917.26
3916.5
3915.73
3914.53
3913.32
3911.69
3910.01
3908.05
3905.7
3903.76
3900.37
3898.78
3894.1
3892.92
3887.13
3886.14
3879.33
3878.6
3870.68
3870.29
3861.18
3995.89
3996.03
3995.71
3995.36
3994.56
3993.74
3992.49
3991.21
3989.52
3987.77
3985.71
3983.34
3981.22
3977.87
3976.06
3971.45
3970.12
3964.24
3963.2
3956.31
3955.51
3947.5
3947.07
3937.83
4075.27
4075.41
4075.08
4074.7
4073.88
4073.01
4071.71
4070.38
4068.62
4066.81
4064.66
4062.27
4059.99
4056.69
4054.66
4050.12
4048.61
4042.71
4041.62
4034.67
4033.8
4025.72
4025.24
4015.9
4155.71
4155.85
4155.52
4155.12
4154.3
4153.41
4152.09
4150.72
4148.92
4147.07
4144.86
4142.46
4140.04
4136.8
4134.56
4130.14
4128.39
4122.62
4121.39
4114.39
4113.47
4105.34
4104.83
4095.42
4237.01
4237.16
4236.85
4236.45
4235.65
4234.77
4233.46
4232.1
4230.31
4228.46
4226.24
4223.85
4221.37
4218.18
4215.79
4211.49
4209.54
4203.89
4202.52
4195.52
4194.57
4186.41
4185.89
4176.41
4318.98
4319.14
4318.87
4318.51
4317.76
4316.93
4315.69
4314.39
4312.66
4310.89
4308.71
4306.39
4303.92
4300.83
4298.36
4294.2
4292.08
4286.58
4285.08
4278.1
4277.14
4268.95
4268.44
4258.92
4401.53
4401.71
4401.48
4401.19
4400.52
4399.79
4398.66
4397.49
4395.89
4394.25
4392.2
4390.03
4387.64
4384.71
4382.25
4378.28
4376.06
4370.75
4369.09
4362.24
4361.25
4353.02
4352.52
4342.97
4484.7
4484.91
4484.74
4484.53
4483.97
4483.37
4482.39
4481.39
4479.96
4478.52
4476.65
4474.69
4472.47
4469.76
4467.43
4463.69
4461.5
4456.42
4454.7
4447.98
4446.96
4438.68
4438.21
4428.59
4568.78
4569.01
4568.9
4568.78
4568.32
4567.86
4567.03
4566.2
4564.97
4563.74
4562.09
4560.38
4558.38
4555.92
4553.81
4550.33
4548.31
4543.5
4541.88
4535.32
4534.38
4526.04
4525.6
4515.83
4654.25
4654.54
4654.44
4654.42
4654.01
4653.68
4652.93
4652.28
4651.17
4650.15
4648.66
4647.19
4645.39
4643.19
4641.38
4638.07
4636.45
4631.72
4630.54
4624.04
4623.46
4615.14
4614.82
4604.91
4741.88
4742.24
4742.07
4742.17
4741.66
4741.5
4740.64
4740.2
4738.99
4738.2
4736.71
4735.44
4733.73
4731.69
4730.25
4726.75
4725.97
4720.78
4720.54
4713.8
4713.87
4705.69
4705.7
4696.16
4832.56
4832.89
4832.78
4832.74
4832.3
4831.94
4831.16
4830.49
4829.36
4828.38
4826.91
4825.57
4823.81
4821.94
4820.34
4817.02
4816.37
4811.24
4811.26
4804.63
4805.09
4797.05
4797.52
4788.62
4927.16
4927.46
4927.31
4927.17
4926.62
4926.08
4925.13
4924.23
4922.89
4921.64
4919.95
4918.36
4916.36
4914.36
4912.32
4909.3
4908.02
4903.23
4903.06
4896.4
4897.1
4888.89
4889.73
4880.91
5026.42
5026.69
5026.47
5026.19
5025.45
5024.68
5023.45
5022.22
5020.51
5018.86
5016.73
5014.69
5012.21
5009.77
5007.17
5003.91
5001.94
4997.12
4996.48
4989.5
4990.26
4981.56
4982.67
4973.47
5130.79
5131.09
5130.72
5130.34
5129.36
5128.35
5126.75
5125.17
5122.97
5120.85
5118.11
5115.5
5112.32
5109.23
5105.82
5101.93
5099.14
5093.66
5092.41
5084.61
5085.19
5075.63
5076.86
5066.83
5240.42
5240.76
5240.23
5239.78
5238.55
5237.34
5235.35
5233.49
5230.69
5228.26
5224.69
5221.66
5217.51
5213.74
5209.38
5204.54
5200.89
5194.01
5192.08
5182.93
5182.86
5171.98
5173.03
5161.65
5355.12
5355.41
5354.91
5354.25
5352.96
5351.44
5349.31
5346.99
5344
5340.9
5337.07
5333.2
5328.58
5323.93
5318.65
5313.12
5307.81
5300.26
5296.7
5286.21
5284.8
5272.06
5272.41
5258.87
5474.34
5474.61
5474.1
5473.35
5471.98
5470.32
5468.03
5465.49
5462.27
5458.85
5454.69
5450.38
5445.29
5440.06
5434.1
5427.86
5421.27
5413.53
5407.32
5396.72
5392.84
5378.23
5377.08
5360.26
5597.36
5597.61
5597.11
5596.33
5594.93
5593.21
5590.85
5588.21
5584.88
5581.31
5576.98
5572.46
5567.13
5561.6
5555.28
5548.62
5541.43
5533.28
5525.68
5515.19
5508.34
5493.58
5489.89
5469.19
5723.33
5723.59
5723.11
5722.34
5720.95
5719.24
5716.89
5714.26
5710.92
5707.35
5703.01
5698.47
5693.1
5687.54
5681.14
5674.43
5667.1
5658.87
5650.95
5640.55
5632.66
5618.49
5612.88
5590.36
5851.39
5851.67
5851.23
5850.5
5849.15
5847.51
5845.22
5842.68
5839.42
5835.95
5831.7
5827.3
5822.04
5816.63
5810.37
5803.85
5796.67
5788.66
5781.05
5770.73
5763.66
5749.35
5744.85
5724.21
5980.7
5981.02
5980.61
5979.95
5978.67
5977.13
5974.94
5972.53
5969.41
5966.13
5962.04
5957.86
5952.8
5947.67
5941.66
5935.47
5928.59
5921
5913.78
5903.93
5897.44
5883.7
5879.62
5860.41
6110.51
6110.86
6110.49
6109.91
6108.71
6107.3
6105.23
6103
6100.04
6096.98
6093.1
6089.21
6084.4
6079.62
6073.91
6068.13
6061.61
6054.54
6047.73
6038.51
6032.46
6019.6
6015.79
5997.89
6240.11
6240.53
6240.18
6239.7
6238.58
6237.32
6235.38
6233.36
6230.55
6227.78
6224.1
6220.56
6216
6211.63
6206.23
6200.92
6194.79
6188.29
6181.89
6173.29
6167.76
6155.81
6152.22
6135.65
6368.98
6369.43
6369.08
6368.76
6367.66
6366.62
6364.74
6363.01
6360.3
6357.91
6354.34
6351.28
6346.85
6343.05
6337.86
6333.13
6327.35
6321.45
6315.51
6307.54
6302.41
6291.46
6288.08
6272.85
6496.56
6497.05
6496.71
6496.52
6495.46
6494.64
6492.82
6491.4
6488.76
6486.8
6483.29
6480.79
6476.42
6473.3
6468.17
6464.23
6458.6
6453.38
6447.87
6440.61
6435.85
6425.9
6422.73
6408.84
6622.43
6622.93
6622.68
6622.5
6621.65
6620.83
6619.31
6617.93
6615.67
6613.79
6610.72
6608.37
6604.47
6601.61
6596.94
6593.42
6588.21
6583.65
6578.4
6571.95
6567.53
6558.61
6555.63
6543.05
6746.23
6746.74
6746.57
6746.41
6745.71
6744.96
6743.67
6742.39
6740.45
6738.69
6736.04
6733.82
6730.43
6727.75
6723.64
6720.41
6715.72
6711.67
6706.75
6701.25
6697.04
6689.11
6686.32
6675.04
6867.65
6868.16
6868.04
6867.94
6867.36
6866.71
6865.6
6864.47
6862.77
6861.19
6858.87
6856.87
6853.89
6851.47
6847.83
6844.94
6840.73
6837.18
6832.63
6828.01
6824
6817.03
6814.43
6804.42
6986.4
6986.92
6986.86
6986.8
6986.33
6985.79
6984.84
6983.86
6982.39
6981.01
6978.98
6977.22
6974.6
6972.47
6969.25
6966.73
6962.96
6959.91
6955.78
6951.86
6948.02
6942.11
6939.68
6930.9
7102.29
7102.8
7102.78
7102.79
7102.4
7101.97
7101.17
7100.35
7099.08
7097.9
7096.13
7094.63
7092.33
7090.51
7087.67
7085.51
7082.17
7079.58
7075.88
7072.61
7068.98
7064.08
7061.78
7054.2
7215.11
7215.62
7215.65
7215.69
7215.42
7215.06
7214.42
7213.73
7212.67
7211.68
7210.16
7208.9
7206.91
7205.38
7202.9
7201.1
7198.16
7196.01
7192.72
7190.02
7186.69
7182.71
7180.56
7174.13
7324.73
7325.24
7325.29
7325.41
7325.17
7324.98
7324.4
7323.91
7322.98
7322.21
7320.91
7319.89
7318.18
7316.94
7314.79
7313.33
7310.76
7309.03
7306.13
7303.96
7300.99
7297.86
7295.83
7290.46
7431.03
7431.53
7431.65
7431.74
7431.69
7431.44
7431.12
7430.65
7429.97
7429.33
7428.27
7427.47
7426.03
7425.06
7423.23
7422.09
7419.88
7418.54
7416.02
7414.34
7411.73
7409.34
7407.46
7403.06
7533.94
7534.44
7534.52
7534.8
7534.57
7534.71
7534.21
7534.1
7533.41
7533.05
7532.13
7531.57
7530.36
7529.65
7528.11
7527.29
7525.41
7524.45
7522.29
7521.07
7518.82
7517.04
7515.3
7511.87
7633.37
7633.84
7634.05
7634.13
7634.34
7634.11
7634.15
7633.79
7633.52
7633.14
7632.51
7632.09
7631.14
7630.66
7629.4
7628.86
7627.29
7626.68
7624.85
7624.06
7622.15
7620.93
7619.35
7616.82
7729.32
7729.81
7729.89
7730.32
7730.11
7730.52
7730.08
7730.34
7729.82
7729.83
7729.23
7729.07
7728.3
7728.06
7727.05
7726.78
7725.5
7725.21
7723.69
7723.29
7721.69
7720.96
7719.62
7717.9
7821.74
7822.18
7822.46
7822.56
7822.92
7822.77
7823.07
7822.84
7822.9
7822.74
7822.48
7822.4
7821.87
7821.83
7821.06
7821.04
7820.02
7820.03
7818.8
7818.77
7817.44
7817.18
7816.06
7815.09
7910.67
7911.14
7911.24
7911.75
7911.6
7912.18
7911.85
7912.36
7912.02
7912.35
7912.02
7912.21
7911.82
7911.98
7911.42
7911.63
7910.87
7911.15
7910.19
7910.51
7909.45
7909.63
7908.75
7908.4
7996.1
7996.51
7996.83
7996.96
7997.42
7997.36
7997.84
7997.76
7998.06
7998.12
7998.16
7998.37
7998.2
7998.52
7998.17
7998.6
7998.05
7998.6
7997.88
7998.52
7997.71
7998.3
7997.63
7997.85
8078.1
8078.55
8078.66
8079.22
8079.14
8079.82
8079.63
8080.3
8080.14
8080.7
8080.62
8081.09
8081.02
8081.52
8081.34
8081.96
8081.62
8082.41
8081.91
8082.84
8082.24
8083.22
8082.71
8083.47
8156.69
8157.06
8157.4
8157.57
8158.09
8158.14
8158.71
8158.8
8159.25
8159.52
8159.79
8160.26
8160.37
8161
8160.99
8161.78
8161.63
8162.63
8162.32
8163.52
8163.11
8164.43
8164.07
8165.31
8231.95
8232.37
8232.5
8233.07
8233.08
8233.79
8233.76
8234.51
8234.56
8235.25
8235.41
8236.09
8236.28
8237.05
8237.18
8238.14
8238.15
8239.33
8239.2
8240.64
8240.39
8242.02
8241.77
8243.45
8303.95
8304.29
8304.63
8304.84
8305.37
8305.54
8306.14
8306.42
8306.94
8307.43
8307.84
8308.53
8308.86
8309.74
8310
8311.1
8311.25
8312.61
8312.63
8314.28
8314.17
8316.08
8315.93
8318
8372.77
8373.15
8373.3
8373.85
8373.96
8374.66
8374.8
8375.55
8375.81
8376.57
8376.94
8377.77
8378.18
8379.17
8379.54
8380.76
8381.04
8382.55
8382.7
8384.54
8384.55
8386.71
8386.65
8389.05
8438.5
8438.81
8439.13
8439.4
8439.9
8440.2
8440.77
8441.23
8441.78
8442.45
8442.97
8443.84
8444.34
8445.42
8445.89
8447.22
8447.61
8449.25
8449.52
8451.52
8451.65
8454.02
8454.03
8456.74
8501.22
8501.55
8501.75
8502.23
8502.47
8503.1
8503.42
8504.13
8504.57
8505.38
8505.91
8506.87
8507.43
8508.59
8509.15
8510.58
8511.07
8512.83
8513.2
8515.35
8515.56
8518.12
8518.18
8521.2
8561.04
8561.33
8561.61
8561.95
8562.39
8562.83
8563.35
8563.96
8564.53
8565.33
8565.94
8566.94
8567.57
8568.8
8569.43
8570.94
8571.52
8573.38
8573.85
8576.12
8576.42
8579.16
8579.3
8582.45
8618.06
8618.34
8618.58
8619
8619.34
8619.9
8620.35
8621.05
8621.61
8622.47
8623.11
8624.16
8624.85
8626.14
8626.84
8628.42
8629.08
8631.03
8631.57
8633.96
8634.33
8637.21
8637.4
8640.76
8672.37
8672.63
8672.89
8673.26
8673.66
8674.18
8674.69
8675.38
8675.99
8676.87
8677.55
8678.65
8679.39
8680.73
8681.48
8683.13
8683.85
8685.87
8686.49
8688.97
8689.4
8692.41
8692.64
8696.18
8724.07
8724.32
8724.57
8724.96
8725.34
8725.89
8726.39
8727.12
8727.73
8728.65
8729.36
8730.49
8731.27
8732.66
8733.47
8735.16
8735.95
8738.02
8738.71
8741.26
8741.76
8744.88
8745.14
8748.84
8773.28
8773.51
8773.75
8774.13
8774.53
8775.07
8775.6
8776.33
8776.97
8777.9
8778.64
8779.8
8780.62
8782.04
8782.89
8784.63
8785.47
8787.6
8788.34
8790.96
8791.51
8794.72
8795
8798.86
8820.08
8820.29
8820.53
8820.91
8821.3
8821.86
8822.39
8823.13
8823.78
8824.74
8825.5
8826.68
8827.52
8828.98
8829.87
8831.64
8832.52
8834.7
8835.49
8838.15
8838.76
8842.04
8842.36
8846.34
8864.57
8864.78
8865.01
8865.38
8865.78
8866.33
8866.87
8867.62
8868.28
8869.25
8870.03
8871.23
8872.1
8873.58
8874.49
8876.3
8877.21
8879.42
8880.25
8882.96
8883.61
8886.94
8887.3
8891.37
8906.86
8907.05
8907.28
8907.65
8908.04
8908.6
8909.14
8909.9
8910.57
8911.55
8912.33
8913.56
8914.44
8915.94
8916.87
8918.71
8919.64
8921.88
8922.73
8925.48
8926.15
8929.52
8929.9
8934.04
8947.04
8947.22
8947.45
8947.81
8948.2
8948.76
8949.3
8950.06
8950.73
8951.72
8952.51
8953.75
8954.64
8956.16
8957.1
8958.96
8959.9
8962.18
8963.03
8965.81
8966.49
8969.9
8970.28
8974.45
8985.21
8985.38
8985.6
8985.96
8986.34
8986.9
8987.43
8988.2
8988.88
8989.87
8990.67
8991.91
8992.8
8994.34
8995.28
8997.17
8998.1
9000.4
9001.25
9004.07
9004.73
9008.18
9008.55
9012.73
9021.45
9021.61
9021.82
9022.18
9022.56
9023.11
9023.65
9024.42
9025.09
9026.09
9026.88
9028.14
9029.03
9030.57
9031.52
9033.41
9034.35
9036.67
9037.51
9040.35
9041
9044.47
9044.83
9049.02
9055.86
9056.01
9056.22
9056.57
9056.94
9057.49
9058.02
9058.79
9059.46
9060.46
9061.26
9062.51
9063.41
9064.95
9065.9
9067.8
9068.74
9071.06
9071.9
9074.74
9075.4
9078.87
9079.23
9083.42
9088.52
9088.66
9088.86
9089.21
9089.58
9090.13
9090.65
9091.42
9092.08
9093.08
9093.87
9095.13
9096.02
9097.57
9098.52
9100.41
9101.35
9103.67
9104.52
9107.35
9108.01
9111.47
9111.84
9116.02
9119.51
9119.64
9119.84
9120.18
9120.55
9121.09
9121.61
9122.37
9123.04
9124.03
9124.82
9126.07
9126.96
9128.51
9129.45
9131.34
9132.28
9134.59
9135.44
9138.27
9138.93
9142.38
9142.75
9146.92
9148.92
9149.04
9149.24
9149.57
9149.93
9150.47
9150.98
9151.74
9152.4
9153.39
9154.17
9155.42
9156.3
9157.85
9158.78
9160.67
9161.6
9163.91
9164.76
9167.57
9168.24
9171.67
9172.03
9176.19
9176.81
9176.93
9177.12
9177.45
9177.8
9178.34
9178.84
9179.6
9180.25
9181.24
9182.01
9183.26
9184.13
9185.67
9186.6
9188.47
9189.4
9191.7
9192.55
9195.35
9196.01
9199.43
9199.78
9203.92
9203.27
9203.38
9203.57
9203.89
9204.23
9204.77
9205.27
9206.02
9206.66
9207.64
9208.41
9209.65
9210.51
9212.04
9212.96
9214.83
9215.75
9218.04
9218.87
9221.65
9222.28
9225.74
9226.08
9230.19
9228.36
9228.47
9228.65
9228.96
9229.3
9229.83
9230.32
9231.07
9231.7
9232.68
9233.43
9234.67
9235.51
9237.05
9237.95
9239.82
9240.72
9242.99
9243.82
9246.59
9247.25
9250.6
9250.96
9255.05
9252.15
9252.25
9252.43
9252.74
9253.07
9253.59
9254.07
9254.82
9255.43
9256.42
9257.15
9258.39
9259.21
9260.74
9261.62
9263.49
9264.37
9266.64
9267.44
9270.2
9270.84
9274.18
9274.52
9278.58
9274.7
9274.8
9274.97
9275.27
9275.6
9276.12
9276.59
9277.33
9277.93
9278.91
9279.63
9280.87
9281.67
9283.2
9284.05
9285.92
9286.77
9289.03
9289.81
9292.56
9293.18
9296.5
9296.83
9300.84
9296.07
9296.17
9296.33
9296.63
9296.95
9297.46
9297.92
9298.66
9299.25
9300.23
9300.92
9302.16
9302.94
9304.47
9305.3
9307.17
9307.98
9310.25
9310.99
9313.74
9314.3
9317.63
9317.93
9321.91
9316.32
9316.41
9316.57
9316.87
9317.18
9317.69
9318.14
9318.88
9319.45
9320.43
9321.1
9322.34
9323.09
9324.63
9325.41
9327.29
9328.06
9330.34
9331.04
9333.78
9334.29
9337.63
9337.89
9341.83
9335.51
9335.6
9335.75
9336.05
9336.35
9336.86
9337.29
9338.03
9338.58
9339.56
9340.21
9341.45
9342.17
9343.72
9344.46
9346.35
9347.07
9349.36
9349.98
9352.78
9353.23
9356.54
9356.78
9360.67
9353.68
9353.77
9353.92
9354.21
9354.5
9355.01
9355.43
9356.17
9356.7
9357.68
9358.3
9359.55
9360.24
9361.79
9362.49
9364.4
9365.07
9367.38
9367.96
9370.72
9371.14
9374.44
9374.66
9378.49
9370.89
9370.97
9371.12
9371.41
9371.69
9372.2
9372.6
9373.34
9373.85
9374.83
9375.43
9376.69
9377.34
9378.9
9379.56
9381.48
9382.11
9384.41
9384.95
9387.72
9388.1
9391.37
9391.58
9395.36
9387.18
9387.26
9387.4
9387.69
9387.96
9388.47
9388.86
9389.59
9390.09
9391.07
9391.65
9392.9
9393.53
9395.08
9395.72
9397.63
9398.21
9400.55
9401.02
9403.8
9404.14
9407.39
9407.58
9411.33
9402.59
9402.67
9402.8
9403.09
9403.36
9403.86
9404.24
9404.98
9405.45
9406.44
9406.99
9408.25
9408.84
9410.4
9411
9412.92
9413.47
9415.78
9416.22
9419
9419.31
9422.53
9422.71
9426.41
9417.17
9417.25
9417.38
9417.67
9417.92
9418.43
9418.79
9419.53
9419.98
9420.98
9421.49
9422.77
9423.31
9424.9
9425.44
9427.38
9427.86
9430.21
9430.6
9433.36
9433.66
9436.84
9437.01
9440.66
9430.96
9431.03
9431.16
9431.45
9431.69
9432.2
9432.55
9433.29
9433.72
9434.73
9435.2
9436.5
9436.98
9438.62
9439.08
9441.06
9441.48
9443.83
9444.19
9446.93
9447.21
9450.36
9450.52
9454.12
9443.99
9444.06
9444.18
9444.47
9444.71
9445.22
9445.54
9446.3
9446.69
9447.72
9448.14
9449.48
9449.91
9451.56
9451.98
9453.97
9454.36
9456.7
9457.04
9459.75
9460.01
9463.13
9463.28
9466.83
9456.3
9456.37
9456.49
9456.78
9457
9457.52
9457.81
9458.6
9458.95
9459.99
9460.38
9461.72
9462.12
9463.78
9464.17
9466.15
9466.51
9468.84
9469.16
9471.85
9472.1
9475.18
9475.32
9478.82
9467.91
9467.99
9468.1
9468.4
9468.6
9469.13
9469.4
9470.19
9470.51
9471.57
9471.93
9473.28
9473.65
9475.3
9475.67
9477.64
9477.99
9480.3
9480.6
9483.26
9483.5
9486.54
9486.68
9490.14
9478.87
9478.95
9479.05
9479.35
9479.54
9480.08
9480.34
9481.13
9481.43
9482.49
9482.83
9484.17
9484.53
9486.17
9486.52
9488.48
9488.81
9491.1
9491.39
9494.02
9494.25
9497.26
9497.39
9500.8
9489.2
9489.28
9489.38
9489.67
9489.86
9490.39
9490.64
9491.43
9491.73
9492.77
9493.1
9494.44
9494.78
9496.41
9496.75
9498.69
9499.01
9501.27
9501.56
9504.16
9504.38
9507.35
9507.48
9510.84
9498.93
9499
9499.1
9499.4
9499.58
9500.11
9500.35
9501.13
9501.42
9502.46
9502.78
9504.1
9504.43
9506.04
9506.38
9508.29
9508.61
9510.84
9511.12
9513.7
9513.91
9516.85
9516.97
9520.29
9508.08
9508.15
9508.25
9508.54
9508.72
9509.24
9509.48
9510.25
9510.54
9511.57
9511.88
9513.18
9513.51
9515.11
9515.43
9517.33
9517.63
9519.85
9520.11
9522.66
9522.87
9525.77
9525.89
9529.17
9516.68
9516.75
9516.85
9517.13
9517.32
9517.82
9518.07
9518.82
9519.1
9520.12
9520.43
9521.72
9522.04
9523.62
9523.93
9525.81
9526.1
9528.3
9528.55
9531.08
9531.28
9534.15
9534.26
9537.51
9524.75
9524.81
9524.93
9525.18
9525.39
9525.86
9526.13
9526.85
9527.15
9528.14
9528.45
9529.73
9530.03
9531.6
9531.9
9533.76
9534.05
9536.22
9536.47
9538.96
9539.16
9541.99
9542.11
9545.31
9532.31
9532.37
9532.5
9532.73
9532.96
9533.39
9533.7
9534.36
9534.7
9535.63
9535.98
9537.21
9537.52
9539.07
9539.36
9541.21
9541.48
9543.63
9543.87
9546.35
9546.53
9549.34
9549.45
9552.62
9539.39