/*--------------------------------*- C++ -*----------------------------------*\
  =========                 |
  \\      /  F ield         | OpenFOAM: The Open Source CFD Toolbox
   \\    /   O peration     | Website:  https://openfoam.org
    \\  /    A nd           | Version:  10
     \\/     M anipulation  |
\*---------------------------------------------------------------------------*/
FoamFile
{
    format      ascii;
    class       surfaceScalarField;
    location    "0.16";
    object      phi;
}
// * * * * * * * * * * * * * * * * * * * * * * * * * * * * * * * * * * * * * //

dimensions      [1 0 -1 0 0 0 0];

internalField   nonuniform List<scalar> 
8154
(
-5.85809e-09
-2.22024e-08
-5.70548e-08
-9.22659e-08
-1.71988e-07
-2.26508e-07
-3.7022e-07
-4.54486e-07
-6.74516e-07
-8.14254e-07
-1.10489e-06
-1.33802e-06
-1.66834e-06
-2.02763e-06
-2.36198e-06
-2.86768e-06
-3.25881e-06
-3.98742e-06
-4.56837e-06
-5.50557e-06
-6.82071e-06
-7.27916e-06
-6.8437e-06
-0.000277461
-0.000832437
2.4001e-08
-0.00138758
9.61922e-08
-0.00194304
2.13212e-07
-0.00249888
3.77809e-07
-0.00305528
5.77015e-07
-0.00361231
8.23191e-07
-0.00417008
1.08866e-06
-0.00472883
1.39789e-06
-0.00528835
1.71159e-06
-0.00584925
2.05629e-06
-0.0064111
2.40251e-06
-0.00697433
2.74759e-06
-0.00753928
3.12003e-06
-0.00810481
3.43608e-06
-0.00867381
3.84991e-06
-0.00924098
4.12581e-06
-0.00981568
4.57307e-06
-0.0103841
4.92449e-06
-0.0109654
5.13901e-06
-0.0115348
5.27912e-06
-0.0121244
5.11472e-06
-0.012696
4.03225e-06
-0.0132939
2.44587e-06
-0.000277484
-0.000832506
2.63242e-08
-0.00138769
1.04772e-07
-0.0019432
2.34657e-07
-0.00249907
4.1001e-07
-0.00305552
6.35009e-07
-0.00361257
8.89399e-07
-0.00417037
1.19495e-06
-0.00472913
1.50146e-06
-0.00528868
1.86759e-06
-0.00584958
2.19102e-06
-0.00641143
2.59301e-06
-0.00697468
2.89217e-06
-0.00753957
3.29863e-06
-0.0081052
3.53941e-06
-0.00867406
3.9042e-06
-0.0092414
4.10508e-06
-0.009816
4.38971e-06
-0.0103843
5.00208e-06
-0.0109655
4.66659e-06
-0.0115346
5.2317e-06
-0.0121233
5.33148e-06
-0.0126943
5.04063e-06
-0.0132914
4.22437e-06
-0.000277509
-0.000832582
2.12684e-08
-0.00138782
8.49129e-08
-0.00194337
1.88032e-07
-0.00249928
3.30403e-07
-0.00305576
5.01725e-07
-0.00361286
7.07206e-07
-0.00417067
9.2302e-07
-0.00472948
1.16687e-06
-0.00528898
1.39481e-06
-0.00584996
1.64221e-06
-0.00641171
1.8459e-06
-0.00697506
2.04885e-06
-0.00753979
2.19646e-06
-0.00810554
2.28349e-06
-0.00867423
2.35351e-06
-0.00924166
2.20664e-06
-0.00981658
2.34342e-06
-0.0103839
1.89777e-06
-0.0109661
1.77813e-06
-0.0115346
1.39167e-06
-0.012123
1.15431e-06
-0.0126935
7.19781e-07
-0.0132872
5.08829e-07
-0.00027753
-0.000832643
2.55095e-08
-0.00138791
1.01894e-07
-0.00194351
2.26035e-07
-0.00249945
3.97738e-07
-0.00305596
6.05504e-07
-0.00361307
8.55597e-07
-0.0041709
1.11989e-06
-0.0047297
1.42115e-06
-0.00528921
1.70331e-06
-0.00585015
2.0174e-06
-0.00641189
2.27178e-06
-0.00697519
2.54738e-06
-0.00753986
2.73258e-06
-0.00810559
2.89457e-06
-0.00867406
2.98511e-06
-0.00924177
2.89807e-06
-0.00981611
2.97448e-06
-0.0103838
2.2806e-06
-0.0109656
2.51399e-06
-0.0115343
1.72507e-06
-0.0121226
1.20667e-06
-0.0126932
3.78547e-07
-0.0132866
-1.78398e-07
-0.000277555
-0.000832717
3.36279e-08
-0.00138804
1.34273e-07
-0.00194367
2.99203e-07
-0.00249965
5.26428e-07
-0.0030562
8.07872e-07
-0.00361332
1.14169e-06
-0.00417118
1.51242e-06
-0.00472997
1.91982e-06
-0.00528951
2.33996e-06
-0.00585039
2.774e-06
-0.00641215
3.19394e-06
-0.00697536
3.595e-06
-0.00754
3.96296e-06
-0.00810566
4.25798e-06
-0.00867394
4.52164e-06
-0.00924182
4.61539e-06
-0.00981539
4.73036e-06
-0.010384
4.39853e-06
-0.0109648
4.36359e-06
-0.0115338
3.67295e-06
-0.0121217
3.21307e-06
-0.0126926
2.26912e-06
-0.0132867
1.34289e-06
-0.000277587
-0.000832815
3.75538e-08
-0.0013882
1.4995e-07
-0.00194389
3.34418e-07
-0.00249993
5.88483e-07
-0.00305653
9.04333e-07
-0.00361369
1.27843e-06
-0.00417158
1.69666e-06
-0.00473037
2.15467e-06
-0.00528993
2.63196e-06
-0.00585079
3.12177e-06
-0.00641253
3.60232e-06
-0.00697571
4.05729e-06
-0.00754027
4.48044e-06
-0.0081059
4.82062e-06
-0.00867401
5.12328e-06
-0.00924191
5.2498e-06
-0.00981503
5.36866e-06
-0.0103839
5.08018e-06
-0.0109641
4.96432e-06
-0.0115333
4.21552e-06
-0.0121207
3.67779e-06
-0.0126917
2.63808e-06
-0.0132854
1.6089e-06
-0.000277624
-0.000832925
4.13899e-08
-0.00138838
1.65274e-07
-0.00194414
3.6871e-07
-0.00250024
6.48988e-07
-0.00305689
9.9783e-07
-0.00361409
1.41133e-06
-0.00417202
1.87452e-06
-0.00473084
2.38265e-06
-0.00529041
2.91341e-06
-0.00585126
3.45991e-06
-0.00641297
3.99654e-06
-0.00697611
4.50822e-06
-0.00754059
4.98121e-06
-0.00810618
5.36975e-06
-0.00867411
5.70621e-06
-0.009242
5.86212e-06
-0.00981472
5.99593e-06
-0.0103838
5.71679e-06
-0.0109633
5.59593e-06
-0.0115327
4.80865e-06
-0.0121196
4.19694e-06
-0.0126906
2.9887e-06
-0.0132837
1.79505e-06
-0.000277665
-0.000833047
4.50878e-08
-0.00138858
1.80024e-07
-0.00194442
4.01682e-07
-0.00250058
7.06955e-07
-0.0030573
1.08725e-06
-0.00361455
1.53784e-06
-0.00417252
2.04358e-06
-0.00473136
2.59829e-06
-0.00529094
3.17981e-06
-0.00585178
3.77864e-06
-0.00641346
4.3694e-06
-0.00697657
4.93324e-06
-0.00754095
5.45536e-06
-0.0081065
5.88752e-06
-0.00867424
6.2568e-06
-0.00924212
6.44044e-06
-0.00981441
6.57946e-06
-0.0103836
6.32694e-06
-0.0109625
6.17743e-06
-0.0115321
5.37278e-06
-0.0121184
4.81169e-06
-0.0126894
3.36237e-06
-0.0132819
2.01994e-06
-0.000277709
-0.00083318
4.87367e-08
-0.0013888
1.94569e-07
-0.00194472
4.34136e-07
-0.00250095
7.63912e-07
-0.00305774
1.17483e-06
-0.00361505
1.66139e-06
-0.00417306
2.20798e-06
-0.00473193
2.80733e-06
-0.00529152
3.43694e-06
-0.00585236
4.08576e-06
-0.00641401
4.72771e-06
-0.00697708
5.34188e-06
-0.00754137
5.91103e-06
-0.00810684
6.38576e-06
-0.0086744
6.78654e-06
-0.00924223
6.99528e-06
-0.00981414
7.1346e-06
-0.0103835
6.90091e-06
-0.0109617
6.72787e-06
-0.0115314
5.91551e-06
-0.012117
4.84992e-06
-0.012688
3.71736e-06
-0.0132798
2.21385e-06
-0.000277757
-0.000833323
5.23357e-08
-0.00138903
2.0891e-07
-0.00194504
4.66114e-07
-0.00250136
8.19975e-07
-0.00305822
1.26088e-06
-0.00361558
1.7825e-06
-0.00417365
2.36859e-06
-0.00473255
3.01081e-06
-0.00529216
3.6861e-06
-0.00585298
4.38213e-06
-0.00641461
5.07212e-06
-0.00697763
5.73367e-06
-0.00754182
6.34738e-06
-0.00810722
6.86296e-06
-0.00867458
7.2947e-06
-0.00924235
7.52671e-06
-0.00981388
7.66494e-06
-0.0103833
7.44569e-06
-0.0109608
7.2435e-06
-0.0115307
6.3899e-06
-0.0121155
5.60263e-06
-0.0126864
4.02933e-06
-0.0132776
2.39791e-06
-0.000277809
-0.000833478
5.59001e-08
-0.00138929
2.23117e-07
-0.00194539
4.978e-07
-0.00250179
8.75545e-07
-0.00305873
1.34615e-06
-0.00361616
1.90244e-06
-0.00417428
2.52736e-06
-0.00473321
3.21144e-06
-0.00529284
3.93077e-06
-0.00585366
4.6719e-06
-0.00641526
5.40707e-06
-0.00697823
6.11298e-06
-0.00754232
6.7681e-06
-0.00810764
7.3222e-06
-0.00867479
7.78408e-06
-0.00924247
8.04058e-06
-0.00981364
8.185e-06
-0.010383
7.96782e-06
-0.0109599
7.73964e-06
-0.0115299
6.86008e-06
-0.0121139
6.00503e-06
-0.0126848
4.35561e-06
-0.0132752
2.58559e-06
-0.000277864
-0.000833643
5.94226e-08
-0.00138956
2.37163e-07
-0.00194576
5.29157e-07
-0.00250226
9.30597e-07
-0.00305928
1.43071e-06
-0.00361678
2.02148e-06
-0.00417496
2.68492e-06
-0.00473392
3.41036e-06
-0.00529357
4.1728e-06
-0.00585438
4.95754e-06
-0.00641595
5.73558e-06
-0.00697887
6.48289e-06
-0.00754286
7.17587e-06
-0.00810808
7.76494e-06
-0.00867503
8.25403e-06
-0.0092426
8.53332e-06
-0.0098134
8.68442e-06
-0.0103828
8.46494e-06
-0.010959
8.20204e-06
-0.011529
7.28387e-06
-0.0121122
6.37413e-06
-0.012683
4.64976e-06
-0.0132726
2.75568e-06
-0.000277923
-0.000833818
6.29031e-08
-0.00138985
2.51048e-07
-0.00194616
5.60174e-07
-0.00250275
9.85124e-07
-0.00305986
1.51457e-06
-0.00361743
2.13971e-06
-0.00417567
2.84158e-06
-0.00473467
3.6083e-06
-0.00529434
4.41351e-06
-0.00585515
5.24117e-06
-0.00641668
6.06068e-06
-0.00697955
6.84719e-06
-0.00754343
7.57488e-06
-0.00810855
8.19519e-06
-0.00867529
8.70777e-06
-0.00924273
9.00665e-06
-0.00981316
9.16199e-06
-0.0103825
8.94302e-06
-0.0109581
8.64044e-06
-0.011528
7.67775e-06
-0.0121105
6.70618e-06
-0.012681
4.89393e-06
-0.0132698
2.90261e-06
-0.000277985
-0.000834004
6.63433e-08
-0.00139015
2.64769e-07
-0.00194658
5.90837e-07
-0.00250328
1.03905e-06
-0.00306048
1.59756e-06
-0.00361813
2.25684e-06
-0.00417643
2.997e-06
-0.00473547
3.80492e-06
-0.00529516
4.65287e-06
-0.00585596
5.52328e-06
-0.00641745
6.38374e-06
-0.00698026
7.20825e-06
-0.00754403
7.96847e-06
-0.00810904
8.61671e-06
-0.00867557
9.14866e-06
-0.00924287
9.46301e-06
-0.00981292
9.62084e-06
-0.0103822
9.40437e-06
-0.0109571
9.06018e-06
-0.011527
8.05297e-06
-0.0121086
7.012e-06
-0.012679
5.05315e-06
-0.0132669
3.0277e-06
-0.000278051
-0.000834201
6.97504e-08
-0.00139048
2.78352e-07
-0.00194703
6.21159e-07
-0.00250383
1.09234e-06
-0.00306113
1.67953e-06
-0.00361886
2.37252e-06
-0.00417723
3.15052e-06
-0.0047363
3.99934e-06
-0.00529601
4.88985e-06
-0.0058568
5.80302e-06
-0.00641826
6.70447e-06
-0.006981
7.56679e-06
-0.00754466
8.35878e-06
-0.00810955
9.03301e-06
-0.00867587
9.58089e-06
-0.00924301
9.90576e-06
-0.00981269
1.00621e-05
-0.0103818
9.84559e-06
-0.0109561
9.46083e-06
-0.011526
8.41549e-06
-0.0121066
7.31233e-06
-0.0126769
5.27288e-06
-0.0132638
3.15826e-06
-0.00027812
-0.000834407
7.31266e-08
-0.00139082
2.91802e-07
-0.00194749
6.51142e-07
-0.00250441
1.14492e-06
-0.00306182
1.76025e-06
-0.00361963
2.48625e-06
-0.00417807
3.30131e-06
-0.00473718
4.19024e-06
-0.00529692
5.1227e-06
-0.00585769
6.07828e-06
-0.00641911
7.02077e-06
-0.00698178
7.9212e-06
-0.00754532
8.74543e-06
-0.00811008
9.44557e-06
-0.00867618
1.00082e-05
-0.00924314
1.03402e-05
-0.00981245
1.04884e-05
-0.0103814
1.02591e-05
-0.010955
9.84094e-06
-0.0115248
8.75875e-06
-0.0121046
7.59404e-06
-0.0126748
5.4908e-06
-0.0132606
3.27976e-06
-0.000278192
-0.000834624
7.64626e-08
-0.00139117
3.05078e-07
-0.00194798
6.80676e-07
-0.00250502
1.1966e-06
-0.00306254
1.83935e-06
-0.00362044
2.5974e-06
-0.00417895
3.44831e-06
-0.00473811
4.37603e-06
-0.00529786
5.34915e-06
-0.00585862
6.34611e-06
-0.00642
7.3291e-06
-0.00698259
8.26773e-06
-0.00754601
9.125e-06
-0.00811062
9.85218e-06
-0.0086765
1.04309e-05
-0.00924327
1.07705e-05
-0.0098122
1.09092e-05
-0.0103809
1.06634e-05
-0.0109539
1.02109e-05
-0.0115236
9.09205e-06
-0.0121025
7.86546e-06
-0.0126726
5.6908e-06
-0.0132573
3.39352e-06
-0.000278268
-0.000834851
7.97314e-08
-0.00139154
3.18072e-07
-0.00194849
7.09543e-07
-0.00250566
1.24699e-06
-0.00306329
1.9163e-06
-0.00362129
2.70519e-06
-0.00417986
3.59044e-06
-0.00473907
4.55522e-06
-0.00529885
5.56709e-06
-0.00585959
6.60365e-06
-0.00642092
7.62572e-06
-0.00698343
8.6018e-06
-0.00754672
9.49242e-06
-0.00811118
1.02479e-05
-0.00867682
1.08449e-05
-0.00924339
1.11943e-05
-0.00981194
1.13258e-05
-0.0103805
1.10654e-05
-0.0109527
1.05744e-05
-0.0115224
9.42176e-06
-0.0121003
8.13263e-06
-0.0126703
5.88525e-06
-0.0132539
3.50314e-06
-0.000278347
-0.000835087
8.28752e-08
-0.00139193
3.30565e-07
-0.00194903
7.37277e-07
-0.00250633
1.29537e-06
-0.00306407
1.99006e-06
-0.00362216
2.80835e-06
-0.00418082
3.72615e-06
-0.00474007
4.72585e-06
-0.00529987
5.7741e-06
-0.00586061
6.84774e-06
-0.00642189
7.90651e-06
-0.00698431
8.91813e-06
-0.00754746
9.84118e-06
-0.00811176
1.06253e-05
-0.00867716
1.12428e-05
-0.00924351
1.16052e-05
-0.00981166
1.17336e-05
-0.0103799
1.14614e-05
-0.0109516
1.09313e-05
-0.0115211
9.75107e-06
-0.012098
8.40111e-06
-0.0126679
6.07971e-06
-0.0132503
3.61226e-06
-0.00027843
-0.000835333
8.58158e-08
-0.00139234
3.42255e-07
-0.00194958
7.63255e-07
-0.00250702
1.34072e-06
-0.00306489
2.05926e-06
-0.00362308
2.90514e-06
-0.00418181
3.85343e-06
-0.00474111
4.88569e-06
-0.00530094
5.96761e-06
-0.00586165
7.07536e-06
-0.00642289
8.16769e-06
-0.00698522
9.21186e-06
-0.00754823
1.0165e-05
-0.00811236
1.09765e-05
-0.00867751
1.16152e-05
-0.00924362
1.19935e-05
-0.00981137
1.21242e-05
-0.0103794
1.18447e-05
-0.0109504
1.12793e-05
-0.0115197
1.0079e-05
-0.0120957
8.67349e-06
-0.0126654
6.28021e-06
-0.0132467
3.72531e-06
-0.000278515
-0.000835588
8.84645e-08
-0.00139276
3.52798e-07
-0.00195016
7.86734e-07
-0.00250773
1.38183e-06
-0.00306573
2.12219e-06
-0.00362402
2.9934e-06
-0.00418284
3.96973e-06
-0.00474219
5.03189e-06
-0.00530204
6.14458e-06
-0.00586274
7.28321e-06
-0.00642392
8.40557e-06
-0.00698616
9.47853e-06
-0.00754903
1.0458e-05
-0.00811299
1.12938e-05
-0.00867787
1.19522e-05
-0.00924373
1.23471e-05
-0.00981107
1.24843e-05
-0.0103788
1.22051e-05
-0.0109491
1.16183e-05
-0.0115183
1.03982e-05
-0.0120933
8.94173e-06
-0.0126628
6.48782e-06
-0.0132429
3.84451e-06
-0.000278603
-0.00083585
9.07343e-08
-0.00139319
3.61849e-07
-0.00195075
8.06964e-07
-0.00250847
1.41741e-06
-0.00306659
2.17693e-06
-0.00362499
3.0706e-06
-0.00418389
4.07195e-06
-0.00474329
5.16092e-06
-0.00530316
6.30116e-06
-0.00586385
7.46726e-06
-0.00642498
8.61597e-06
-0.00698713
9.71366e-06
-0.00754985
1.07153e-05
-0.00811363
1.15711e-05
-0.00867826
1.22454e-05
-0.00924385
1.26543e-05
-0.00981078
1.27984e-05
-0.0103782
1.25234e-05
-0.0109479
1.19263e-05
-0.0115168
1.06875e-05
-0.0120908
9.18813e-06
-0.0126601
6.69207e-06
-0.0132391
3.96523e-06
-0.000278693
-0.00083612
9.25552e-08
-0.00139363
3.69127e-07
-0.00195135
8.23296e-07
-0.00250922
1.4463e-06
-0.00306748
2.22168e-06
-0.00362598
3.13417e-06
-0.00418497
4.15677e-06
-0.00474443
5.26872e-06
-0.00530432
6.43275e-06
-0.00586499
7.62258e-06
-0.00642607
8.7938e-06
-0.00698812
9.91214e-06
-0.00755069
1.09314e-05
-0.00811429
1.18023e-05
-0.00867865
1.24878e-05
-0.00924397
1.29062e-05
-0.00981049
1.30541e-05
-0.0103776
1.27816e-05
-0.0109466
1.21735e-05
-0.0115153
1.09236e-05
-0.0120883
9.38792e-06
-0.0126573
6.86706e-06
-0.0132351
4.06908e-06
-0.000278785
-0.000836395
9.38789e-08
-0.00139408
3.74429e-07
-0.00195197
8.35244e-07
-0.00250999
1.46756e-06
-0.00306839
2.25485e-06
-0.003627
3.18171e-06
-0.00418608
4.2208e-06
-0.00474558
5.35094e-06
-0.0053055
6.53408e-06
-0.00586615
7.74321e-06
-0.00642718
8.9327e-06
-0.00698912
1.00676e-05
-0.00755155
1.11001e-05
-0.00811497
1.19814e-05
-0.00867905
1.26728e-05
-0.0092441
1.30954e-05
-0.0098102
1.32424e-05
-0.010377
1.2969e-05
-0.0109454
1.23484e-05
-0.0115137
1.10917e-05
-0.0120857
9.51569e-06
-0.0126545
6.9686e-06
-0.013231
4.12156e-06
-0.000278879
-0.000836674
9.46946e-08
-0.00139454
3.77701e-07
-0.0019526
8.42646e-07
-0.00251078
1.48081e-06
-0.00306931
2.27569e-06
-0.00362803
3.2119e-06
-0.0041872
4.26195e-06
-0.00474676
5.40458e-06
-0.0053067
6.60114e-06
-0.00586733
7.82444e-06
-0.0064283
9.02737e-06
-0.00699014
1.01748e-05
-0.00755242
1.12166e-05
-0.00811565
1.21047e-05
-0.00867946
1.27973e-05
-0.00924423
1.32198e-05
-0.00980991
1.33598e-05
-0.0103763
1.30817e-05
-0.0109441
1.2447e-05
-0.0115121
1.1187e-05
-0.0120832
9.56127e-06
-0.0126516
6.95968e-06
-0.0132269
4.09515e-06
-0.000278973
-0.000836955
9.53826e-08
-0.001395
3.80456e-07
-0.00195324
8.48868e-07
-0.00251157
1.49194e-06
-0.00307024
2.29324e-06
-0.00362908
3.23748e-06
-0.00418834
4.29718e-06
-0.00474795
5.45125e-06
-0.00530792
6.66087e-06
-0.00586852
7.8989e-06
-0.00642944
9.11749e-06
-0.00699117
1.0281e-05
-0.0075533
1.13378e-05
-0.00811633
1.22393e-05
-0.00867987
1.29412e-05
-0.00924436
1.33707e-05
-0.00980962
1.35121e-05
-0.0103757
1.3236e-05
-0.0109428
1.25963e-05
-0.0115105
1.13393e-05
-0.0120806
9.68826e-06
-0.0126488
7.04838e-06
-0.0132228
4.19159e-06
-0.000279068
-0.000837239
9.56762e-08
-0.00139547
3.81625e-07
-0.00195388
8.51511e-07
-0.00251237
1.49668e-06
-0.00307118
2.30075e-06
-0.00363013
3.24857e-06
-0.00418949
4.31281e-06
-0.00474915
5.47263e-06
-0.00530915
6.68952e-06
-0.00586973
7.93663e-06
-0.00643059
9.16612e-06
-0.00699222
1.03421e-05
-0.00755419
1.14121e-05
-0.00811702
1.23263e-05
-0.00868029
1.3039e-05
-0.00924448
1.34766e-05
-0.00980932
1.36212e-05
-0.010375
1.33472e-05
-0.0109416
1.27025e-05
-0.0115088
1.1446e-05
-0.0120779
9.79392e-06
-0.0126459
7.13213e-06
-0.0132186
4.34482e-06
-0.000279163
-0.000837523
9.54648e-08
-0.00139594
3.80775e-07
-0.00195452
8.49602e-07
-0.00251317
1.49332e-06
-0.00307213
2.29561e-06
-0.00363119
3.24145e-06
-0.00419064
4.30362e-06
-0.00475036
5.46174e-06
-0.00531039
6.67763e-06
-0.00587095
7.92526e-06
-0.00643176
9.15715e-06
-0.00699328
1.03378e-05
-0.00755509
1.14147e-05
-0.00811773
1.23374e-05
-0.00868071
1.30585e-05
-0.00924461
1.35033e-05
-0.00980903
1.36508e-05
-0.0103743
1.33779e-05
-0.0109403
1.27269e-05
-0.0115072
1.14729e-05
-0.0120752
9.81992e-06
-0.0126429
7.19413e-06
-0.0132144
3.92322e-06
-0.000279258
-0.000837807
9.4786e-08
-0.0013964
3.7806e-07
-0.00195516
8.43538e-07
-0.00251396
1.48264e-06
-0.00307307
2.27915e-06
-0.00363225
3.21816e-06
-0.00419179
4.27263e-06
-0.00475157
5.42256e-06
-0.00531163
6.6302e-06
-0.00587218
7.87041e-06
-0.00643293
9.09645e-06
-0.00699435
1.02739e-05
-0.007556
1.13506e-05
-0.00811844
1.22767e-05
-0.00868114
1.30039e-05
-0.00924474
1.34564e-05
-0.00980874
1.36098e-05
-0.0103737
1.33411e-05
-0.010939
1.26855e-05
-0.0115055
1.14307e-05
-0.0120726
9.75773e-06
-0.0126399
7.16981e-06
-0.0132101
3.89241e-06
-0.000279352
-0.000838089
9.36658e-08
-0.00139687
3.73598e-07
-0.0019558
8.33595e-07
-0.00251476
1.46523e-06
-0.003074
2.25242e-06
-0.0036333
3.1805e-06
-0.00419294
4.22255e-06
-0.00475277
5.359e-06
-0.00531286
6.55242e-06
-0.0058734
7.77858e-06
-0.0064341
8.99147e-06
-0.00699542
1.0158e-05
-0.00755692
1.12271e-05
-0.00811916
1.21503e-05
-0.00868158
1.28796e-05
-0.00924489
1.33394e-05
-0.00980846
1.35028e-05
-0.010373
1.3246e-05
-0.0109377
1.25956e-05
-0.0115038
1.13437e-05
-0.01207
9.64759e-06
-0.012637
7.08482e-06
-0.0132058
4.20735e-06
-0.000279445
-0.000838368
9.21319e-08
-0.00139732
3.67495e-07
-0.00195643
8.20052e-07
-0.00251554
1.44159e-06
-0.00307493
2.21633e-06
-0.00363434
3.1299e-06
-0.00419407
4.15568e-06
-0.00475396
5.27448e-06
-0.00531408
6.44918e-06
-0.0058746
7.6563e-06
-0.00643525
8.85037e-06
-0.00699648
9.99967e-06
-0.00755783
1.1054e-05
-0.00811988
1.19673e-05
-0.00868203
1.26928e-05
-0.00924504
1.31563e-05
-0.00980818
1.33309e-05
-0.0103724
1.30924e-05
-0.0109365
1.24618e-05
-0.0115021
1.12319e-05
-0.0120674
9.54432e-06
-0.0126342
7.01713e-06
-0.0132016
4.16491e-06
-0.000279537
-0.000838642
9.02237e-08
-0.00139778
3.59916e-07
-0.00195704
8.03237e-07
-0.00251631
1.41233e-06
-0.00307584
2.17175e-06
-0.00363536
3.06771e-06
-0.00419518
4.07392e-06
-0.00475513
5.17178e-06
-0.00531528
6.32445e-06
-0.00587579
7.50913e-06
-0.0064364
8.68066e-06
-0.00699752
9.80841e-06
-0.00755873
1.08427e-05
-0.0081206
1.17401e-05
-0.00868248
1.24549e-05
-0.0092452
1.2916e-05
-0.00980792
1.30978e-05
-0.0103717
1.28783e-05
-0.0109352
1.22762e-05
-0.0115004
1.10851e-05
-0.0120648
9.4343e-06
-0.0126313
6.93695e-06
-0.0131974
4.12084e-06
-0.000279627
-0.000838911
8.79998e-08
-0.00139822
3.51078e-07
-0.00195765
7.83646e-07
-0.00251707
1.3782e-06
-0.00307673
2.11985e-06
-0.00363636
2.99538e-06
-0.00419627
3.97916e-06
-0.00475628
5.05326e-06
-0.00531646
6.18134e-06
-0.00587695
7.34131e-06
-0.00643751
8.48824e-06
-0.00699855
9.59229e-06
-0.00755962
1.0604e-05
-0.0081213
1.14816e-05
-0.00868293
1.21804e-05
-0.00924537
1.26325e-05
-0.00980769
1.28143e-05
-0.0103711
1.26085e-05
-0.010934
1.20354e-05
-0.0114987
1.08906e-05
-0.0120623
9.29038e-06
-0.0126284
6.85712e-06
-0.0131933
4.06541e-06
-0.000279715
-0.000839173
8.55342e-08
-0.00139865
3.4128e-07
-0.00195824
7.61875e-07
-0.00251781
1.34026e-06
-0.0030776
2.06201e-06
-0.00363734
2.91473e-06
-0.00419734
3.87344e-06
-0.0047574
4.92124e-06
-0.00531761
6.02242e-06
-0.00587809
7.15582e-06
-0.00643861
8.27692e-06
-0.00699955
9.35662e-06
-0.00756048
1.03453e-05
-0.00812199
1.12026e-05
-0.00868337
1.18835e-05
-0.00924554
1.23224e-05
-0.00980747
1.24974e-05
-0.0103705
1.22966e-05
-0.0109329
1.1745e-05
-0.0114971
1.06444e-05
-0.0120599
9.10797e-06
-0.0126256
6.77463e-06
-0.0131892
4.00626e-06
-0.0002798
-0.000839427
8.29094e-08
-0.00139907
3.30829e-07
-0.00195882
7.38642e-07
-0.00251853
1.29962e-06
-0.00307845
1.99994e-06
-0.0036383
2.82786e-06
-0.00419839
3.75931e-06
-0.0047585
4.77835e-06
-0.00531874
5.85032e-06
-0.00587921
6.95517e-06
-0.00643968
8.04912e-06
-0.00700053
9.10412e-06
-0.00756133
1.00706e-05
-0.00812266
1.0909e-05
-0.0086838
1.15736e-05
-0.00924571
1.19999e-05
-0.00980725
1.21656e-05
-0.01037
1.19633e-05
-0.0109318
1.14212e-05
-0.0114955
1.03507e-05
-0.0120575
8.87317e-06
-0.0126228
6.64842e-06
-0.0131852
3.92958e-06
-0.000279882
-0.000839674
8.02011e-08
-0.00139947
3.20041e-07
-0.00195938
7.14578e-07
-0.00251922
1.25745e-06
-0.00307927
1.93526e-06
-0.00363923
2.73703e-06
-0.0041994
3.6394e-06
-0.00475957
4.6276e-06
-0.00531984
5.66799e-06
-0.0058803
6.74196e-06
-0.00644073
7.80681e-06
-0.00700149
8.83594e-06
-0.00756215
9.78041e-06
-0.00812331
1.06015e-05
-0.00868422
1.12532e-05
-0.00924587
1.16709e-05
-0.00980704
1.18314e-05
-0.0103694
1.16285e-05
-0.0109307
1.10906e-05
-0.011494
1.00364e-05
-0.0120553
8.59001e-06
-0.0126201
6.4208e-06
-0.0131812
3.81901e-06
-0.000279962
-0.000839913
7.74664e-08
-0.00139987
3.09128e-07
-0.00195992
6.90225e-07
-0.0025199
1.21463e-06
-0.00308007
1.86942e-06
-0.00364012
2.64415e-06
-0.00420038
3.51629e-06
-0.0047606
4.47196e-06
-0.00532091
5.47865e-06
-0.00588135
6.51922e-06
-0.00644175
7.55237e-06
-0.00700243
8.55321e-06
-0.00756297
9.47404e-06
-0.00812395
1.02776e-05
-0.00868463
1.09185e-05
-0.00924602
1.1332e-05
-0.00980683
1.14953e-05
-0.0103689
1.12997e-05
-0.0109296
1.07727e-05
-0.0114926
9.73557e-06
-0.0120531
8.31071e-06
-0.0126175
6.18758e-06
-0.0131774
3.67643e-06
-0.000280039
-0.000840143
7.47361e-08
-0.00140024
2.9823e-07
-0.00196044
6.65841e-07
-0.00252055
1.17172e-06
-0.00308084
1.80324e-06
-0.00364099
2.55059e-06
-0.00420134
3.39173e-06
-0.00476161
4.31377e-06
-0.00532194
5.28508e-06
-0.00588238
6.28995e-06
-0.00644274
7.28854e-06
-0.00700334
8.25776e-06
-0.00756376
9.15148e-06
-0.00812458
9.93456e-06
-0.00868504
1.05633e-05
-0.00924617
1.09738e-05
-0.00980663
1.1146e-05
-0.0103683
1.09672e-05
-0.0109286
1.0465e-05
-0.0114911
9.45537e-06
-0.012051
8.05591e-06
-0.012615
5.96979e-06
-0.0131737
3.49046e-06
-0.000280114
-0.000840366
7.20079e-08
-0.00140061
2.87327e-07
-0.00196094
6.41465e-07
-0.00252118
1.12873e-06
-0.00308158
1.73692e-06
-0.00364183
2.45659e-06
-0.00420225
3.26636e-06
-0.00476258
4.15393e-06
-0.00532294
5.08863e-06
-0.00588337
6.05592e-06
-0.00644371
7.01731e-06
-0.00700423
7.95133e-06
-0.00756453
8.81343e-06
-0.00812519
9.57084e-06
-0.00868544
1.01823e-05
-0.00924634
1.05859e-05
-0.00980644
1.07673e-05
-0.0103678
1.06097e-05
-0.0109275
1.01463e-05
-0.0114897
9.18124e-06
-0.0120489
7.83383e-06
-0.0126125
5.78835e-06
-0.0131702
3.31748e-06
-0.000280185
-0.00084058
6.92588e-08
-0.00140096
2.76347e-07
-0.00196143
6.16866e-07
-0.00252179
1.08539e-06
-0.0030823
1.66995e-06
-0.00364264
2.36167e-06
-0.00420314
3.13952e-06
-0.00476351
3.99195e-06
-0.00532391
4.88897e-06
-0.00588433
5.81714e-06
-0.00644463
6.73917e-06
-0.00700509
7.63478e-06
-0.00756528
8.4609e-06
-0.00812579
9.18664e-06
-0.00868584
9.77382e-06
-0.00924651
1.01622e-05
-0.00980628
1.0346e-05
-0.0103674
1.02044e-05
-0.0109266
9.78285e-06
-0.0114884
8.87054e-06
-0.0120468
7.6071e-06
-0.01261
5.64159e-06
-0.0131669
3.29314e-06
-0.000280254
-0.000840786
6.64383e-08
-0.0014013
2.65074e-07
-0.00196189
5.91645e-07
-0.00252237
1.04086e-06
-0.00308299
1.60123e-06
-0.00364341
2.26416e-06
-0.00420399
3.00926e-06
-0.0047644
3.82534e-06
-0.00532483
4.68336e-06
-0.00588525
5.57069e-06
-0.00644552
6.45135e-06
-0.00700591
7.30564e-06
-0.007566
8.09198e-06
-0.00812636
8.78064e-06
-0.00868623
9.33652e-06
-0.00924668
9.70043e-06
-0.00980613
9.87534e-06
-0.0103669
9.73723e-06
-0.0109256
9.3471e-06
-0.0114871
8.47727e-06
-0.0120448
7.30366e-06
-0.0126076
5.43002e-06
-0.0131636
3.2276e-06
-0.00028032
-0.000840984
6.34793e-08
-0.00140163
2.53246e-07
-0.00196234
5.65128e-07
-0.00252293
9.94106e-07
-0.00308365
1.52896e-06
-0.00364416
2.16168e-06
-0.0042048
2.87219e-06
-0.00476526
3.65005e-06
-0.00532571
4.46672e-06
-0.00588612
5.3109e-06
-0.00644637
6.14724e-06
-0.00700669
6.95756e-06
-0.00756668
7.69985e-06
-0.00812691
8.34784e-06
-0.00868659
8.86511e-06
-0.00924684
9.19872e-06
-0.00980597
9.35002e-06
-0.0103665
9.20499e-06
-0.0109247
8.82279e-06
-0.0114859
7.98249e-06
-0.012043
6.87651e-06
-0.0126054
5.09766e-06
-0.0131604
3.0445e-06
-0.000280383
-0.000841173
6.06373e-08
-0.00140194
2.4186e-07
-0.00196277
5.39637e-07
-0.00252346
9.49112e-07
-0.00308428
1.45957e-06
-0.00364486
2.06336e-06
-0.00420557
2.74095e-06
-0.00476607
3.48251e-06
-0.00532655
4.26004e-06
-0.00588695
5.06388e-06
-0.00644717
5.85879e-06
-0.00700742
6.62911e-06
-0.00756733
7.33081e-06
-0.00812741
7.94362e-06
-0.00868692
8.42602e-06
-0.00924698
8.73569e-06
-0.00980581
8.86249e-06
-0.0103661
8.7134e-06
-0.0109239
8.32785e-06
-0.0114848
7.51453e-06
-0.0120412
6.45309e-06
-0.0126033
4.76039e-06
-0.0131573
2.81748e-06
-0.000280444
-0.000841353
5.81254e-08
-0.00140223
2.31805e-07
-0.00196318
5.17096e-07
-0.00252397
9.09446e-07
-0.00308488
1.39845e-06
-0.00364554
1.97712e-06
-0.00420631
2.62629e-06
-0.00476685
3.33682e-06
-0.00532735
4.08156e-06
-0.00588774
4.85173e-06
-0.00644793
5.61375e-06
-0.00700812
6.35212e-06
-0.00756793
7.02492e-06
-0.00812789
7.61212e-06
-0.00868722
8.07636e-06
-0.0092471
8.37289e-06
-0.00980565
8.49575e-06
-0.0103657
8.34847e-06
-0.0109231
7.98056e-06
-0.0114837
7.19056e-06
-0.0120395
6.19361e-06
-0.0126013
4.56432e-06
-0.0131545
2.74134e-06
-0.000280502
-0.000841526
5.54139e-08
-0.00140252
2.20937e-07
-0.00196357
4.92771e-07
-0.00252445
8.66552e-07
-0.00308546
1.33245e-06
-0.00364618
1.88389e-06
-0.00420702
2.50243e-06
-0.00476759
3.17939e-06
-0.00532812
3.88879e-06
-0.0058885
4.62248e-06
-0.00644867
5.34878e-06
-0.00700878
6.05218e-06
-0.00756851
6.69349e-06
-0.00812834
7.25253e-06
-0.00868752
7.69793e-06
-0.00924721
7.98081e-06
-0.0098055
8.10118e-06
-0.0103654
7.9553e-06
-0.0109223
7.60694e-06
-0.0114827
6.83696e-06
-0.0120378
5.89283e-06
-0.0125995
4.32473e-06
-0.0131517
2.66166e-06
-0.000280557
-0.00084169
5.24769e-08
-0.00140279
2.09169e-07
-0.00196394
4.66394e-07
-0.00252492
8.20118e-07
-0.003086
1.2609e-06
-0.0036468
1.78294e-06
-0.00420769
2.3683e-06
-0.0047683
3.0091e-06
-0.00532885
3.68042e-06
-0.00588921
4.37482e-06
-0.00644936
5.06243e-06
-0.00700942
5.72782e-06
-0.00756906
6.3348e-06
-0.00812878
6.86283e-06
-0.0086878
7.28752e-06
-0.00924732
7.55539e-06
-0.00980536
7.67368e-06
-0.010365
7.53123e-06
-0.0109216
7.21188e-06
-0.0114818
6.46865e-06
-0.0120362
5.56362e-06
-0.0125978
4.04602e-06
-0.0131491
2.46115e-06
-0.000280609
-0.000841846
4.92903e-08
-0.00140305
1.96394e-07
-0.00196429
4.3782e-07
-0.00252536
7.69766e-07
-0.00308652
1.18342e-06
-0.00364738
1.67357e-06
-0.00420833
2.22318e-06
-0.00476897
2.82498e-06
-0.00532954
3.45555e-06
-0.0058899
4.10777e-06
-0.00645002
4.75391e-06
-0.00701002
5.37828e-06
-0.00756959
5.94849e-06
-0.00812919
6.44254e-06
-0.00868807
6.84467e-06
-0.00924743
7.09426e-06
-0.00980522
7.20921e-06
-0.0103646
7.06913e-06
-0.0109208
6.79001e-06
-0.0114808
6.08857e-06
-0.0120347
5.2453e-06
-0.0125962
4.10351e-06
-0.0131466
2.28935e-06
-0.000280658
-0.000841993
4.58321e-08
-0.00140329
1.82546e-07
-0.00196462
4.06842e-07
-0.00252577
7.15281e-07
-0.00308701
1.09951e-06
-0.00364793
1.55528e-06
-0.00420893
2.06622e-06
-0.00476959
2.6261e-06
-0.00533019
3.21306e-06
-0.00589054
3.8201e-06
-0.00645064
4.42204e-06
-0.00701058
5.00238e-06
-0.00757008
5.53384e-06
-0.00812958
5.99117e-06
-0.00868831
6.36945e-06
-0.00924754
6.5973e-06
-0.00980509
6.70825e-06
-0.0103643
6.5656e-06
-0.0109201
6.32296e-06
-0.01148
5.67264e-06
-0.0120332
4.96548e-06
-0.0125948
3.62152e-06
-0.0131443
2.16716e-06
-0.000280703
-0.000842128
4.20882e-08
-0.00140351
1.67559e-07
-0.00196493
3.73383e-07
-0.00252615
6.56399e-07
-0.00308746
1.00895e-06
-0.00364844
1.42753e-06
-0.00420949
1.89687e-06
-0.00477018
2.4116e-06
-0.00533079
2.95193e-06
-0.00589113
3.51052e-06
-0.00645121
4.06549e-06
-0.00701111
4.59859e-06
-0.00757054
5.08957e-06
-0.00812994
5.50741e-06
-0.00868853
5.86105e-06
-0.00924765
6.06402e-06
-0.00980495
6.17692e-06
-0.0103641
6.03011e-06
-0.0109194
5.80972e-06
-0.0114793
5.18992e-06
-0.0120318
4.59066e-06
-0.0125933
3.31906e-06
-0.0131421
1.98696e-06
-0.000280745
-0.000842253
3.80622e-08
-0.00140372
1.51458e-07
-0.00196521
3.37403e-07
-0.0025265
5.93137e-07
-0.00308788
9.11572e-07
-0.00364891
1.29026e-06
-0.00421
1.71486e-06
-0.00477072
2.18117e-06
-0.00533134
2.67158e-06
-0.00589168
3.17806e-06
-0.00645174
3.68318e-06
-0.0070116
4.16553e-06
-0.00757096
4.61478e-06
-0.00813028
4.9899e-06
-0.00868873
5.318e-06
-0.00924776
5.49137e-06
-0.00980479
5.61671e-06
-0.0103638
5.47328e-06
-0.0109188
5.28848e-06
-0.0114787
5.10312e-06
-0.0120305
4.05426e-06
-0.012592
3.00865e-06
-0.0131401
1.79631e-06
-0.000280783
-0.000842366
3.37734e-08
-0.0014039
1.34289e-07
-0.00196547
2.99029e-07
-0.00252682
5.25585e-07
-0.00308826
8.07593e-07
-0.00364933
1.14363e-06
-0.00421046
1.52056e-06
-0.0047712
1.93509e-06
-0.00533184
2.37212e-06
-0.00589218
2.82233e-06
-0.00645222
3.27467e-06
-0.00701204
3.7024e-06
-0.00757133
4.10974e-06
-0.0081306
4.43826e-06
-0.0086889
4.7421e-06
-0.00924787
4.87843e-06
-0.00980464
5.02051e-06
-0.0103637
4.88486e-06
-0.0109182
4.80842e-06
-0.0114781
4.33176e-06
-0.0120294
3.66114e-06
-0.0125907
2.72777e-06
-0.0131383
1.61733e-06
-0.000280816
-0.000842466
2.92328e-08
-0.00140406
1.16126e-07
-0.00196569
2.58371e-07
-0.0025271
4.54044e-07
-0.00308859
6.9733e-07
-0.0036497
9.88299e-07
-0.00421087
1.31479e-06
-0.00477163
1.67447e-06
-0.00533229
2.0546e-06
-0.00589263
2.44389e-06
-0.00645264
2.84089e-06
-0.00701245
3.20913e-06
-0.00757166
3.57693e-06
-0.0081309
3.85312e-06
-0.00868904
4.14095e-06
-0.00924799
4.23217e-06
-0.0098045
4.39771e-06
-0.0103636
4.63282e-06
-0.0109176
4.11106e-06
-0.0114775
3.74163e-06
-0.0120285
3.19999e-06
-0.0125896
2.39656e-06
-0.0131367
1.42088e-06
-0.000280845
-0.000842552
2.43996e-08
-0.00140421
9.69606e-08
-0.00196589
2.15594e-07
-0.00252735
3.78861e-07
-0.00308888
5.81578e-07
-0.00365003
8.25271e-07
-0.00421123