/*--------------------------------*- C++ -*----------------------------------*\
  =========                 |
  \\      /  F ield         | OpenFOAM: The Open Source CFD Toolbox
   \\    /   O peration     | Website:  https://openfoam.org
    \\  /    A nd           | Version:  10
     \\/     M anipulation  |
\*---------------------------------------------------------------------------*/
FoamFile
{
    format      ascii;
    class       volScalarField;
    location    "0.16";
    object      T;
}
// * * * * * * * * * * * * * * * * * * * * * * * * * * * * * * * * * * * * * //

dimensions      [0 0 0 1 0 0 0];

internalField   nonuniform List<scalar> 
4176
(
180.349
180.353
180.374
180.384
180.427
180.447
180.508
180.539
180.615
180.662
180.751
180.811
180.915
180.987
181.102
181.193
181.309
181.431
181.536
181.704
181.779
182.012
182.024
182.329
180.358
180.363
180.384
180.395
180.438
180.459
180.52
180.554
180.63
180.679
180.769
180.831
180.937
181.011
181.13
181.223
181.341
181.466
181.573
181.745
181.82
182.063
182.079
182.414
180.386
180.391
180.411
180.422
180.464
180.485
180.544
180.577
180.651
180.7
180.787
180.848
180.952
181.024
181.14
181.23
181.348
181.469
181.574
181.741
181.812
182.05
182.066
182.411
180.438
180.442
180.462
180.474
180.515
180.536
180.595
180.629
180.702
180.751
180.838
180.899
181.003
181.074
181.192
181.281
181.4
181.524
181.623
181.796
181.864
182.099
182.112
182.442
180.513
180.517
180.537
180.548
180.589
180.61
180.668
180.701
180.774
180.822
180.908
180.968
181.072
181.141
181.259
181.346
181.466
181.587
181.684
181.859
181.926
182.157
182.171
182.49
180.612
180.616
180.636
180.647
180.687
180.708
180.766
180.799
180.87
180.919
181.004
181.063
181.166
181.235
181.352
181.437
181.559
181.675
181.778
181.947
182.016
182.245
182.262
182.581
180.735
180.739
180.759
180.77
180.81
180.83
180.887
180.92
180.99
181.038
181.122
181.181
181.282
181.351
181.466
181.55
181.673
181.783
181.891
182.053
182.124
182.35
182.369
182.686
180.882
180.886
180.905
180.916
180.956
180.976
181.032
181.065
181.134
181.181
181.264
181.323
181.423
181.49
181.605
181.687
181.809
181.916
182.026
182.183
182.256
182.479
182.499
182.812
181.052
181.057
181.076
181.086
181.125
181.145
181.201
181.233
181.301
181.348
181.43
181.487
181.586
181.653
181.766
181.846
181.968
182.071
182.182
182.334
182.41
182.627
182.649
182.957
181.247
181.251
181.27
181.28
181.319
181.338
181.393
181.425
181.492
181.538
181.619
181.676
181.773
181.838
181.95
182.029
182.15
182.249
182.362
182.508
182.586
182.798
182.822
183.125
181.465
181.469
181.488
181.498
181.536
181.555
181.609
181.64
181.707
181.752
181.831
181.887
181.983
182.047
182.157
182.234
182.354
182.45
182.564
182.704
182.784
182.991
183.016
183.313
181.707
181.711
181.729
181.739
181.777
181.796
181.849
181.879
181.945
181.989
182.067
182.122
182.216
182.279
182.388
182.463
182.581
182.674
182.788
182.923
183.005
183.205
183.231
183.522
181.972
181.977
181.995
182.004
182.042
182.06
182.112
182.142
182.206
182.25
182.326
182.38
182.472
182.534
182.641
182.714
182.831
182.921
183.034
183.165
183.246
183.442
183.468
183.753
182.262
182.266
182.284
182.293
182.33
182.347
182.399
182.428
182.491
182.533
182.609
182.661
182.752
182.812
182.917
182.988
183.103
183.19
183.303
183.428
183.512
183.699
183.727
184.006
182.575
182.579
182.596
182.605
182.642
182.658
182.709
182.737
182.799
182.841
182.915
182.965
183.055
183.113
183.216
183.285
183.398
183.482
183.595
183.715
183.797
183.98
184.007
184.28
182.911
182.916
182.933
182.941
182.977
182.993
183.043
183.07
183.131
183.171
183.243
183.293
183.38
183.436
183.538
183.604
183.715
183.796
183.908
184.023
184.106
184.282
184.31
184.576
183.272
183.276
183.293
183.301
183.336
183.352
183.401
183.427
183.486
183.525
183.596
183.643
183.729
183.783
183.883
183.947
184.056
184.133
184.243
184.353
184.437
184.606
184.634
184.893
183.656
183.66
183.677
183.685
183.719
183.734
183.781
183.806
183.865
183.902
183.971
184.017
184.1
184.153
184.25
184.312
184.418
184.493
184.601
184.706
184.789
184.952
184.98
185.232
184.064
184.068
184.084
184.092
184.125
184.139
184.186
184.21
184.267
184.302
184.37
184.414
184.495
184.545
184.64
184.699
184.803
184.875
184.981
185.081
185.164
185.32
185.349
185.593
184.496
184.5
184.515
184.522
184.555
184.568
184.614
184.637
184.692
184.726
184.791
184.833
184.913
184.96
185.053
185.109
185.211
185.279
185.383
185.478
185.56
185.71
185.738
185.975
184.951
184.955
184.971
184.977
185.009
185.021
185.066
185.087
185.14
185.173
185.236
185.277
185.353
185.399
185.489
185.542
185.641
185.706
185.807
185.897
185.978
186.122
186.15
186.379
185.43
185.434
185.449
185.455
185.486
185.497
185.54
185.56
185.612
185.643
185.704
185.742
185.817
185.86
185.947
185.997
186.094
186.155
186.254
186.339
186.419
186.555
186.584
186.805
185.933
185.936
185.951
185.956
185.987
185.997
186.039
186.057
186.108
186.137
186.196
186.232
186.304
186.344
186.428
186.475
186.569
186.626
186.722
186.803
186.881
187.011
187.039
187.252
186.459
186.462
186.477
186.481
186.511
186.52
186.56
186.577
186.626
186.653
186.71
186.743
186.813
186.851
186.932
186.976
187.066
187.12
187.213
187.289
187.365
187.488
187.516
187.72
187.009
187.012
187.026
187.03
187.058
187.066
187.105
187.121
187.167
187.193
187.247
187.279
187.345
187.38
187.459
187.5
187.586
187.637
187.726
187.797
187.872
187.988
188.015
188.21
187.581
187.585
187.598
187.601
187.629
187.636
187.673
187.687
187.732
187.755
187.808
187.836
187.9
187.932
188.008
188.046
188.129
188.175
188.261
188.328
188.4
188.509
188.535
188.722
188.178
188.181
188.194
188.196
188.223
188.228
188.265
188.277
188.32
188.341
188.391
188.417
188.478
188.507
188.579
188.614
188.694
188.737
188.819
188.881
188.951
189.052
189.076
189.256
188.796
188.799
188.812
188.814
188.839
188.844
188.879
188.889
188.93
188.949
188.997
189.02
189.079
189.105
189.174
189.205
189.281
189.32
189.399
189.456
189.522
189.618
189.64
189.812
189.438
189.441
189.453
189.454
189.479
189.482
189.516
189.525
189.564
189.58
189.626
189.646
189.702
189.725
189.79
189.818
189.891
189.926
190.001
190.054
190.117
190.205
190.226
190.39
190.102
190.105
190.117
190.117
190.141
190.143
190.175
190.182
190.219
190.234
190.277
190.295
190.348
190.368
190.43
190.454
190.523
190.554
190.625
190.673
190.733
190.814
190.834
190.989
190.789
190.792
190.803
190.803
190.826
190.827
190.857
190.863
190.898
190.91
190.951
190.966
191.016
191.033
191.091
191.112
191.178
191.205
191.272
191.315
191.372
191.445
191.464
191.61
191.498
191.501
191.512
191.511
191.533
191.532
191.561
191.565
191.598
191.609
191.647
191.66
191.706
191.72
191.776
191.793
191.855
191.877
191.94
191.979
192.031
192.099
192.116
192.253
192.23
192.232
192.242
192.241
192.262
192.26
192.288
192.29
192.321
192.329
192.365
192.375
192.419
192.43
192.482
192.495
192.554
192.572
192.631
192.665
192.714
192.775
192.79
192.918
192.983
192.985
192.995
192.992
193.013
193.01
193.036
193.036
193.066
193.072
193.105
193.113
193.154
193.162
193.21
193.22
193.275
193.289
193.344
193.373
193.418
193.473
193.486
193.604
193.758
193.759
193.769
193.766
193.785
193.781
193.806
193.805
193.832
193.836
193.867
193.872
193.911
193.915
193.961
193.967
194.018
194.028
194.079
194.103
194.144
194.193
194.204
194.313
194.554
194.555
194.565
194.561
194.579
194.574
194.598
194.595
194.62
194.622
194.651
194.653
194.689
194.69
194.733
194.735
194.783
194.789
194.836
194.855
194.893
194.935
194.944
195.043
195.371
195.373
195.381
195.377
195.395
195.389
195.411
195.407
195.43
195.43
195.456
195.456
195.489
195.487
195.527
195.525
195.57
195.571
195.615
195.629
195.663
195.699
195.705
195.795
196.21
196.211
196.219
196.214
196.231
196.224
196.245
196.239
196.261
196.259
196.282
196.28
196.31
196.306
196.342
196.337
196.378
196.375
196.416
196.424
196.455
196.485
196.488
196.569
197.069
197.07
197.078
197.073
197.088
197.08
197.1
197.093
197.113
197.109
197.13
197.125
197.153
197.145
197.179
197.17
197.208
197.201
197.237
197.241
197.269
197.293
197.293
197.364
197.949
197.95
197.957
197.951
197.966
197.957
197.976
197.967
197.985
197.979
197.999
197.991
198.016
198.006
198.036
198.023
198.058
198.047
198.08
198.079
198.103
198.122
198.119
198.182
198.849
198.85
198.857
198.851
198.865
198.855
198.872
198.862
198.878
198.87
198.888
198.878
198.9
198.887
198.915
198.898
198.93
198.914
198.945
198.938
198.958
198.971
198.965
199.021
199.77
199.77
199.777
199.77
199.784
199.772
199.788
199.777
199.792
199.782
199.797
199.785
199.805
199.789
199.814
199.794
199.823
199.803
199.83
199.818
199.835
199.841
199.833
199.881
200.71
200.711
200.718
200.71
200.722
200.711
200.725
200.712
200.725
200.714
200.727
200.713
200.73
200.711
200.734
200.71
200.736
200.712
200.736
200.719
200.733
200.733
200.722
200.761
201.671
201.671
201.678
201.669
201.681
201.668
201.682
201.667
201.679
201.666
201.677
201.66
201.675
201.653
201.674
201.646
201.67
201.641
201.662
201.64
201.652
201.644
201.632
201.662
202.651
202.652
202.657
202.649
202.66
202.646
202.658
202.642
202.652
202.637
202.646
202.627
202.64
202.615
202.633
202.602
202.623
202.59
202.609
202.581
202.591
202.577
202.562
202.584
203.65
203.651
203.656
203.647
203.657
203.642
203.653
203.636
203.645
203.628
203.635
203.614
203.624
203.597
203.612
203.577
203.596
203.558
203.575
203.541
203.55
203.529
203.513
203.526
204.669
204.669
204.674
204.665
204.674
204.658
204.668
204.649
204.656
204.638
204.643
204.62
204.628
204.597
204.61
204.572
204.588
204.546
204.561
204.521
204.528
204.501
204.484
204.488
205.706
205.706
205.711
205.7
205.709
205.692
205.701
205.681
205.686
205.666
205.669
205.644
205.65
205.617
205.628
205.586
205.599
205.552
205.566
205.52
205.526
205.491
205.475
205.469
206.761
206.761
206.766
206.755
206.763
206.745
206.752
206.732
206.735
206.713
206.714
206.687
206.69
206.655
206.663
206.618
206.629
206.577
206.59
206.538
206.542
206.501
206.485
206.47
207.834
207.834
207.838
207.827
207.834
207.815
207.822
207.8
207.802
207.778
207.777
207.748
207.749
207.71
207.717
207.668
207.677
207.621
207.633
207.574
207.578
207.528
207.513
207.489
208.924
208.924
208.928
208.917
208.923
208.904
208.909
208.885
208.886
208.86
208.858
208.826
208.826
208.784
208.789
208.736
208.744
208.683
208.693
208.629
208.633
208.575
208.559
208.527
210.031
210.031
210.035
210.022
210.028
210.008
210.012
209.987
209.987
209.96
209.956
209.922
209.92
209.875
209.878
209.822
209.828
209.763
209.772
209.7
209.706
209.639
209.624
209.584
211.155
211.154
211.158
211.145
211.15
211.129
211.132
211.106
211.104
211.076
211.07
211.034
211.03
210.983
210.985
210.924
210.93
210.859
210.868
210.789
210.795
210.722
210.706
210.658
212.293
212.293
212.296
212.283
212.287
212.265
212.268
212.24
212.237
212.207
212.2
212.162
212.157
212.106
212.107
212.042
212.049
211.971
211.982
211.896
211.9
211.823
211.805
211.75
213.446
213.446
213.449
213.435
213.439
213.417
213.418
213.39
213.386
213.354
213.346
213.305
213.3
213.245
213.246
213.176
213.184
213.1
213.111
213.02
213.023
212.94
212.922
212.86
214.614
214.613
214.616
214.602
214.605
214.582
214.583
214.554
214.548
214.515
214.507
214.463
214.458
214.399
214.401
214.326
214.334
214.246
214.254
214.16
214.162
214.074
214.055
213.986
215.794
215.794
215.796
215.782
215.785
215.762
215.761
215.731
215.725
215.69
215.682
215.635
215.631
215.567
215.569
215.492
215.498
215.406
215.414
215.316
215.315
215.224
215.204
215.129
216.988
216.987
216.989
216.975
216.977
216.954
216.952
216.921
216.916
216.878
216.87
216.82
216.816
216.75
216.751
216.671
216.676
216.583
216.588
216.487
216.485
216.389
216.368
216.287
218.193
218.193
218.194
218.18
218.181
218.158
218.156
218.124
218.118
218.079
218.071
218.019
218.014
217.947
217.946
217.865
217.867
217.773
217.776
217.673
217.669
217.57
217.547
217.461
219.409
219.409
219.41
219.396
219.397
219.374
219.37
219.339
219.332
219.292
219.283
219.231
219.224
219.156
219.154
219.072
219.072
218.976
218.977
218.872
218.867
218.764
218.741
218.649
220.636
220.636
220.637
220.623
220.623
220.6
220.596
220.565
220.555
220.517
220.506
220.454
220.446
220.378
220.374
220.29
220.29
220.192
220.191
220.084
220.077
219.972
219.948
219.852
221.872
221.872
221.874
221.859
221.86
221.836
221.832
221.802
221.79
221.753
221.739
221.688
221.679
221.61
221.604
221.521
221.518
221.42
221.417
221.309
221.301
221.192
221.168
221.067
223.118
223.119
223.12
223.105
223.106
223.082
223.077
223.047
223.034
222.999
222.983
222.933
222.921
222.853
222.846
222.762
222.758
222.659
222.655
222.545
222.535
222.424
222.4
222.295
224.374
224.374
224.375
224.361
224.361
224.337
224.332
224.302
224.289
224.254
224.236
224.187
224.174
224.106
224.097
224.014
224.008
223.908
223.902
223.792
223.781
223.668
223.643
223.535
225.637
225.637
225.639
225.624
225.625
225.601
225.596
225.566
225.552
225.517
225.498
225.45
225.435
225.368
225.357
225.274
225.267
225.167
225.16
225.048
225.036
224.921
224.896
224.784
226.909
226.91
226.911
226.897
226.897
226.873
226.868
226.838
226.823
226.789
226.769
226.721
226.704
226.638
226.626
226.543
226.534
226.434
226.426
226.313
226.301
226.184
226.158
226.044
228.189
228.19
228.191
228.177
228.177
228.153
228.147
228.118
228.102
228.069
228.047
228
227.982
227.916
227.903
227.818
227.809
227.709
227.699
227.587
227.573
227.455
227.429
227.312
229.478
229.478
229.479
229.465
229.465
229.44
229.435
229.405
229.389
229.355
229.332
229.286
229.266
229.201
229.187
229.101
229.091
228.99
228.981
228.866
228.853
228.733
228.707
228.588
230.773
230.773
230.775
230.76
230.76
230.735
230.729
230.698
230.682
230.648
230.623
230.578
230.556
230.491
230.477
230.389
230.38
230.278
230.266
230.153
230.138
230.017
229.991
229.87
232.075
232.076
232.077
232.062
232.061
232.036
232.029
231.998
231.98
231.947
231.92
231.876
231.851
231.788
231.77
231.684
231.673
231.57
231.559
231.445
231.43
231.308
231.282
231.16
233.383
233.383
233.384
233.368
233.368
233.341
233.334
233.303
233.284
233.25
233.222
233.178
233.151
233.088
233.069
232.983
232.972
232.868
232.855
232.742
232.725
232.604
232.578
232.454
234.693
234.694
234.694
234.678
234.677
234.651
234.643
234.611
234.591
234.556
234.527
234.484
234.454
234.393
234.37
234.287
234.273
234.169
234.157
234.044
234.027
233.905
233.879
233.755
236.004
236.004
236.005
235.989
235.988
235.961
235.953
235.92
235.9
235.865
235.835
235.792
235.76
235.701
235.676
235.594
235.577
235.476
235.463
235.349
235.332
235.211
235.185
235.061
237.312
237.313
237.314
237.298
237.297
237.27
237.262
237.229
237.209
237.174
237.144
237.102
237.069
237.012
236.983
236.906
236.885
236.787
236.773
236.659
236.642
236.522
236.497
236.372
238.615
238.615
238.617
238.601
238.601
238.574
238.567
238.536
238.517
238.483
238.453
238.412
238.379
238.324
238.294
238.22
238.198
238.102
238.087
237.973
237.957
237.837
237.813
237.689
239.909
239.91
239.912
239.897
239.899
239.873
239.868
239.838
239.821
239.789
239.762
239.722
239.691
239.638
239.608
239.537
239.513
239.422
239.404
239.294
239.278
239.158
239.136
239.012
241.196
241.197
241.2
241.186
241.189
241.166
241.162
241.135
241.121
241.092
241.067
241.031
241.002
240.953
240.924
240.857
240.833
240.746
240.727
240.62
240.605
240.485
240.464
240.34
242.476
242.478
242.482
242.469
242.474
242.453
242.452
242.428
242.416
242.391
242.369
242.337
242.312
242.267
242.241
242.179
242.157
242.074
242.058
241.952
241.938
241.819
241.799
241.675
243.758
243.76
243.764
243.753
243.759
243.74
243.741
243.719
243.71
243.688
243.67
243.642
243.62
243.58
243.558
243.5
243.482
243.403
243.391
243.289
243.279
243.161
243.142
243.017
245.048
245.051
245.055
245.046
245.051
245.034
245.036
245.017
245.009
244.99
244.973
244.949
244.929
244.892
244.876
244.818
244.81
244.729
244.727
244.626
244.622
244.507
244.493
244.371
246.359
246.362
246.367
246.357
246.363
246.345
246.347
246.328
246.32
246.301
246.285
246.262
246.242
246.209
246.194
246.138
246.136
246.053
246.061
245.958
245.964
245.852
245.844
245.73
247.703
247.706
247.71
247.698
247.704
247.684
247.685
247.663
247.654
247.633
247.615
247.59
247.569
247.536
247.518
247.464
247.46
247.382
247.388
247.289
247.298
247.188
247.186
247.079
249.089
249.091
249.095
249.081
249.085
249.062
249.06
249.034
249.021
248.996
248.974
248.944
248.918
248.882
248.856
248.805
248.79
248.716
248.718
248.617
248.629
248.514
248.517
248.409
250.523
250.525
250.528
250.513
250.514
250.488
250.481
250.451
250.432
250.401
250.372
250.336
250.302
250.258
250.224
250.167
250.143
250.063
250.059
249.951
249.962
249.84
249.845
249.73
252.008
252.01
252.011
251.994
251.992
251.963
251.952
251.918
251.892
251.856
251.817
251.775
251.73
251.678
251.632
251.566
251.53
251.438
251.424
251.303
251.309
251.172
251.178
251.048
253.54
253.543
253.542
253.524
253.52
253.488
253.474
253.435
253.404
253.362
253.317
253.267
253.212
253.151
253.093
253.016
252.965
252.859
252.83
252.693
252.685
252.528
252.528
252.376
255.113
255.115
255.114
255.094
255.09
255.055
255.039
254.996
254.963
254.915
254.866
254.809
254.749
254.679
254.611
254.527
254.455
254.347
254.289
254.144
254.111
253.931
253.917
253.73
256.715
256.717
256.717
256.696
256.691
256.655
256.638
256.594
256.559
256.509
256.457
256.397
256.333
256.259
256.184
256.094
256.012
255.901
255.817
255.675
255.607
255.416
255.377
255.143
258.335
258.337
258.337
258.316
258.312
258.276
258.259
258.214
258.18
258.129
258.077
258.016
257.952
257.877
257.8
257.709
257.622
257.511
257.417
257.277
257.186
256.999
256.933
256.664
259.962
259.963
259.964
259.944
259.94
259.905
259.889
259.845
259.812
259.763
259.712
259.653
259.589
259.517
259.441
259.353
259.267
259.158
259.065
258.93
258.838
258.657
258.587
258.321
261.583
261.585
261.586
261.566
261.563
261.529
261.515
261.474
261.442
261.396
261.347
261.291
261.23
261.162
261.089
261.006
260.924
260.821
260.734
260.604
260.523
260.347
260.288
260.046
263.189
263.191
263.193
263.175
263.173
263.141
263.128
263.089
263.06
263.016
262.971
262.919
262.861
262.798
262.73
262.653
262.575
262.481
262.398
262.279
262.204
262.04
261.987
261.765
264.772
264.775
264.777
264.76
264.759
264.729
264.718
264.682
264.655
264.615
264.573
264.526
264.472
264.414
264.35
264.281
264.208
264.122
264.046
263.935
263.867
263.716
263.667
263.464
266.325
266.329
266.332
266.315
266.316
266.288
266.279
266.245
266.221
266.186
266.145
266.105
266.053
266.003
265.942
265.88
265.812
265.736
265.664
265.564
265.501
265.365
265.32
265.135
267.844
267.847
267.851
267.836
267.837
267.812
267.804
267.774
267.751
267.721
267.682
267.648
267.598
267.556
267.498
267.445
267.381
267.312
267.249
267.156
267.1
266.976
266.934
266.768
269.324
269.327
269.331
269.317
269.32
269.296
269.29
269.263
269.243
269.217
269.181
269.152
269.105
269.069
269.014
268.97
268.908
268.851
268.789
268.709
268.656
268.547
268.508
268.359
270.761
270.764
270.769
270.756
270.761
270.737
270.735
270.709
270.692
270.668
270.637
270.61
270.57
270.537
270.488
270.449
270.393
270.343
270.286
270.217
270.167
270.072
270.034
269.903
272.154
272.158
272.163
272.15
272.157
272.134
272.134
272.11
272.097
272.074
272.048
272.024
271.988
271.959
271.916
271.881
271.832
271.789
271.735
271.678
271.63
271.548
271.513
271.398
273.501
273.504
273.511
273.498
273.506
273.484
273.487
273.464
273.454
273.434
273.411
273.39
273.359
273.333
273.295
273.266
273.221
273.184
273.135
273.088
273.043
272.973
272.94
272.841
274.8
274.804
274.811
274.799
274.808
274.788
274.792
274.771
274.763
274.746
274.726
274.708
274.681
274.659
274.626
274.601
274.561
274.53
274.486
274.448
274.405
274.348
274.316
274.232
276.052
276.056
276.063
276.051
276.062
276.042
276.049
276.029
276.024
276.009
275.993
275.977
275.954
275.936
275.906
275.886
275.85
275.826
275.785
275.755
275.714
275.669
275.638
275.568
277.256
277.26
277.267
277.257
277.267
277.251
277.256
277.24
277.236
277.224
277.21
277.197
277.177
277.162
277.137
277.12
277.089
277.069
277.035
277.01
276.973
276.938
276.909
276.852
278.412
278.416
278.425
278.411
278.428
278.406
278.42
278.399
278.401
278.388
278.378
278.367
278.351
278.339
278.317
278.305
278.277
278.263
278.231
278.214
278.18
278.154
278.126
278.081
279.521
279.525
279.531
279.525
279.532
279.523
279.526
279.517
279.513
279.507
279.497
279.49
279.475
279.467
279.448
279.439
279.416
279.405
279.378
279.366
279.336
279.318
279.291
279.257
280.582
280.585
280.597
280.581
280.603
280.578
280.599
280.577
280.586
280.574
280.57
280.563
280.552
280.546
280.53
280.525
280.505
280.499
280.474
280.468
280.44
280.43
280.403
280.381
281.599
281.603
281.607
281.607
281.609
281.608
281.607
281.606
281.601
281.601
281.593
281.591
281.581
281.578
281.565
281.563
281.545
281.543
281.522
281.519
281.497
281.491
281.466
281.454
282.569
282.571
282.584
282.567
282.593
282.566
282.593
282.569
282.584
282.573
282.574
282.57
282.564
282.563
282.553
282.553
282.539
282.54
282.521
282.524
282.502
282.502
282.48
282.476
283.496
283.501
283.501
283.509
283.502
283.515
283.503
283.515
283.504
283.513
283.504
283.508
283.501
283.503
283.494
283.497
283.486
283.49
283.475
283.48
283.463
283.468
283.447
283.449
284.38
284.38
284.396
284.375
284.408
284.375
284.411
284.382
284.406
284.392
284.399
284.397
284.396
284.398
284.392
284.397
284.388
284.395
284.382
284.391
284.375
284.385
284.368
284.375
285.222
285.228
285.223
285.241
285.222
285.25
285.226
285.252
285.233
285.251
285.241
285.25
285.245
285.252
285.246
285.254
285.247
285.256
285.246
285.258
285.245
285.259
285.243
285.255
286.025
286.023
286.041
286.018
286.056
286.018
286.062
286.029
286.058
286.043
286.056
286.054
286.056
286.062
286.059
286.068
286.063
286.075
286.066
286.081
286.069
286.087
286.074
286.09
286.786
286.795
286.786
286.809
286.784
286.821
286.789
286.825
286.801
286.825
286.815
286.827
286.825
286.834
286.832
286.843
286.839
286.853
286.846
286.864
286.854
286.875
286.862
286.883
287.514
287.512
287.529
287.508
287.544
287.51
287.551
287.522
287.552
287.538
287.553
287.553
287.558
287.566
287.566
287.578
287.576
287.592
287.586
287.606
287.597
287.621
287.609
287.634
288.202
288.21
288.202
288.223
288.203
288.235
288.209
288.241
288.222
288.245
288.238
288.252
288.251
288.263
288.263
288.276
288.276
288.292
288.289
288.311
288.303
288.329
288.318
288.348
288.86
288.858
288.87
288.859
288.882
288.864
288.89
288.875
288.896
288.891
288.902
288.907
288.912
288.923
288.925
288.939
288.939
288.958
288.955
288.978
288.972
289
288.989
289.022
289.479
289.486
289.483
289.495
289.488
289.504
289.497
289.513
289.509
289.522
289.523
289.534
289.537
289.55
289.552
289.567
289.569
289.588
289.587
289.612
289.606
289.635
289.626
289.662
290.072
290.073
290.078
290.079
290.085
290.088
290.093
290.099
290.104
290.111
290.116
290.126
290.131
290.144
290.147
290.163
290.166
290.186
290.185
290.21
290.206
290.238
290.227
290.267
290.631
290.635
290.637
290.639
290.647
290.646
290.657
290.657
290.668
290.671
290.68
290.688
290.694
290.707
290.712
290.728
290.731
290.752
290.752
290.78
290.775
290.808
290.8
290.839
291.164
291.166
291.167
291.175
291.171
291.186
291.179
291.197
291.193
291.209
291.209
291.223
291.227
291.241
291.246
291.263
291.267
291.288
291.29
291.316
291.313
291.349
291.339
291.381
291.667
291.669
291.674
291.673
291.684
291.68
291.695
291.691
291.706
291.707
291.718
291.726
291.734
291.747
291.754
291.77
291.775
291.797
291.798
291.827
291.824
291.86
291.852
291.894
292.145
292.148
292.148
292.155
292.155
292.165
292.164
292.177
292.177
292.191
292.193
292.207
292.212
292.227
292.233
292.25
292.255
292.277
292.281
292.308
292.306
292.343
292.336
292.377
292.599
292.6
292.603
292.607
292.609
292.616
292.619
292.627
292.633
292.642
292.648
292.66
292.666
292.68
292.688
292.705
292.711
292.733
292.736
292.766
292.763
292.801
292.793
292.839
293.027
293.029
293.033
293.032
293.043
293.038
293.054
293.051
293.065
293.069
293.078
293.089
293.096
293.11
293.118
293.136
293.141
293.164
293.168
293.196
293.196
293.233
293.227
293.27
293.434
293.437
293.434
293.448
293.437
293.46
293.446
293.47
293.462
293.482
293.482
293.498
293.502
293.518
293.525
293.544
293.549
293.573
293.576
293.606
293.605
293.642
293.636
293.681
293.819
293.818
293.828
293.818
293.84
293.824
293.851
293.837
293.861
293.857
293.872
293.879
293.889
293.902
293.911
293.929
293.935
293.958
293.963
293.991
293.991
294.028
294.022
294.068
294.183
294.188
294.183
294.199
294.185
294.21
294.194
294.221
294.211
294.232
294.231
294.248
294.252
294.268
294.276
294.294
294.3
294.324
294.328
294.357
294.357
294.395
294.389
294.433
294.53
294.529
294.536
294.531
294.546
294.538
294.556
294.551
294.567
294.569
294.581
294.59
294.598
294.612
294.621
294.639
294.645
294.668
294.673
294.702
294.702
294.739
294.734
294.778
294.856
294.859
294.859
294.865
294.865
294.873
294.876
294.885
294.889
294.9
294.905
294.918
294.925
294.94
294.948
294.966
294.972
294.996
295
295.029
295.029
295.067
295.062
295.105
295.166
295.168
295.167
295.176
295.171
295.187
295.18
295.198
295.195
295.21
295.213
295.227
295.234
295.249
295.256
295.275
295.281
295.304
295.308
295.338
295.338
295.375
295.369
295.413
295.46
295.459
295.468
295.458
295.48
295.462
295.491
295.476
295.499
295.496
295.511
295.518
295.528
295.541
295.549
295.568
295.574
295.597
295.601
295.63
295.632
295.667
295.663
295.705
295.736
295.741
295.733
295.754
295.732
295.766
295.741
295.776
295.759
295.784
295.781
295.798
295.803
295.818
295.826
295.844
295.85
295.873
295.877
295.906
295.909
295.941
295.938
295.981
296.001
295.998
296.01
295.995
296.023
295.999
296.033
296.013
296.041
296.034
296.051
296.057
296.067
296.08
296.088
296.106
296.112
296.135
296.14
296.167
296.172
296.203
296.201
296.241
296.247
296.253
296.246
296.262
296.248
296.273
296.257
296.282
296.272
296.293
296.292
296.308
296.313
296.328
296.335
296.353
296.36
296.382
296.387
296.414
296.416
296.45
296.447
296.488
296.485
296.484
296.49
296.487
296.497
296.494
296.506
296.506
296.517
296.522
296.531
296.541
296.549
296.563
296.57
296.588
296.594
296.617
296.622
296.648
296.649
296.687
296.682
296.722
296.707
296.708
296.71
296.712
296.717
296.717
296.728
296.728
296.739
296.744
296.754
296.763
296.771
296.784
296.792
296.809
296.816
296.838
296.841
296.869
296.871
296.903
296.902
296.94
296.918
296.92
296.919
296.928
296.921
296.938
296.929
296.948
296.943
296.96
296.961
296.975
296.981
296.995
297.002
297.019
297.026
297.047
297.052
297.079
297.083
297.112
297.112
297.15
297.118
297.117
297.123
297.118
297.132
297.124
297.142
297.135
297.151
297.152
297.164
297.172
297.18
297.193
297.2
297.217
297.224
297.245
297.248
297.275
297.276
297.31
297.309
297.345
297.307
297.31
297.307
297.316
297.31
297.325
297.319
297.334
297.332
297.346
297.349
297.362
297.368
297.382
297.388
297.405
297.412
297.432
297.438
297.463
297.466
297.496
297.495
297.532
297.486
297.486
297.49
297.489
297.496
297.496
297.504
297.507
297.515
297.522
297.528
297.539
297.545
297.559
297.565
297.582
297.588
297.611
297.614
297.638
297.641
297.671
297.671
297.706
297.655
297.657
297.657
297.661
297.662
297.668
297.671
297.677
297.683
297.691
297.697
297.707
297.714
297.728
297.734
297.75
297.757
297.777
297.78
297.809
297.808
297.839
297.837
297.873
297.816
297.816
297.817
297.821
297.822
297.828
297.83
297.838
297.841
297.851
297.856
297.867
297.872
297.887
297.892
297.909
297.914
297.936
297.938
297.964
297.965
297.996
297.995
298.028
297.967
297.967
297.97
297.97
297.975
297.977
297.984
297.987
297.994
298.001
298.007
298.018
298.023
298.037
298.043
298.059
298.066
298.084
298.089
298.114
298.115
298.145
298.143
298.178
298.11
298.111
298.111
298.116
298.115
298.124
298.123
298.133
298.135
298.145
298.149
298.161
298.165
298.179
298.184
298.202
298.205
298.228
298.23
298.254
298.256
298.285
298.283
298.316
298.245
298.246
298.248
298.249
298.254
298.255
298.261
298.265
298.271
298.279
298.284
298.295
298.3
298.313
298.318
298.336
298.339
298.361
298.363
298.389
298.388
298.419
298.416
298.449
298.374
298.374
298.375
298.379
298.38
298.385
298.387
298.395
298.397
298.408
298.411
298.423
298.427
298.441
298.445
298.462
298.466
298.486
298.49
298.513
298.515
298.543
298.541
298.573
298.494
298.494
298.496
298.497
298.501
298.504
298.51
298.512
298.52
298.525
298.532
298.541
298.546
298.561
298.565
298.582
298.584
298.607
298.608
298.633
298.632
298.662
298.66
298.691
298.608
298.61
298.608
298.616
298.61
298.625
298.617
298.634
298.628
298.645
298.642
298.658
298.659
298.674
298.677
298.695
298.698
298.718
298.721
298.745
298.744
298.773
298.77
298.802
298.716
298.714
298.722
298.712
298.732
298.715
298.739
298.727
298.745
298.743
298.753
298.761
298.767
298.78
298.784
298.802
298.804
298.825
298.826
298.85
298.85
298.879
298.876
298.906
298.817
298.822
298.812
298.834
298.808
298.843
298.815
298.85
298.832
298.855
298.849
298.866
298.866
298.882
298.884
298.902
298.904
298.924
298.927
298.95
298.949
298.977
298.975
299.006
298.913
298.909
298.923
298.903
298.934
298.907
298.94
298.919
298.943
298.938
298.95
298.957
298.962
298.975
298.979
298.996
298.999
299.018
299.019
299.043
299.044
299.071
299.068
299.097
299.002
299.008
298.997
299.017
298.998
299.025
299.005
299.033
299.018
299.039
299.035
299.05
299.051
299.066
299.068
299.085
299.087
299.107
299.109
299.132
299.131
299.159
299.156
299.186
299.088
299.085
299.092
299.088
299.094
299.094
299.102
299.102
299.111
299.115
299.121
299.131
299.135
299.149
299.152
299.168
299.171
299.19
299.191
299.214
299.216
299.24
299.239
299.266
299.167
299.168
299.171
299.167
299.179
299.172
299.184
299.183
299.19
299.197
299.2
299.212
299.215
299.228
299.23
299.247
299.249
299.269
299.27
299.292
299.292
299.319
299.316
299.345
299.241
299.244
299.236
299.254
299.237
299.261
299.244
299.267
299.257
299.273
299.272
299.284
299.287
299.302
299.304
299.32
299.323
299.341
299.342
299.364
299.366
299.389
299.389
299.416
299.313
299.309
299.323
299.306
299.328
299.311
299.334
299.321
299.341
299.338
299.346
299.355
299.358
299.371
299.373
299.389
299.392
299.411
299.412
299.434