/*--------------------------------*- C++ -*----------------------------------*\
  =========                 |
  \\      /  F ield         | OpenFOAM: The Open Source CFD Toolbox
   \\    /   O peration     | Website:  https://openfoam.org
    \\  /    A nd           | Version:  10
     \\/     M anipulation  |
\*---------------------------------------------------------------------------*/
FoamFile
{
    format      ascii;
    class       volVectorField;
    location    "0.16";
    object      U;
}
// * * * * * * * * * * * * * * * * * * * * * * * * * * * * * * * * * * * * * //

dimensions      [0 1 -1 0 0 0 0];

internalField   nonuniform List<vector> 
4176
(
(497.454 -0.0147832 -2.62999e-09)
(497.44 0.0647776 8.2997e-10)
(497.415 0.000134008 -2.1605e-10)
(497.367 0.0918206 3.22767e-11)
(497.311 0.0493937 1.16796e-10)
(497.238 0.0912528 -1.52465e-10)
(497.146 0.123984 -3.0086e-10)
(497.054 0.0624801 -9.92335e-11)
(496.92 0.223134 9.25671e-11)
(496.815 0.00704079 1.59907e-10)
(496.638 0.342045 8.13718e-11)
(496.515 -0.0666785 1.93289e-10)
(496.305 0.467298 2.33136e-10)
(496.158 -0.136865 3.56519e-11)
(495.923 0.565112 -1.12972e-10)
(495.739 -0.132831 -9.31861e-11)
(495.503 0.525619 -1.74863e-10)
(495.252 0.0265212 -1.27551e-10)
(495.039 0.331834 1.67673e-10)
(494.696 0.325988 1.78326e-10)
(494.542 -0.019742 -3.09998e-11)
(494.063 0.774482 -1.12927e-10)
(494.033 -0.519511 1.03927e-11)
(493.411 1.44549 5.9294e-11)
(497.436 0.00428843 -2.62962e-09)
(497.421 0.115603 8.30623e-10)
(497.396 0.0751904 -2.16416e-10)
(497.346 0.204728 3.1661e-11)
(497.29 0.18465 1.1702e-10)
(497.214 0.265967 -1.52401e-10)
(497.121 0.319885 -3.02036e-10)
(497.026 0.297575 -9.94479e-11)
(496.89 0.480091 9.30972e-11)
(496.78 0.300163 1.6016e-10)
(496.602 0.660546 8.10463e-11)
(496.474 0.281112 1.93556e-10)
(496.26 0.84784 2.31897e-10)
(496.108 0.260964 3.5834e-11)
(495.867 1.00977 -1.12845e-10)
(495.68 0.304814 -9.28858e-11)
(495.436 1.03936 -1.76252e-10)
(495.182 0.513542 -1.27727e-10)
(494.962 0.911388 1.66813e-10)
(494.612 0.858111 1.7803e-10)
(494.458 0.625415 -3.09694e-11)
(493.958 1.33386 -1.15324e-10)
(493.922 0.122192 1.11482e-11)
(493.236 1.99541 5.88463e-11)
(497.38 0.0226356 -2.63388e-09)
(497.366 0.162268 8.29758e-10)
(497.341 0.146364 -2.18493e-10)
(497.291 0.309075 3.27782e-11)
(497.239 0.312246 1.17037e-10)
(497.162 0.428154 -1.5331e-10)
(497.074 0.503999 -2.99944e-10)
(496.978 0.5168 -9.80685e-11)
(496.848 0.720807 9.48613e-11)
(496.739 0.574812 1.60474e-10)
(496.566 0.958315 8.02486e-11)
(496.44 0.608487 1.93179e-10)
(496.23 1.20361 2.33988e-10)
(496.083 0.636519 3.60764e-11)
(495.844 1.42596 -1.13129e-10)
(495.664 0.716537 -9.19038e-11)
(495.422 1.51984 -1.79305e-10)
(495.176 0.968767 -1.29494e-10)
(494.961 1.45417 1.67643e-10)
(494.62 1.34674 1.77809e-10)
(494.473 1.24464 -3.19212e-11)
(493.983 1.88501 -1.12821e-10)
(493.948 0.835718 1.13513e-11)
(493.239 2.61148 5.97364e-11)
(497.276 0.0413676 -2.63294e-09)
(497.262 0.20978 8.33366e-10)
(497.238 0.218856 -2.19515e-10)
(497.188 0.415397 3.59515e-11)
(497.135 0.442208 1.16566e-10)
(497.059 0.593507 -1.57834e-10)
(496.97 0.691548 -3.00449e-10)
(496.875 0.740422 -1.01051e-10)
(496.744 0.966015 8.79056e-11)
(496.636 0.855109 1.63974e-10)
(496.462 1.26164 8.13133e-11)
(496.338 0.942812 1.91922e-10)
(496.125 1.56626 2.36009e-10)
(495.98 1.02067 3.47371e-11)
(495.738 1.85081 -1.20279e-10)
(495.56 1.13798 -9.33619e-11)
(495.314 2.01425 -1.77224e-10)
(495.064 1.42927 -1.30009e-10)
(494.859 2.00619 1.70072e-10)
(494.507 1.84353 1.77396e-10)
(494.366 1.85521 -3.47157e-11)
(493.883 2.42283 -1.13806e-10)
(493.854 1.52264 9.48448e-12)
(493.174 3.20816 5.01452e-11)
(497.125 0.0596969 -2.63469e-09)
(497.111 0.256309 8.3973e-10)
(497.087 0.289772 -2.15549e-10)
(497.038 0.519586 3.60578e-11)
(496.986 0.569337 1.20126e-10)
(496.91 0.755671 -1.52563e-10)
(496.823 0.875012 -3.02953e-10)
(496.728 0.959958 -9.9332e-11)
(496.599 1.20589 9.31509e-11)
(496.492 1.13058 1.61921e-10)
(496.319 1.55842 8.15976e-11)
(496.197 1.27159 1.95226e-10)
(495.986 1.9215 2.33064e-10)
(495.844 1.39839 3.39607e-11)
(495.602 2.26851 -1.1838e-10)
(495.429 1.55264 -9.60926e-11)
(495.179 2.50956 -1.78625e-10)
(494.935 1.87242 -1.29359e-10)
(494.732 2.55121 1.64765e-10)
(494.379 2.34138 1.83349e-10)
(494.239 2.44969 -2.70248e-11)
(493.761 2.94865 -1.11006e-10)
(493.731 2.16518 1.3003e-11)
(493.071 3.766 6.08748e-11)
(496.925 0.0780183 -2.64657e-09)
(496.911 0.302541 8.37575e-10)
(496.887 0.360534 -2.14001e-10)
(496.838 0.623189 3.1477e-11)
(496.787 0.696161 1.09294e-10)
(496.711 0.916978 -1.57645e-10)
(496.625 1.05804 -3.01059e-10)
(496.531 1.17844 -1.03761e-10)
(496.403 1.44517 9.34718e-11)
(496.296 1.40496 1.67357e-10)
(496.125 1.85431 8.19461e-11)
(496.003 1.59953 1.89941e-10)
(495.794 2.27513 2.30802e-10)
(495.653 1.776 3.65726e-11)
(495.411 2.68291 -1.21436e-10)
(495.243 1.97156 -9.37151e-11)
(494.987 3.00017 -1.68427e-10)
(494.755 2.31527 -1.2664e-10)
(494.539 3.1007 1.74714e-10)
(494.198 2.83816 1.85667e-10)
(494.053 3.04589 -3.12796e-11)
(493.579 3.47661 -1.21886e-10)
(493.544 2.81204 9.70108e-12)
(492.883 4.3229 6.10485e-11)
(496.677 0.0961622 -2.64401e-09)
(496.663 0.348109 8.34362e-10)
(496.64 0.430505 -2.29795e-10)
(496.59 0.725352 3.1587e-11)
(496.54 0.821529 1.24269e-10)
(496.465 1.07607 -1.56824e-10)
(496.38 1.23896 -3.12995e-10)
(496.286 1.39399 -9.96978e-11)
(496.16 1.68171 9.972e-11)
(496.054 1.67584 1.62551e-10)
(495.885 2.14676 7.92674e-11)
(495.764 1.92368 2.01327e-10)
(495.557 2.62438 2.47041e-10)
(495.417 2.14998 3.86856e-11)
(495.177 3.09122 -1.16986e-10)
(495.012 2.38883 -9.06254e-11)
(494.754 3.47976 -1.78215e-10)
(494.534 2.75991 -1.32468e-10)
(494.307 3.64809 1.69331e-10)
(493.979 3.32307 1.83391e-10)
(493.829 3.64093 -3.27116e-11)
(493.362 4.00409 -1.22098e-10)
(493.322 3.46865 1.19209e-11)
(492.662 4.88515 6.60208e-11)
(496.38 0.114169 -2.65845e-09)
(496.366 0.393209 8.44348e-10)
(496.343 0.499853 -2.09363e-10)
(496.294 0.826494 3.5252e-11)
(496.244 0.945727 1.11776e-10)
(496.17 1.23356 -1.5393e-10)
(496.086 1.41814 -2.97074e-10)
(495.993 1.60739 -1.0145e-10)
(495.868 1.91592 8.123e-11)
(495.763 1.94412 1.60087e-10)
(495.596 2.43628 9.01956e-11)
(495.476 2.24494 1.96024e-10)
(495.27 2.97002 2.21959e-10)
(495.133 2.52098 3.02394e-11)
(494.894 3.49503 -1.09936e-10)
(494.732 2.8036 -9.89159e-11)
(494.473 3.95196 -1.74923e-10)
(494.262 3.20217 -1.16088e-10)
(494.029 4.19082 1.73283e-10)
(493.712 3.8036 1.6888e-10)
(493.555 4.23405 -3.28849e-11)
(493.096 4.52669 -1.06112e-10)
(493.053 4.12001 9.31803e-12)
(492.401 5.44015 4.2722e-11)
(496.035 0.131994 -2.66886e-09)
(496.021 0.437753 8.30375e-10)
(495.998 0.568417 -2.31002e-10)
(495.95 0.926408 2.30763e-11)
(495.9 1.06847 1.12004e-10)
(495.826 1.38912 -1.62286e-10)
(495.744 1.59514 -3.12939e-10)
(495.651 1.81813 -1.05107e-10)
(495.529 2.1472 8.75269e-11)
(495.424 2.2091 1.56983e-10)
(495.259 2.72212 7.84426e-11)
(495.14 2.56243 1.94876e-10)
(494.937 3.3112 2.30826e-10)
(494.802 2.88799 3.17364e-11)
(494.564 3.89341 -1.16609e-10)
(494.406 3.21453 -9.6032e-11)
(494.147 4.41569 -1.79538e-10)
(493.944 3.64146 -1.27362e-10)
(493.705 4.72673 1.69938e-10)
(493.401 4.27754 1.75953e-10)
(493.238 4.82454 -3.48521e-11)
(492.788 5.04448 -1.17334e-10)
(492.74 4.76702 1.09916e-11)
(492.098 5.98852 5.89917e-11)
(495.641 0.149635 -2.65111e-09)
(495.627 0.481751 8.5843e-10)
(495.605 0.636194 -2.12026e-10)
(495.557 1.02511 4.63203e-11)
(495.508 1.18975 1.30893e-10)
(495.435 1.54277 -1.45242e-10)
(495.353 1.76996 -2.9654e-10)
(495.262 2.02625 -8.82105e-11)
(495.14 2.37553 1.05654e-10)
(495.037 2.47075 1.7368e-10)
(494.874 3.0042 9.68335e-11)
(494.757 2.87602 2.11103e-10)
(494.555 3.64778 2.49828e-10)
(494.423 3.25076 4.46415e-11)
(494.186 4.28626 -1.02955e-10)
(494.033 3.62133 -8.55091e-11)
(493.773 4.87128 -1.66052e-10)
(493.578 4.07699 -1.16625e-10)
(493.335 5.25512 1.83898e-10)
(493.042 4.74522 1.87734e-10)
(492.874 5.41046 -2.27266e-11)
(492.434 5.55567 -1.05308e-10)
(492.383 5.40777 2.03282e-11)
(491.75 6.52856 6.80491e-11)
(495.199 0.167066 -2.66977e-09)
(495.185 0.525148 8.46652e-10)
(495.163 0.703088 -2.21567e-10)
(495.115 1.1225 3.8898e-11)
(495.068 1.30941 1.24308e-10)
(494.995 1.69436 -1.53287e-10)
(494.914 1.9424 -3.02111e-10)
(494.824 2.23153 -9.05255e-11)
(494.704 2.60063 1.03656e-10)
(494.602 2.72879 1.71945e-10)
(494.441 3.28215 9.71863e-11)
(494.326 3.18529 2.13975e-10)
(494.126 3.97932 2.52932e-10)
(493.996 3.60871 4.65962e-11)
(493.761 4.67308 -9.82632e-11)
(493.612 4.02328 -7.96728e-11)
(493.353 5.31863 -1.58876e-10)
(493.165 4.50824 -1.10631e-10)
(492.918 5.77511 1.94422e-10)
(492.637 5.20599 1.98687e-10)
(492.463 5.99028 -3.44017e-11)
(492.036 6.05934 -1.39362e-10)
(491.98 6.04171 -8.95902e-12)
(491.358 7.05976 3.67967e-11)
(494.708 0.184264 -2.67578e-09)
(494.694 0.567901 8.48969e-10)
(494.673 0.769021 -2.24743e-10)
(494.625 1.21847 3.35405e-11)
(494.578 1.42735 1.19487e-10)
(494.506 1.84376 -1.5927e-10)
(494.427 2.11231 -3.10714e-10)
(494.338 2.43385 -1.00938e-10)
(494.22 2.82237 9.35207e-11)
(494.119 2.98305 1.62463e-10)
(493.96 3.5558 8.67255e-11)
(493.847 3.48999 2.05039e-10)
(493.649 4.30552 2.4243e-10)
(493.522 3.96143 3.71147e-11)
(493.289 5.0535 -1.12832e-10)
(493.144 4.41976 -9.35429e-11)
(492.886 5.75776 -1.76267e-10)
(492.704 4.93482 -1.2422e-10)
(492.455 6.2862 1.76046e-10)
(492.186 5.66048 1.8041e-10)
(492.007 6.56137 -2.94699e-11)
(491.592 6.55315 -1.1015e-10)
(491.533 6.66887 1.69054e-11)
(490.921 7.58163 6.32013e-11)
(494.169 0.201202 -2.6822e-09)
(494.155 0.609951 8.48101e-10)
(494.134 0.833894 -2.30929e-10)
(494.087 1.3129 2.7676e-11)
(494.041 1.54339 1.11446e-10)
(493.969 1.9908 -1.71626e-10)
(493.891 2.27949 -3.25739e-10)
(493.803 2.63299 -1.17991e-10)
(493.687 3.0405 7.65111e-11)
(493.588 3.2333 1.43732e-10)
(493.43 3.82487 6.04534e-11)
(493.32 3.78981 1.79238e-10)
(493.124 4.62606 2.09999e-10)
(493.001 4.30849 3.17714e-11)
(492.77 5.42706 -8.89399e-11)
(492.629 4.8101 -7.63365e-11)
(492.372 6.18855 -1.5844e-10)
(492.197 5.35636 -1.12001e-10)
(491.945 6.78763 1.88654e-10)
(491.687 6.10703 1.90935e-10)
(491.504 7.12391 -2.13273e-11)
(491.102 7.03724 -1.05098e-10)
(491.04 7.28719 2.21854e-11)
(490.44 8.09359 6.62784e-11)
(493.58 0.217854 -2.6804e-09)
(493.566 0.651246 8.72011e-10)
(493.546 0.897614 -2.31849e-10)
(493.499 1.40566 8.36569e-12)
(493.454 1.65736 1.08726e-10)
(493.384 2.13528 -1.62805e-10)
(493.307 2.44372 -3.05268e-10)
(493.22 2.82871 -8.09648e-11)
(493.105 3.25478 9.58067e-11)
(493.008 3.47928 1.443e-10)
(492.853 4.08912 7.35267e-11)
(492.745 4.08449 2.03039e-10)
(492.552 4.94066 2.52724e-10)
(492.431 4.64954 5.11869e-11)
(492.202 5.79342 -1.2205e-10)
(492.066 5.19378 -1.17419e-10)
(491.811 6.61059 -1.95085e-10)
(491.642 5.77227 -1.30857e-10)
(491.389 7.27896 1.82988e-10)
(491.143 6.54537 1.96824e-10)
(490.955 7.67704 -3.36483e-11)
(490.566 7.51036 -1.34046e-10)
(490.501 7.89546 5.29965e-12)
(489.914 8.59511 6.34598e-11)
(492.943 0.234199 -2.70135e-09)
(492.929 0.691736 8.32874e-10)
(492.909 0.960094 -2.23226e-10)
(492.863 1.49664 6.51355e-11)
(492.819 1.76911 1.34673e-10)
(492.749 2.27701 -1.60085e-10)
(492.674 2.60475 -3.25937e-10)
(492.588 3.02075 -1.27214e-10)
(492.476 3.4649 9.30478e-11)
(492.38 3.72067 1.86534e-10)
(492.227 4.34823 9.43745e-11)
(492.121 4.3737 1.97614e-10)
(491.931 5.24903 2.18817e-10)
(491.814 4.98424 2.97929e-11)
(491.587 6.15225 -9.79149e-11)
(491.455 5.57034 -8.84108e-11)
(491.202 7.02343 -1.8513e-10)
(491.041 6.18182 -1.42453e-10)
(490.786 7.75958 1.42419e-10)
(490.552 6.97515 1.67899e-10)
(490.36 8.2204 -2.06778e-11)
(489.984 7.97174 -1.09882e-10)
(489.917 8.49241 5.41532e-12)
(489.343 9.08565 3.80744e-11)
(492.256 0.250214 -2.69266e-09)
(492.242 0.731374 8.83617e-10)
(492.222 1.02125 -2.30447e-10)
(492.177 1.58572 5.41971e-12)
(492.134 1.87848 1.0759e-10)
(492.066 2.41579 -1.60802e-10)
(491.992 2.76233 -2.98667e-10)
(491.908 3.2088 -7.42197e-11)
(491.797 3.67054 9.71808e-11)
(491.704 3.95712 1.4593e-10)
(491.553 4.60183 8.02255e-11)
(491.45 4.65707 2.11837e-10)
(491.262 5.55081 2.63729e-10)
(491.148 5.31222 2.64947e-11)
(490.925 6.50321 -1.54299e-10)
(490.797 5.93933 -1.13936e-10)
(490.546 7.42672 -1.85751e-10)
(490.392 6.58419 -1.17788e-10)
(490.137 8.22873 1.98457e-10)
(489.914 7.39613 1.74604e-10)
(489.719 8.75334 -5.96166e-11)
(489.357 8.42105 -1.23204e-10)
(489.286 9.07745 1.8745e-11)
(488.727 9.56451 7.55775e-11)
(491.52 0.265878 -2.71398e-09)
(491.506 0.770115 8.47854e-10)
(491.487 1.08101 -2.48912e-10)
(491.442 1.67278 1.63395e-12)
(491.4 1.9853 1.18556e-10)
(491.333 2.55141 -1.34504e-10)
(491.261 2.91621 -2.9577e-10)
(491.178 3.39258 -9.29881e-11)
(491.07 3.87135 9.40925e-11)
(490.979 4.18824 1.57517e-10)
(490.831 4.8495 6.91336e-11)
(490.73 4.93415 1.80686e-10)
(490.546 5.84557 2.4485e-10)
(490.435 5.63305 5.73323e-11)
(490.215 6.84597 -1.03707e-10)
(490.092 6.30038 -9.06824e-11)
(489.843 7.82019 -1.82429e-10)
(489.695 6.97854 -1.34436e-10)
(489.441 8.68559 1.56404e-10)
(489.229 7.80795 1.51639e-10)
(489.031 9.27432 -7.12079e-11)
(488.683 8.85894 -1.2008e-10)
(488.608 9.65103 3.6627e-11)
(488.065 10.0304 7.22718e-11)
(490.734 0.281166 -2.71312e-09)
(490.72 0.807905 8.74077e-10)
(490.701 1.13928 -2.15535e-10)
(490.657 1.75772 5.63081e-11)
(490.616 2.08941 1.42223e-10)
(490.55 2.68369 -1.39276e-10)
(490.48 3.06615 -2.88865e-10)
(490.4 3.5718 -6.9097e-11)
(490.293 4.06697 1.34831e-10)
(490.204 4.41364 1.69775e-10)
(490.06 5.09081 5.32289e-11)
(489.962 5.20446 1.77708e-10)
(489.78 6.13285 2.12622e-10)
(489.674 5.94623 5.74577e-12)
(489.457 7.18008 -1.45842e-10)
(489.339 6.65305 -1.1607e-10)
(489.093 8.2036 -1.99784e-10)
(488.951 7.36413 -1.38123e-10)
(488.698 9.12949 1.69683e-10)
(488.498 8.21032 1.80257e-10)
(488.296 9.7829 -2.76656e-11)
(487.964 9.28499 -1.05866e-10)
(487.884 10.2123 2.54595e-11)
(487.357 10.4828 7.62659e-11)
(489.898 0.296049 -2.72689e-09)
(489.885 0.84468 8.62565e-10)
(489.866 1.19595 -2.36497e-10)
(489.823 1.84037 3.00412e-11)
(489.783 2.19065 1.09892e-10)
(489.718 2.8124 -1.82908e-10)
(489.65 3.21189 -3.35648e-10)
(489.571 3.74617 -1.19459e-10)
(489.468 4.25707 7.65399e-11)
(489.381 4.63292 1.45812e-10)
(489.239 5.32532 6.63605e-11)
(489.145 5.46751 1.82588e-10)
(488.967 6.41212 2.09041e-10)
(488.864 6.25121 -2.29104e-12)
(488.65 7.50502 -1.63965e-10)
(488.538 6.99679 -1.39145e-10)
(488.295 8.57651 -1.87483e-10)
(488.16 7.74045 -9.74697e-11)
(487.909 9.55998 2.09779e-10)
(487.72 8.60284 2.06792e-10)
(487.515 10.2786 -6.85313e-12)
(487.198 9.69886 -9.47448e-11)
(487.114 10.7607 3.36457e-11)
(486.603 10.9213 8.04469e-11)
(489.012 0.310492 -2.75022e-09)
(488.999 0.880361 8.75856e-10)
(488.981 1.25091 -2.07842e-10)
(488.938 1.92059 3.49791e-11)
(488.9 2.2888 1.36078e-10)
(488.837 2.93733 -1.3404e-10)
(488.77 3.35316 -3.14947e-10)
(488.693 3.91539 -1.23911e-10)
(488.592 4.44134 9.47861e-11)
(488.509 4.84573 1.85295e-10)
(488.37 5.55262 8.02177e-11)
(488.279 5.72285 2.12912e-10)
(488.104 6.68286 2.59715e-10)
(488.006 6.54739 1.78792e-11)
(487.796 7.82021 -1.18983e-10)
(487.688 7.33097 -7.96622e-11)
(487.449 8.93837 -1.92817e-10)
(487.322 8.10694 -1.6013e-10)
(487.072 9.97667 1.60441e-10)
(486.894 8.9851 1.80061e-10)
(486.687 10.7609 -6.01922e-11)
(486.385 10.1002 -1.22945e-10)
(486.297 11.2957 2.11968e-11)
(485.803 11.3455 4.37777e-11)
(488.075 0.324457 -2.73798e-09)
(488.062 0.91486 8.89718e-10)
(488.045 1.30401 -2.08753e-10)
(488.004 1.99819 6.95492e-11)
(487.966 2.38364 1.54713e-10)
(487.905 3.0582 -1.72554e-10)
(487.84 3.4897 -3.619e-10)
(487.766 4.07917 -1.3323e-10)
(487.667 4.61942 7.68532e-11)
(487.586 5.05172 1.54509e-10)
(487.451 5.77232 8.06337e-11)
(487.364 5.97002 2.09417e-10)
(487.193 6.94461 2.51198e-10)
(487.099 6.83422 4.34067e-11)
(486.893 8.12506 -1.00624e-10)
(486.791 7.65491 -7.58111e-11)
(486.555 9.28859 -1.55156e-10)
(486.435 8.4629 -1.35835e-10)
(486.188 10.3792 1.32598e-10)
(486.021 9.35671 1.47937e-10)
(485.812 11.2291 -6.05213e-11)
(485.526 10.4888 -1.35791e-10)
(485.434 11.8166 -5.27624e-12)
(484.957 11.7549 5.25614e-11)
(487.088 0.337902 -2.76562e-09)
(487.075 0.948086 8.44653e-10)
(487.059 1.35509 -2.32846e-10)
(487.018 2.07296 7.00041e-11)
(486.982 2.47492 1.31694e-10)
(486.922 3.17476 -1.7337e-10)
(486.86 3.62118 -3.39389e-10)
(486.788 4.23718 -8.9932e-11)
(486.693 4.791 1.40253e-10)
(486.615 5.25053 1.93023e-10)
(486.483 5.98404 9.57271e-11)
(486.399 6.20863 1.96627e-10)
(486.232 7.1969 2.0777e-10)
(486.143 7.11119 2.07337e-11)
(485.942 8.41901 -1.06165e-10)
(485.845 7.96795 -9.80251e-11)
(485.614 9.62654 -2.00693e-10)
(485.501 8.80754 -1.57637e-10)
(485.256 10.7672 1.78089e-10)
(485.1 9.71731 2.03772e-10)
(484.89 11.6823 -2.68234e-11)
(484.619 10.8641 -1.27543e-10)
(484.523 12.3229 -1.9124e-11)
(484.064 12.1491 5.72568e-11)
(486.05 0.35079 -2.77673e-09)
(486.038 0.979951 8.48279e-10)
(486.022 1.40404 -2.33878e-10)
(485.982 2.14473 7.57384e-11)
(485.948 2.56242 1.42029e-10)
(485.89 3.28672 -1.68921e-10)
(485.83 3.74731 -3.4065e-10)
(485.76 4.3891 -1.40164e-10)
(485.668 4.95572 9.09592e-11)
(485.593 5.44181 1.98793e-10)
(485.465 6.18741 1.06381e-10)
(485.385 6.4383 2.0723e-10)
(485.222 7.43935 2.18872e-10)
(485.138 7.37786 2.98091e-11)
(484.941 8.70159 -9.63444e-11)
(484.85 8.26951 -9.37987e-11)
(484.623 9.95156 -1.96245e-10)
(484.518 9.13997 -1.48977e-10)
(484.277 11.1403 1.89148e-10)
(484.132 10.0665 2.13272e-10)
(483.92 12.1196 -1.68981e-11)
(483.666 11.2255 -1.18993e-10)
(483.566 12.8142 -4.42045e-12)
(483.126 12.5277 3.00213e-11)
(484.961 0.363091 -2.79359e-09)
(484.949 1.01038 8.92198e-10)
(484.934 1.45071 -2.09584e-10)
(484.895 2.21331 3.22981e-11)
(484.863 2.64591 8.6687e-11)
(484.806 3.39383 -1.85848e-10)
(484.749 3.86777 -3.16258e-10)
(484.682 4.53459 -1.2461e-10)
(484.592 5.1132 9.67398e-11)
(484.521 5.62519 1.89548e-10)
(484.397 6.38205 8.07115e-11)
(484.321 6.65865 2.23209e-10)
(484.163 7.67155 2.78083e-10)
(484.083 7.63382 2.47109e-11)
(483.891 8.97237 -1.6628e-10)
(483.806 8.55907 -1.17994e-10)
(483.584 10.2631 -1.80867e-10)
(483.486 9.4595 -1.44609e-10)
(483.249 11.4981 1.84554e-10)
(483.115 10.4037 2.00091e-10)
(482.903 12.54 -4.34072e-11)
(482.665 11.5724 -1.05402e-10)
(482.562 13.2893 4.65327e-11)
(482.141 12.8902 6.34856e-11)
(483.821 0.374781 -2.77204e-09)
(483.809 1.03933 9.19647e-10)
(483.795 1.49504 -1.95049e-10)
(483.758 2.2786 4.37277e-11)
(483.726 2.72523 9.22446e-11)
(483.672 3.49585 -1.87005e-10)
(483.617 3.9823 -3.2283e-10)
(483.553 4.67333 -8.1494e-11)
(483.467 5.26309 1.3515e-10)
(483.399 5.80026 1.69565e-10)
(483.278 6.56755 5.39896e-11)
(483.207 6.86928 1.93288e-10)
(483.053 7.89311 2.40817e-10)
(482.979 7.87869 3.45005e-11)
(482.791 9.23094 -1.06272e-10)
(482.713 8.83623 -6.90315e-11)
(482.496 10.5608 -1.92481e-10)
(482.406 9.7656 -1.64215e-10)
(482.173 11.84 1.57677e-10)
(482.049 10.7282 1.72121e-10)
(481.838 12.9429 -2.73548e-11)
(481.616 11.9037 -9.60722e-11)
(481.51 13.747 5.21028e-11)
(481.109 13.2359 6.36898e-11)
(482.63 0.385845 -2.77641e-09)
(482.618 1.06676 8.92781e-10)
(482.605 1.53695 -2.55281e-10)
(482.569 2.34048 5.57324e-11)
(482.539 2.80023 1.19656e-10)
(482.487 3.59262 -1.93721e-10)
(482.434 4.09065 -3.07713e-10)
(482.373 4.80503 -1.03705e-10)
(482.29 5.40505 7.49995e-11)
(482.226 5.96667 1.86907e-10)
(482.11 6.74349 9.35926e-11)
(482.043 7.06975 1.94369e-10)
(481.894 8.1036 2.64356e-10)
(481.825 8.11204 2.38473e-11)
(481.642 9.47693 -1.5834e-10)
(481.571 9.10057 -9.99447e-11)
(481.358 10.8442 -2.04419e-10)
(481.276 10.0578 -1.54546e-10)
(481.048 12.1655 1.87309e-10)
(480.935 11.0393 1.67742e-10)
(480.724 13.3277 -6.73701e-11)
(480.519 12.2188 -1.16215e-10)
(480.411 14.186 -7.69768e-12)
(480.029 13.5644 2.86399e-11)
(481.388 0.396273 -2.84489e-09)
(481.376 1.09265 8.71393e-10)
(481.363 1.5764 -2.56482e-10)
(481.328 2.3989 2.62833e-11)
(481.301 2.87082 1.2033e-10)
(481.25 3.68399 -1.71547e-10)
(481.201 4.19264 -3.20282e-10)
(481.142 4.92946 -8.63824e-11)
(481.063 5.53878 1.21347e-10)
(481.002 6.12406 1.99171e-10)
(480.891 6.90948 1.28811e-10)
(480.828 7.25965 2.01046e-10)
(480.684 8.30257 2.36325e-10)
(480.621 8.33345 1.80448e-11)
(480.444 9.7099 -1.35864e-10)
(480.378 9.3517 -1.05562e-10)
(480.171 11.113 -1.87602e-10)
(480.097 10.3356 -1.18723e-10)
(479.874 12.4743 2.00123e-10)
(479.771 11.3363 1.98691e-10)
(479.562 13.6938 -6.78037e-11)
(479.374 12.5174 -1.42016e-10)
(479.263 14.6057 -7.32186e-12)
(478.902 13.8752 4.44864e-11)
(480.094 0.406055 -2.81427e-09)
(480.083 1.11696 9.27973e-10)
(480.071 1.61335 -2.0064e-10)
(480.037 2.4538 3.89959e-11)
(480.011 2.93692 8.65654e-11)
(479.963 3.76987 -2.02599e-10)
(479.916 4.28816 -3.38931e-10)
(479.86 5.04646 -9.24335e-11)
(479.785 5.66406 1.22104e-10)
(479.728 6.27215 2.11785e-10)
(479.62 7.06517 9.40749e-11)
(479.563 7.43857 1.79363e-10)
(479.424 8.48957 2.25329e-10)
(479.366 8.54244 1.21962e-11)
(479.194 9.92941 -1.3078e-10)
(479.136 9.58919 -8.97376e-11)
(478.935 11.3668 -1.58334e-10)
(478.869 10.5987 -8.17567e-11)
(478.65 12.7662 1.89395e-10)
(478.558 11.6182 1.47058e-10)
(478.352 14.0397 -5.60911e-11)
(478.18 12.7999 -1.21432e-10)
(478.066 15.007 2.79677e-11)
(477.725 14.1686 9.26438e-11)
(478.749 0.415177 -2.81199e-09)
(478.738 1.13968 8.99389e-10)
(478.727 1.64777 -2.77439e-10)
(478.694 2.50511 3.2929e-11)
(478.67 2.99847 1.57598e-10)
(478.624 3.85017 -1.66546e-10)
(478.58 4.37709 -3.52296e-10)
(478.527 5.15589 -9.24423e-11)
(478.455 5.78075 8.69678e-11)
(478.402 6.41075 1.35442e-10)
(478.299 7.2103 9.46303e-11)
(478.247 7.6062 2.50433e-10)
(478.113 8.66422 2.50984e-10)
(478.061 8.73858 4.56668e-13)
(477.895 10.135 -1.25485e-10)
(477.844 9.81254 -6.77563e-11)
(477.648 11.6052 -1.83743e-10)
(477.59 10.8466 -1.47444e-10)
(477.377 13.0408 2.03259e-10)
(477.296 11.8845 1.74394e-10)
(477.092 14.3647 -7.51272e-11)
(476.938 13.0662 -1.272e-10)
(476.821 15.3887 4.01517e-11)
(476.501 14.4431 6.57791e-11)
(477.353 0.423624 -2.88314e-09)
(477.342 1.16077 8.76349e-10)
(477.331 1.67959 -2.66546e-10)
(477.3 2.55278 2.02996e-11)
(477.278 3.05538 1.10188e-10)
(477.233 3.92481 -1.92749e-10)
(477.192 4.45934 -3.41763e-10)
(477.142 5.25767 -1.04918e-10)
(477.074 5.88871 1.00137e-10)
(477.025 6.53972 1.72814e-10)
(476.927 7.34468 1.01395e-10)
(476.88 7.76231 2.33807e-10)
(476.751 8.82619 2.64795e-10)
(476.705 8.92147 3.51837e-11)
(476.545 10.3262 -1.19875e-10)
(476.501 10.0213 -9.09341e-11)
(476.311 11.8277 -1.77913e-10)
(476.262 11.0788 -1.14008e-10)
(476.054 13.2979 2.11049e-10)
(475.983 12.1346 2.08119e-10)
(475.783 14.668 -5.76081e-12)
(475.646 13.3145 -1.49637e-10)
(475.527 15.7513 -2.17158e-11)
(475.227 14.7005 3.81394e-11)
(475.905 0.431379 -2.81945e-09)
(475.894 1.18018 9.44004e-10)
(475.884 1.70876 -2.25536e-10)
(475.854 2.59671 6.03408e-11)
(475.834 3.10758 1.41483e-10)
(475.792 3.9937 -1.67939e-10)
(475.753 4.53483 -3.2459e-10)
(475.706 5.35172 -9.22237e-11)
(475.642 5.98788 1.0736e-10)
(475.597 6.659 1.73772e-10)
(475.503 7.46822 9.56065e-11)
(475.461 7.90676 2.1668e-10)
(475.337 8.97527 2.40371e-10)
(475.298 9.09085 1.08775e-11)
(475.143 10.5025 -1.59363e-10)
(475.107 10.2149 -1.38275e-10)
(474.923 12.0337 -2.30872e-10)
(474.883 11.2949 -1.02666e-10)
(474.681 13.5369 2.12782e-10)
(474.621 12.3681 1.97768e-10)
(474.425 14.9493 -1.86309e-11)
(474.303 13.5453 -1.10919e-10)
(474.182 16.0925 1.65327e-11)
(473.906 14.9385 6.68148e-11)
(474.405 0.438428 -2.84839e-09)
(474.394 1.19789 9.20204e-10)
(474.386 1.73524 -2.6411e-10)
(474.357 2.63686 6.03679e-11)
(474.338 3.15497 1.29685e-10)
(474.298 4.05675 -1.95516e-10)
(474.263 4.60347 -3.13399e-10)
(474.219 5.43794 -9.86085e-11)
(474.158 6.07817 8.89255e-11)
(474.118 6.76851 2.00354e-10)
(474.028 7.58085 1.02645e-10)
(473.991 8.03952 2.11634e-10)
(473.873 9.11137 2.80529e-10)
(473.839 9.2466 2.90213e-11)
(473.691 10.6639 -1.53855e-10)
(473.662 10.3931 -9.08604e-11)
(473.484 12.2228 -1.98764e-10)
(473.453 11.4941 -1.49711e-10)
(473.257 13.7574 2.1425e-10)
(473.207 12.5845 1.86916e-10)
(473.016 15.2089 -5.8712e-11)
(472.91 13.7594 -9.97349e-11)
(472.788 16.4108 1.71356e-11)
(472.534 15.1551 4.41922e-11)
(472.853 0.444763 -2.91157e-09)
(472.843 1.21388 9.24435e-10)
(472.835 1.75898 -2.27492e-10)
(472.808 2.67318 1.98286e-11)
(472.791 3.19751 1.36634e-10)
(472.753 4.11388 -1.49373e-10)
(472.72 4.66516 -3.53588e-10)
(472.68 5.51625 -9.20456e-11)
(472.623 6.15949 1.35416e-10)
(472.586 6.8682 1.62459e-10)
(472.502 7.68251 1.09705e-10)
(472.469 8.16056 2.63857e-10)
(472.356 9.23446 2.48659e-10)
(472.329 9.38868 3.49781e-11)
(472.186 10.8101 -1.01074e-10)
(472.165 10.5556 -1.2184e-10)
(471.994 12.3946 -1.93023e-10)
(471.971 11.6761 -1.02085e-10)
(471.782 13.9586 1.81748e-10)
(471.743 12.7827 1.93489e-10)
(471.557 15.4469 -4.98124e-12)
(471.466 13.9566 -1.29305e-10)
(471.343 16.7061 2.40715e-11)
(471.111 15.3514 9.15754e-11)
(471.25 0.450383 -2.88651e-09)
(471.24 1.22816 9.66285e-10)
(471.233 1.78 -1.9657e-10)
(471.207 2.70564 5.5199e-11)
(471.192 3.23518 9.85489e-11)
(471.157 4.16507 -1.91541e-10)
(471.126 4.71986 -3.22353e-10)
(471.089 5.58658 -6.51795e-11)
(471.036 6.23177 1.6297e-10)
(471.004 6.95797 1.96644e-10)
(470.923 7.77313 6.99885e-11)
(470.896 8.26982 2.20014e-10)
(470.789 9.3445 2.76859e-10)
(470.767 9.51713 6.02224e-11)
(470.631 10.9411 -8.13652e-11)
(470.616 10.7026 -1.03783e-10)
(470.452 12.5491 -2.42381e-10)
(470.438 11.8404 -1.4501e-10)
(470.255 14.1403 1.96961e-10)
(470.228 12.9621 2.06408e-10)
(470.047 15.663 1.54902e-11)
(469.971 14.1371 -1.18227e-10)
(469.847 16.9776 -3.03648e-11)
(469.638 15.5264 4.41068e-11)
(469.595 0.455295 -2.9586e-09)
(469.585 1.24073 8.96128e-10)
(469.579 1.79832 -2.82448e-10)
(469.554 2.73429 6.21397e-12)
(469.541 3.268 9.90162e-11)
(469.508 4.21031 -2.13586e-10)
(469.481 4.76756 -3.70493e-10)
(469.446 5.6489 -1.33553e-10)
(469.397 6.29494 7.65795e-11)
(469.369 7.03775 1.5055e-10)
(469.293 7.85262 7.04775e-11)
(469.271 8.36724 2.01518e-10)
(469.169 9.44143 2.30244e-10)
(469.154 9.63194 -4.76835e-12)
(469.023 11.057 -1.72005e-10)
(469.016 10.834 -1.42389e-10)
(468.858 12.6862 -2.36503e-10)
(468.853 11.9872 -1.63892e-10)
(468.676 14.3022 1.56446e-10)
(468.66 13.122 1.52412e-10)
(468.486 15.8564 -7.58025e-11)
(468.424 14.3002 -1.55078e-10)
(468.3 17.2249 -2.3279e-11)
(468.115 15.68 3.23817e-11)
(467.888 0.459512 -2.90621e-09)
(467.879 1.25162 9.39618e-10)
(467.873 1.81398 -2.71017e-10)
(467.85 2.75916 7.09855e-11)
(467.838 3.29601 1.39674e-10)
(467.807 4.24967 -1.93741e-10)
(467.783 4.80831 -3.04601e-10)
(467.752 5.70322 -8.50435e-11)
(467.706 6.349 1.04709e-10)
(467.682 7.1075 2.26569e-10)
(467.611 7.92089 1.2625e-10)
(467.594 8.45271 2.29636e-10)
(467.497 9.52513 3.07882e-10)
(467.488 9.73302 4.74171e-11)
(467.363 11.1578 -1.37832e-10)
(467.364 10.95 -1.30048e-10)
(467.212 12.8062 -2.44688e-10)
(467.216 12.1165 -1.26347e-10)
(467.046 14.4445 1.79486e-10)
(467.041 13.2625 1.53226e-10)
(466.872 16.027 -2.63677e-11)
(466.825 14.445 -1.31241e-10)
(466.702 17.4469 -2.31083e-11)
(466.54 15.8121 7.59384e-11)
(466.129 0.463044 -2.91248e-09)
(466.12 1.26086 9.52473e-10)
(466.116 1.82702 -2.66135e-10)
(466.093 2.78032 7.87698e-11)
(466.083 3.31931 1.47088e-10)
(466.055 4.28322 -1.88002e-10)
(466.033 4.84217 -2.99249e-10)
(466.005 5.74963 -7.7922e-11)
(465.963 6.394 1.12297e-10)
(465.943 7.16724 1.65631e-10)
(465.876 7.97792 6.42238e-11)
(465.864 8.52615 2.44612e-10)
(465.773 9.59547 2.53062e-10)
(465.771 9.82024 -6.02384e-12)
(465.651 11.2432 -1.24697e-10)
(465.66 11.0504 -1.1766e-10)
(465.513 12.9088 -2.31843e-10)
(465.527 12.2286 -1.13675e-10)
(465.363 14.5673 1.95746e-10)
(465.369 13.3837 1.66568e-10)
(465.206 16.175 -1.25821e-11)
(465.173 14.5698 -1.19744e-10)
(465.053 17.642 -1.79711e-12)
(464.913 15.9226 9.52709e-11)
(464.318 0.465903 -2.94466e-09)
(464.309 1.26847 1.00442e-09)
(464.306 1.83749 -2.40579e-10)
(464.284 2.79782 2.03805e-11)
(464.276 3.33795 1.47574e-10)
(464.249 4.31105 -1.31485e-10)
(464.23 4.86925 -3.28323e-10)
(464.205 5.78821 -1.27549e-10)
(464.167 6.43001 1.20129e-10)
(464.151 7.21703 2.29623e-10)
(464.089 8.02372 1.1413e-10)
(464.083 8.58756 2.11653e-10)
(463.996 9.65237 2.75618e-10)
(464 9.89345 6.78074e-11)
(463.887 11.313 -1.39706e-10)
(463.903 11.135 -1.44689e-10)
(463.763 12.994 -2.04178e-10)
(463.786 12.3234 -1.00805e-10)
(463.628 14.6709 1.97718e-10)
(463.645 13.4861 1.547e-10)
(463.487 16.3014 -4.23458e-11)
(463.468 14.6739 -1.01544e-10)
(463.351 17.8086 5.77227e-12)
(463.235 16.0114 2.67843e-11)
(462.455 0.468094 -2.98602e-09)
(462.446 1.27448 9.39033e-10)
(462.443 1.84541 -2.75677e-10)
(462.423 2.8117 5.59838e-12)
(462.417 3.35199 8.61572e-11)
(462.392 4.33321 -2.41867e-10)
(462.376 4.88961 -3.3705e-10)
(462.354 5.81906 -3.43449e-11)
(462.319 6.45715 1.70457e-10)
(462.307 7.25698 2.37962e-10)
(462.25 8.0584 1.43306e-10)
(462.248 8.63701 2.61588e-10)
(462.167 9.69584 2.84184e-10)
(462.177 9.95261 3.36804e-11)
(462.07 11.3672 -1.4777e-10)
(462.094 11.2037 -1.31979e-10)
(461.96 13.0614 -2.34561e-10)
(461.993 12.4007 -1.66499e-10)
(461.84 14.7549 1.4784e-10)
(461.869 13.5695 1.36111e-10)
(461.717 16.4062 -3.58314e-11)
(461.711 14.7581 -7.01434e-11)
(461.597 17.9469 6.52578e-11)
(461.504 16.0778 1.03226e-10)
(460.539 0.469617 -3.02801e-09)
(460.53 1.27888 9.52163e-10)
(460.528 1.8508 -2.43048e-10)
(460.509 2.82197 -1.57589e-12)
(460.505 3.36145 1.07119e-10)
(460.482 4.34974 -1.9164e-10)
(460.468 4.90333 -3.31785e-10)
(460.449 5.84224 -7.02216e-11)
(460.418 6.47548 8.65206e-11)
(460.41 7.28718 1.82141e-10)
(460.357 8.08205 1.22653e-10)
(460.36 8.6746 2.00027e-10)
(460.285 9.72594 2.49215e-10)
(460.301 9.99777 2.66053e-11)
(460.2 11.4055 -1.2687e-10)
(460.232 11.2562 -8.53811e-11)
(460.104 13.1108 -2.28269e-10)
(460.146 12.46 -1.33765e-10)
(460 14.8189 2.16265e-10)
(460.04 13.6337 1.49638e-10)
(459.894 16.4894 -6.67211e-11)
(459.902 14.8226 -1.28326e-10)
(459.792 18.0576 2.81605e-11)
(459.719 16.1224 9.08139e-11)
(458.57 0.470471 -2.97229e-09)
(458.562 1.28166 9.81527e-10)
(458.56 1.85364 -2.65246e-10)
(458.542 2.82861 1.36267e-11)
(458.54 3.36634 9.3673e-11)
(458.519 4.36064 -1.70663e-10)
(458.508 4.91039 -3.5471e-10)