/*--------------------------------*- C++ -*----------------------------------*\
  =========                 |
  \\      /  F ield         | OpenFOAM: The Open Source CFD Toolbox
   \\    /   O peration     | Website:  https://openfoam.org
    \\  /    A nd           | Version:  10
     \\/     M anipulation  |
\*---------------------------------------------------------------------------*/
FoamFile
{
    format      ascii;
    class       surfaceScalarField;
    location    "0.43";
    object      phi;
}
// * * * * * * * * * * * * * * * * * * * * * * * * * * * * * * * * * * * * * //

dimensions      [1 0 -1 0 0 0 0];

internalField   nonuniform List<scalar> 
8154
(
-5.77346e-09
-2.19396e-08
-5.65356e-08
-9.14767e-08
-1.71262e-07
-2.25792e-07
-3.70025e-07
-4.54761e-07
-6.74918e-07
-8.14538e-07
-1.10451e-06
-1.33715e-06
-1.66758e-06
-2.02698e-06
-2.35976e-06
-2.86541e-06
-3.25299e-06
-3.98542e-06
-4.56582e-06
-5.50749e-06
-6.82101e-06
-7.25517e-06
-6.85605e-06
-0.000277438
-0.000832368
2.40911e-08
-0.00138746
9.64657e-08
-0.00194288
2.13745e-07
-0.00249867
3.78527e-07
-0.00305503
5.77664e-07
-0.00361202
8.23657e-07
-0.00416973
1.08842e-06
-0.00472845
1.39719e-06
-0.0052879
1.7104e-06
-0.00584877
2.05553e-06
-0.00641057
2.40247e-06
-0.00697376
2.74815e-06
-0.00753865
3.12064e-06
-0.00810412
3.43704e-06
-0.00867313
3.85114e-06
-0.00924019
4.12787e-06
-0.0098149
4.57661e-06
-0.0103832
4.9255e-06
-0.0109646
5.13829e-06
-0.0115338
5.28101e-06
-0.0121235
5.11865e-06
-0.0126949
4.02738e-06
-0.0132929
2.44351e-06
-0.000277462
-0.000832441
2.6415e-08
-0.00138758
1.05039e-07
-0.00194305
2.35219e-07
-0.00249887
4.10696e-07
-0.00305528
6.35674e-07
-0.00361228
8.89748e-07
-0.00417004
1.19462e-06
-0.00472876
1.50053e-06
-0.00528825
1.86626e-06
-0.00584912
2.19e-06
-0.00641092
2.59281e-06
-0.00697413
2.89251e-06
-0.00753897
3.29899e-06
-0.00810454
3.53988e-06
-0.00867341
3.90584e-06
-0.00924064
4.10709e-06
-0.00981525
4.39382e-06
-0.0103835
5.00301e-06
-0.0109647
4.66479e-06
-0.0115336
5.23312e-06
-0.0121224
5.33405e-06
-0.0126933
5.0412e-06
-0.0132904
4.22179e-06
-0.000277488
-0.000832519
2.13592e-08
-0.00138771
8.51796e-08
-0.00194322
1.88603e-07
-0.00249909
3.3109e-07
-0.00305553
5.02398e-07
-0.00361259
7.07523e-07
-0.00417035
9.2264e-07
-0.00472913
1.16585e-06
-0.00528857
1.39335e-06
-0.00584952
1.64115e-06
-0.00641122
1.84571e-06
-0.00697454
2.04933e-06
-0.00753921
2.19706e-06
-0.00810491
2.28424e-06
-0.00867361
2.35512e-06
-0.00924092
2.20909e-06
-0.00981585
2.3473e-06
-0.0103831
1.90042e-06
-0.0109653
1.77979e-06
-0.0115337
1.39341e-06
-0.0121221
1.1615e-06
-0.0126925
7.2011e-07
-0.0132862
5.05156e-07
-0.00027751
-0.000832583
2.55958e-08
-0.00138781
1.02142e-07
-0.00194337
2.2659e-07
-0.00249926
3.98389e-07
-0.00305574
6.06162e-07
-0.0036128
8.55859e-07
-0.00417059
1.11948e-06
-0.00472936
1.42002e-06
-0.00528882
1.70178e-06
-0.00584972
2.01624e-06
-0.00641142
2.27152e-06
-0.00697468
2.54776e-06
-0.0075393
2.73308e-06
-0.00810499
2.89505e-06
-0.00867346
2.98618e-06
-0.00924106
2.90003e-06
-0.0098154
2.97807e-06
-0.010383
2.28472e-06
-0.0109649
2.51603e-06
-0.0115335
1.72681e-06
-0.0121217
1.21496e-06
-0.0126923
3.8005e-07
-0.0132857
-1.80462e-07
-0.000277535
-0.000832659
3.37075e-08
-0.00138794
1.34496e-07
-0.00194354
2.99728e-07
-0.00249947
5.27034e-07
-0.00305599
8.08506e-07
-0.00361306
1.14191e-06
-0.00417089
1.512e-06
-0.00472964
1.91861e-06
-0.00528914
2.33842e-06
-0.00584998
2.77278e-06
-0.0064117
3.19366e-06
-0.00697487
3.59535e-06
-0.00753946
3.96341e-06
-0.00810508
4.25827e-06
-0.00867337
4.52224e-06
-0.00924114
4.61676e-06
-0.00981471
4.73342e-06
-0.0103832
4.4025e-06
-0.0109641
4.36537e-06
-0.011533
3.67445e-06
-0.0121209
3.22373e-06
-0.0126917
2.27178e-06
-0.0132859
1.34233e-06
-0.000277569
-0.00083276
3.76251e-08
-0.0013881
1.50143e-07
-0.00194377
3.34903e-07
-0.00249975
5.89037e-07
-0.00305632
9.04948e-07
-0.00361343
1.27862e-06
-0.0041713
1.69627e-06
-0.00473006
2.15345e-06
-0.00528957
2.63044e-06
-0.0058504
3.12051e-06
-0.0064121
3.60203e-06
-0.00697524
4.05761e-06
-0.00753975
4.48085e-06
-0.00810535
4.82078e-06
-0.00867346
5.12348e-06
-0.00924125
5.25067e-06
-0.00981437
5.37111e-06
-0.0103832
5.08377e-06
-0.0109634
4.96567e-06
-0.0115325
4.21852e-06
-0.0121199
3.6917e-06
-0.0126908
2.6426e-06
-0.0132845
1.60945e-06
-0.000277606
-0.000832872
4.1452e-08
-0.00138829
1.65433e-07
-0.00194402
3.69152e-07
-0.00250007
6.49484e-07
-0.0030567
9.98431e-07
-0.00361385
1.41153e-06
-0.00417176
1.87418e-06
-0.00473053
2.38146e-06
-0.00529006
2.91194e-06
-0.00585088
3.45866e-06
-0.00641255
3.99623e-06
-0.00697566
4.50851e-06
-0.00754009
4.98157e-06
-0.00810566
5.36988e-06
-0.00867358
5.70621e-06
-0.00924137
5.86283e-06
-0.00981408
5.99805e-06
-0.0103831
5.71956e-06
-0.0109627
5.59606e-06
-0.011532
4.81282e-06
-0.0121189
4.21532e-06
-0.0126898
2.99488e-06
-0.0132829
1.79506e-06
-0.000277648
-0.000832996
4.51404e-08
-0.00138849
1.80149e-07
-0.0019443
4.02075e-07
-0.00250042
7.07392e-07
-0.00305711
1.08784e-06
-0.00361432
1.53804e-06
-0.00417227
2.04333e-06
-0.00473106
2.59717e-06
-0.00529061
3.17842e-06
-0.00585142
3.7774e-06
-0.00641307
4.36904e-06
-0.00697614
4.93343e-06
-0.00754048
5.4556e-06
-0.008106
5.88757e-06
-0.00867373
6.25673e-06
-0.00924151
6.44131e-06
-0.0098138
6.58205e-06
-0.010383
6.32899e-06
-0.0109619
6.17602e-06
-0.0115314
5.37055e-06
-0.0121176
4.84641e-06
-0.0126886
3.36294e-06
-0.0132811
2.01787e-06
-0.000277693
-0.000833131
4.87798e-08
-0.00138871
1.94658e-07
-0.00194461
4.34479e-07
-0.0025008
7.64287e-07
-0.00305756
1.1754e-06
-0.00361482
1.66161e-06
-0.00417282
2.20783e-06
-0.00473164
2.80633e-06
-0.00529121
3.43567e-06
-0.00585201
4.08455e-06
-0.00641363
4.72727e-06
-0.00697666
5.34193e-06
-0.00754091
5.91109e-06
-0.00810637
6.3857e-06
-0.00867391
6.78642e-06
-0.00924165
6.99647e-06
-0.00981354
7.13833e-06
-0.0103828
6.90473e-06
-0.0109611
6.72858e-06
-0.0115307
5.90639e-06
-0.0121163
4.86281e-06
-0.0126872
3.7108e-06
-0.0132791
2.21377e-06
-0.000277742
-0.000833277
5.23697e-08
-0.00138895
2.08964e-07
-0.00194494
4.66406e-07
-0.00250121
8.20289e-07
-0.00305805
1.26143e-06
-0.00361537
1.78275e-06
-0.00417342
2.36858e-06
-0.00473227
3.00997e-06
-0.00529186
3.68499e-06
-0.00585265
4.38098e-06
-0.00641425
5.07161e-06
-0.00697723
5.73355e-06
-0.00754138
6.34719e-06
-0.00810677
6.86273e-06
-0.00867412
7.29453e-06
-0.00924179
7.52812e-06
-0.0098133
7.6694e-06
-0.0103827
7.45261e-06
-0.0109602
7.25122e-06
-0.01153
6.39395e-06
-0.0121148
5.59203e-06
-0.0126857
4.03756e-06
-0.0132769
2.40538e-06
-0.000277794
-0.000833434
5.59255e-08
-0.00138921
2.23138e-07
-0.00194529
4.98042e-07
-0.00250165
8.75796e-07
-0.00305857
1.34667e-06
-0.00361595
1.90272e-06
-0.00417407
2.52747e-06
-0.00473295
3.21078e-06
-0.00529256
3.92986e-06
-0.00585334
4.67085e-06
-0.00641491
5.4065e-06
-0.00697785
6.11267e-06
-0.0075419
6.76765e-06
-0.00810721
7.32179e-06
-0.00867435
7.7839e-06
-0.00924194
8.04228e-06
-0.00981308
8.18977e-06
-0.0103825
7.97391e-06
-0.0109594
7.74417e-06
-0.0115292
6.8591e-06
-0.0121132
6.00735e-06
-0.0126841
4.35912e-06
-0.0132745
2.5906e-06
-0.00027785
-0.000833601
5.94404e-08
-0.00138948
2.37155e-07
-0.00194567
5.29351e-07
-0.00250212
9.30789e-07
-0.00305913
1.43121e-06
-0.00361658
2.02178e-06
-0.00417475
2.68517e-06
-0.00473367
3.40991e-06
-0.0052933
4.17212e-06
-0.00585408
4.95663e-06
-0.00641561
5.73497e-06
-0.0069785
6.48241e-06
-0.00754245
7.17514e-06
-0.00810767
7.76433e-06
-0.0086746
8.25387e-06
-0.00924208
8.53528e-06
-0.00981286
8.68951e-06
-0.0103822
8.47145e-06
-0.0109585
8.20708e-06
-0.0115284
7.28382e-06
-0.0121116
6.3731e-06
-0.0126823
4.65459e-06
-0.0132719
2.76215e-06
-0.000277909
-0.000833778
6.29142e-08
-0.00138977
2.51012e-07
-0.00194607
5.60326e-07
-0.00250262
9.85259e-07
-0.00305972
1.51504e-06
-0.00361724
2.14003e-06
-0.00417547
2.84196e-06
-0.00473443
3.60805e-06
-0.00529408
4.41309e-06
-0.00585486
5.24045e-06
-0.00641636
6.06009e-06
-0.0069792
6.84657e-06
-0.00754304
7.57388e-06
-0.00810816
8.19436e-06
-0.00867488
8.70763e-06
-0.00924224
9.0089e-06
-0.00981264
9.16741e-06
-0.010382
8.94965e-06
-0.0109576
8.64495e-06
-0.0115275
7.67714e-06
-0.0121099
6.70475e-06
-0.0126804
4.89887e-06
-0.0132691
2.9098e-06
-0.000277972
-0.000833966
6.63494e-08
-0.00139008
2.64714e-07
-0.0019465
5.90952e-07
-0.00250315
1.03914e-06
-0.00306035
1.598e-06
-0.00361794
2.25718e-06
-0.00417624
2.99747e-06
-0.00473523
3.80487e-06
-0.00529491
4.65269e-06
-0.00585568
5.52278e-06
-0.00641715
6.38323e-06
-0.00697993
7.20757e-06
-0.00754366
7.96726e-06
-0.00810867
8.61568e-06
-0.00867518
9.14856e-06
-0.0092424
9.46554e-06
-0.00981242
9.62661e-06
-0.0103817
9.41111e-06
-0.0109566
9.0642e-06
-0.0115265
8.0518e-06
-0.0121081
7.00977e-06
-0.0126785
5.05801e-06
-0.0132662
3.03585e-06
-0.000278038
-0.000834165
6.97529e-08
-0.00139041
2.78281e-07
-0.00194694
6.2125e-07
-0.00250371
1.09239e-06
-0.00306101
1.67994e-06
-0.00361868
2.37286e-06
-0.00417705
3.15107e-06
-0.00473608
3.99944e-06
-0.00529578
4.8899e-06
-0.00585654
5.80274e-06
-0.00641797
6.7041e-06
-0.00698069
7.56614e-06
-0.00754431
8.35746e-06
-0.0081092
9.03183e-06
-0.0086755
9.58082e-06
-0.00924256
9.90851e-06
-0.0098122
1.00681e-05
-0.0103814
9.85235e-06
-0.0109556
9.46437e-06
-0.0115254
8.41392e-06
-0.0121061
7.30922e-06
-0.0126764
5.28063e-06
-0.0132632
3.16789e-06
-0.000278108
-0.000834373
7.31277e-08
-0.00139075
2.91724e-07
-0.00194742
6.51221e-07
-0.00250429
1.14496e-06
-0.0030617
1.76066e-06
-0.00361946
2.4866e-06
-0.0041779
3.3019e-06
-0.00473697
4.19044e-06
-0.00529669
5.12291e-06
-0.00585744
6.0782e-06
-0.00641883
7.02056e-06
-0.00698148
7.92067e-06
-0.00754498
8.74413e-06
-0.00810975
9.44432e-06
-0.00867583
1.00082e-05
-0.00924272
1.03431e-05
-0.00981199
1.04946e-05
-0.010381
1.02659e-05
-0.0109545
9.84405e-06
-0.0115243
8.75628e-06
-0.0121041
7.58986e-06
-0.0126743
5.49881e-06
-0.01326
3.29049e-06
-0.000278181
-0.000834591
7.6464e-08
-0.00139111
3.05e-07
-0.00194791
6.80759e-07
-0.00250491
1.19665e-06
-0.00306242
1.83978e-06
-0.00362028
2.59776e-06
-0.00417879
3.44892e-06
-0.0047379
4.37628e-06
-0.00529765
5.34943e-06
-0.00585838
6.34616e-06
-0.00641973
7.32906e-06
-0.00698231
8.26739e-06
-0.00754568
9.12386e-06
-0.00811031
9.85099e-06
-0.00867616
1.0431e-05
-0.00924288
1.07734e-05
-0.00981176
1.09155e-05
-0.0103806
1.06702e-05
-0.0109534
1.02136e-05
-0.0115232
9.08891e-06
-0.012102
7.86028e-06
-0.0126721
5.69888e-06
-0.0132567
3.40537e-06
-0.000278257
-0.00083482
7.97354e-08
-0.00139148
3.18005e-07
-0.00194842
7.09646e-07
-0.00250555
1.24708e-06
-0.00306318
1.91676e-06
-0.00362113
2.70559e-06
-0.00417972
3.59107e-06
-0.00473888
4.55547e-06
-0.00529864
5.56738e-06
-0.00585936
6.60375e-06
-0.00642067
7.62579e-06
-0.00698317
8.60169e-06
-0.00754641
9.49157e-06
-0.00811088
1.02469e-05
-0.00867651
1.08451e-05
-0.00924302
1.11972e-05
-0.00981152
1.1332e-05
-0.0103801
1.10722e-05
-0.0109523
1.05768e-05
-0.0115219
9.41808e-06
-0.0120998
8.12613e-06
-0.0126698
5.89326e-06
-0.0132533
3.51611e-06
-0.000278337
-0.000835058
8.28834e-08
-0.00139188
3.30514e-07
-0.00194896
7.37416e-07
-0.00250622
1.29552e-06
-0.00306397
1.99059e-06
-0.00362201
2.8088e-06
-0.00418068
3.72679e-06
-0.00473989
4.72607e-06
-0.00529968
5.77432e-06
-0.00586039
6.84778e-06
-0.00642165
7.9066e-06
-0.00698406
8.91821e-06
-0.00754716
9.8407e-06
-0.00811147
1.06247e-05
-0.00867686
1.12433e-05
-0.00924315
1.1608e-05
-0.00981126
1.17396e-05
-0.0103796
1.1468e-05
-0.0109511
1.09334e-05
-0.0115206
9.74675e-06
-0.0120976
8.39382e-06
-0.0126674
6.08726e-06
-0.0132498
3.62632e-06
-0.00027842
-0.000835305
8.58304e-08
-0.00139228
3.4223e-07
-0.00194952
7.63444e-07
-0.00250692
1.34095e-06
-0.00306479
2.05988e-06
-0.00362293
2.90567e-06
-0.00418168
3.8541e-06
-0.00474094
4.88587e-06
-0.00530075
5.96773e-06
-0.00586145
7.07527e-06
-0.00642266
8.16773e-06
-0.00698498
9.21207e-06
-0.00754795
1.01649e-05
-0.00811209
1.09763e-05
-0.00867723
1.16161e-05
-0.00924328
1.19962e-05
-0.00981099
1.21297e-05
-0.0103791
1.18509e-05
-0.01095
1.1281e-05
-0.0115193
1.00746e-05
-0.0120952
8.66506e-06
-0.012665
6.28739e-06
-0.0132462
3.74066e-06
-0.000278506
-0.000835561
8.8487e-08
-0.0013927
3.52805e-07
-0.0019501
7.86983e-07
-0.00250764
1.38215e-06
-0.00306564
2.1229e-06
-0.00362388
2.99401e-06
-0.00418271
3.97043e-06
-0.00474202
5.03204e-06
-0.00530186
6.14457e-06
-0.00586254
7.28294e-06
-0.0064237
8.40547e-06
-0.00698593
9.47878e-06
-0.00754876
1.04583e-05
-0.00811272
1.12942e-05
-0.00867761
1.19536e-05
-0.00924341
1.23497e-05
-0.00981072
1.24893e-05
-0.0103785
1.22109e-05
-0.0109488
1.16198e-05
-0.0115179
1.03936e-05
-0.0120928
8.93274e-06
-0.0126624
6.49424e-06
-0.0132425
3.86138e-06
-0.000278594
-0.000835825
9.07668e-08
-0.00139314
3.61896e-07
-0.00195069
8.07283e-07
-0.00250838
1.41783e-06
-0.00306651
2.17775e-06
-0.00362486
3.0713e-06
-0.00418377
4.0727e-06
-0.00474313
5.16105e-06
-0.005303
6.30107e-06
-0.00586366
7.46686e-06
-0.00642478
8.61573e-06
-0.00698691
9.71391e-06
-0.0075496
1.07158e-05
-0.00811337
1.15718e-05
-0.00867801
1.22472e-05
-0.00924355
1.26568e-05
-0.00981044
1.28027e-05
-0.0103779
1.25285e-05
-0.0109475
1.19277e-05
-0.0115164
1.06831e-05
-0.0120904
9.17883e-06
-0.0126597
6.69767e-06
-0.0132387
3.98393e-06
-0.000278685
-0.000836096
9.25992e-08
-0.00139358
3.69219e-07
-0.0019513
8.2369e-07
-0.00250914
1.44682e-06
-0.0030674
2.22258e-06
-0.00362586
3.13493e-06
-0.00418486
4.15753e-06
-0.00474427
5.26883e-06
-0.00530417
6.4326e-06
-0.00586481
7.62208e-06
-0.00642587
8.79345e-06
-0.00698792
9.91236e-06
-0.00755045
1.09322e-05
-0.00811405
1.18034e-05
-0.00867842
1.24899e-05
-0.00924369
1.29085e-05
-0.00981017
1.30576e-05
-0.0103773
1.27857e-05
-0.0109463
1.21746e-05
-0.0115149
1.09197e-05
-0.0120879
9.37885e-06
-0.012657
6.87168e-06
-0.0132347
4.08995e-06
-0.000278777
-0.000836373
9.39361e-08
-0.00139404
3.74571e-07
-0.00195193
8.35718e-07
-0.00250991
1.46818e-06
-0.00306832
2.25582e-06
-0.00362688
3.18251e-06
-0.00418598
4.22157e-06
-0.00474544
5.35105e-06
-0.00530536
6.53392e-06
-0.00586598
7.74268e-06
-0.00642699
8.93232e-06
-0.00698893
1.00678e-05
-0.00755132
1.11011e-05
-0.00811473
1.19828e-05
-0.00867884
1.26753e-05
-0.00924384
1.30976e-05
-0.0098099
1.3245e-05
-0.0103767
1.29717e-05
-0.0109451
1.2349e-05
-0.0115134
1.10882e-05
-0.0120854
9.50802e-06
-0.0126542
6.97245e-06
-0.0132307
4.14493e-06
-0.000278871
-0.000836653
9.4766e-08
-0.0013945
3.77895e-07
-0.00195256
8.43198e-07
-0.0025107
1.48151e-06
-0.00306924
2.27669e-06
-0.00362792
3.2127e-06
-0.00418711
4.26268e-06
-0.00474662
5.40467e-06
-0.00530657
6.60099e-06
-0.00586717
7.82393e-06
-0.00642813
9.02703e-06
-0.00698997
1.01751e-05
-0.00755221
1.12178e-05
-0.00811542
1.21064e-05
-0.00867926
1.28001e-05
-0.00924399
1.32218e-05
-0.00980963
1.33614e-05
-0.0103761
1.30827e-05
-0.0109438
1.24466e-05
-0.0115118
1.11836e-05
-0.0120828
9.55516e-06
-0.0126513
6.9651e-06
-0.0132265
4.12153e-06
-0.000278966
-0.000836936
9.5469e-08
-0.00139496
3.80703e-07
-0.0019532
8.49495e-07
-0.00251149
1.49271e-06
-0.00307018
2.29425e-06
-0.00362897
3.23822e-06
-0.00418825
4.29784e-06
-0.00474782
5.4513e-06
-0.00530779
6.66078e-06
-0.00586837
7.89851e-06
-0.00642928
9.1173e-06
-0.00699101
1.02815e-05
-0.00755309
1.13392e-05
-0.00811611
1.22412e-05
-0.00867969
1.29442e-05
-0.00924412
1.33727e-05
-0.00980936
1.3513e-05
-0.0103754
1.32353e-05
-0.0109426
1.25945e-05
-0.0115102
1.13332e-05
-0.0120802
9.68313e-06
-0.0126485
7.05915e-06
-0.0132224
4.22388e-06
-0.000279061
-0.000837221
9.5777e-08
-0.00139543
3.81925e-07
-0.00195384
8.52199e-07
-0.0025123
1.49748e-06
-0.00307112
2.30172e-06
-0.00363003
3.24922e-06
-0.0041894
4.31335e-06
-0.00474903
5.47265e-06
-0.00530903
6.68951e-06
-0.00586959
7.93641e-06
-0.00643044
9.16617e-06
-0.00699206
1.03428e-05
-0.007554
1.14138e-05
-0.00811681
1.23283e-05
-0.00868012
1.3042e-05
-0.00924426
1.34785e-05
-0.00980908
1.36217e-05
-0.0103748
1.33454e-05
-0.0109413
1.27e-05
-0.0115086
1.14364e-05
-0.0120776
9.78669e-06
-0.0126457
7.14133e-06
-0.0132182
4.40452e-06
-0.000279157
-0.000837506
9.55793e-08
-0.0013959
3.81119e-07
-0.00195448
8.5034e-07
-0.0025131
1.49414e-06
-0.00307207
2.29651e-06
-0.0036311
3.24195e-06
-0.00419056
4.30404e-06
-0.00475025
5.46172e-06
-0.00531028
6.67778e-06
-0.00587082
7.92532e-06
-0.00643161
9.15752e-06
-0.00699313
1.03388e-05
-0.00755491
1.14166e-05
-0.00811752
1.23395e-05
-0.00868055
1.30615e-05
-0.0092444
1.35051e-05
-0.00980881
1.36512e-05
-0.0103741
1.33756e-05
-0.0109401
1.27256e-05
-0.0115069
1.14645e-05
-0.012075
9.80738e-06
-0.0126427
7.19029e-06
-0.013214
3.96174e-06
-0.000279252
-0.000837791
9.49117e-08
-0.00139637
3.78442e-07
-0.00195513
8.443e-07
-0.0025139
1.48344e-06
-0.00307302
2.27992e-06
-0.00363216
3.21849e-06
-0.00419172
4.2729e-06
-0.00475146
5.42252e-06
-0.00531152
6.63053e-06
-0.00587205
7.87082e-06
-0.0064328
9.09723e-06
-0.00699421
1.02752e-05
-0.00755584
1.13528e-05
-0.00811824
1.22787e-05
-0.008681
1.30066e-05
-0.00924455
1.34579e-05
-0.00980854
1.361e-05
-0.0103734
1.33386e-05
-0.0109388
1.26855e-05
-0.0115053
1.14283e-05
-0.0120723
9.75276e-06
-0.0126397
7.16388e-06
-0.0132098
3.92019e-06
-0.000279347
-0.000838075
9.37999e-08
-0.00139683
3.74002e-07
-0.00195577
8.34365e-07
-0.0025147
1.46597e-06
-0.00307396
2.25303e-06
-0.00363321
3.18062e-06
-0.00419287
4.22267e-06
-0.00475267
5.35897e-06
-0.00531276
6.55302e-06
-0.00587328
7.77942e-06
-0.00643397
8.99273e-06
-0.00699529
1.01598e-05
-0.00755676
1.12295e-05
-0.00811897
1.21522e-05
-0.00868145
1.28819e-05
-0.0092447
1.33403e-05
-0.00980828
1.35026e-05
-0.0103728
1.32431e-05
-0.0109376
1.25958e-05
-0.0115036
1.13426e-05
-0.0120697
9.64813e-06
-0.0126368
7.08709e-06
-0.0132056
4.197e-06
-0.00027944
-0.000838354
9.22695e-08
-0.00139729
3.67909e-07
-0.0019564
8.20795e-07
-0.00251549
1.44225e-06
-0.00307488
2.21675e-06
-0.00363426
3.1298e-06
-0.00419401
4.15565e-06
-0.00475386
5.27447e-06
-0.00531399
6.45007e-06
-0.00587449
7.65762e-06
-0.00643514
8.85215e-06
-0.00699636
1.00018e-05
-0.00755769
1.10566e-05
-0.0081197
1.19691e-05
-0.00868191
1.26945e-05
-0.00924486
1.31567e-05
-0.00980802
1.33302e-05
-0.0103721
1.30893e-05
-0.0109363
1.24618e-05
-0.0115019
1.12303e-05
-0.0120671
9.54227e-06
-0.0126339
7.01693e-06
-0.0132014
4.16733e-06
-0.000279533
-0.00083863
9.03595e-08
-0.00139775
3.60315e-07
-0.00195702
8.03931e-07
-0.00251626
1.41286e-06
-0.0030758
2.17199e-06
-0.00363528
3.06738e-06
-0.00419513
4.07376e-06
-0.00475504
5.17183e-06
-0.0053152
6.32569e-06
-0.00587569
7.51097e-06
-0.00643629
8.68299e-06
-0.00699741
9.81099e-06
-0.0075586
1.08456e-05
-0.00812043
1.17417e-05
-0.00868237
1.2456e-05
-0.00924504
1.29157e-05
-0.00980779
1.30964e-05
-0.0103715
1.28749e-05
-0.0109351
1.22759e-05
-0.0115002
1.1084e-05
-0.0120646
9.43321e-06
-0.0126311
6.93781e-06
-0.0131972
4.11999e-06
-0.000279623
-0.000838899
8.81271e-08
-0.00139819
3.51446e-07
-0.00195763
7.84247e-07
-0.00251702
1.37859e-06
-0.00307669
2.11989e-06
-0.00363629
2.99487e-06
-0.00419623
3.97889e-06
-0.00475619
5.05339e-06
-0.00531638
6.18295e-06
-0.00587686
7.34367e-06
-0.00643742
8.49107e-06
-0.00699844
9.59523e-06
-0.0075595
1.0607e-05
-0.00812114
1.14831e-05
-0.00868283
1.2181e-05
-0.00924522
1.26316e-05
-0.00980757
1.28124e-05
-0.0103709
1.2605e-05
-0.0109339
1.20349e-05
-0.0114985
1.08899e-05
-0.0120621
9.28909e-06
-0.0126283
6.85775e-06
-0.0131931
4.06536e-06
-0.000279711
-0.000839162
8.56466e-08
-0.00139862
3.41588e-07
-0.00195822
7.62364e-07
-0.00251776
1.34047e-06
-0.00307757
2.06186e-06
-0.00363727
2.91404e-06
-0.0041973
3.87315e-06
-0.00475732
4.92149e-06
-0.00531755
6.02443e-06
-0.00587801
7.15869e-06
-0.00643852
8.28017e-06
-0.00699946
9.35982e-06
-0.00756038
1.03484e-05
-0.00812184
1.1204e-05
-0.00868328
1.18836e-05
-0.0092454
1.2321e-05
-0.00980736
1.24948e-05
-0.0103703
1.2293e-05
-0.0109328
1.17442e-05
-0.0114969
1.0644e-05
-0.0120597
9.10707e-06
-0.0126255
6.77574e-06
-0.013189
4.00625e-06
-0.000279796
-0.000839418
8.30004e-08
-0.00139904
3.31066e-07
-0.0019588
7.38978e-07
-0.00251848
1.29965e-06
-0.00307842
1.99959e-06
-0.00363823
2.82706e-06
-0.00419835
3.75902e-06
-0.00475842
4.77881e-06
-0.00531868
5.85275e-06
-0.00587913
6.95849e-06
-0.0064396
8.05267e-06
-0.00700045
9.10742e-06
-0.00756123
1.00737e-05
-0.00812252
1.09103e-05
-0.00868372
1.15733e-05
-0.00924557
1.19981e-05
-0.00980715
1.21625e-05
-0.0103698
1.19597e-05
-0.0109317
1.14202e-05
-0.0114954
1.03508e-05
-0.0120573
8.87235e-06
-0.0126227
6.64978e-06
-0.013185
3.9296e-06
-0.000279879
-0.000839666
8.02658e-08
-0.00139945
3.20181e-07
-0.00195936
7.14759e-07
-0.00251918
1.25729e-06
-0.00307925
1.93475e-06
-0.00363917
2.73613e-06
-0.00419937
3.63919e-06
-0.0047595
4.62833e-06
-0.00531979
5.67086e-06
-0.00588022
6.74569e-06
-0.00644066
7.81051e-06
-0.00700141
8.83915e-06
-0.00756207
9.78331e-06
-0.00812318
1.06027e-05
-0.00868414
1.12527e-05
-0.00924574
1.16689e-05
-0.00980695
1.1828e-05
-0.0103692
1.16251e-05
-0.0109306
1.10894e-05
-0.0114939
1.00367e-05
-0.0120551
8.58978e-06
-0.01262
6.42237e-06
-0.0131811
3.81935e-06
-0.000279959
-0.000839905
7.75014e-08
-0.00139985
3.09171e-07
-0.0019599
6.90229e-07
-0.00251986
1.21429e-06
-0.00308005
1.86876e-06
-0.00364007
2.64323e-06
-0.00420036
3.51618e-06
-0.00476054
4.47302e-06
-0.00532086
5.48198e-06
-0.00588129
6.52333e-06
-0.00644169
7.5561e-06
-0.00700236
8.55614e-06
-0.00756289
9.47661e-06
-0.00812383
1.02785e-05
-0.00868456
1.09179e-05
-0.0092459
1.13302e-05
-0.00980674
1.14919e-05
-0.0103687
1.12965e-05
-0.0109295
1.07714e-05
-0.0114925
9.73612e-06
-0.0120529
8.3107e-06
-0.0126174
6.18991e-06
-0.0131773
3.67675e-06
-0.000280037
-0.000840137
7.47407e-08
-0.00140023
2.98168e-07
-0.00196043
6.65694e-07
-0.00252052
1.17122e-06
-0.00308082
1.80251e-06
-0.00364094
2.54967e-06
-0.00420131
3.39179e-06
-0.00476155
4.31519e-06
-0.0053219
5.28888e-06
-0.00588232
6.29441e-06
-0.00644269
7.29219e-06
-0.00700328
8.26028e-06
-0.00756369
9.15353e-06
-0.00812447
9.93504e-06
-0.00868497
1.05626e-05
-0.00924606
1.09724e-05
-0.00980653
1.11429e-05
-0.0103682
1.09644e-05
-0.0109285
1.04637e-05
-0.0114911
9.45599e-06
-0.0120508
8.05662e-06
-0.0126149
5.97239e-06
-0.0131736
3.491e-06
-0.000280112
-0.00084036
7.19845e-08
-0.00140059
2.87178e-07
-0.00196093
6.41175e-07
-0.00252115
1.12814e-06
-0.00308157
1.73613e-06
-0.00364178
2.45575e-06
-0.00420224
3.26658e-06
-0.00476252
4.15573e-06
-0.00532291
5.0929e-06
-0.00588332
6.06073e-06
-0.00644365
7.02083e-06
-0.00700417
7.95334e-06
-0.00756448
8.81484e-06
-0.0081251
9.57067e-06
-0.00868538
1.01816e-05
-0.00924623
1.05851e-05
-0.00980635
1.07649e-05
-0.0103677
1.06075e-05
-0.0109275
1.01449e-05
-0.0114897
9.18189e-06
-0.0120487
7.83464e-06
-0.0126124
5.79136e-06
-0.0131701
3.31789e-06
-0.000280183
-0.000840575
6.92122e-08
-0.00140095
2.76122e-07
-0.00196142
6.16497e-07
-0.00252176
1.08474e-06
-0.00308229
1.66921e-06
-0.00364259
2.36092e-06
-0.00420313
3.13995e-06
-0.00476346
3.9941e-06
-0.00532388
4.8937e-06
-0.00588428
5.8223e-06
-0.00644459
6.74256e-06
-0.00700503
7.63627e-06
-0.00756523
8.46154e-06
-0.00812571
9.18562e-06
-0.00868579
9.77301e-06
-0.00924641
1.01623e-05
-0.00980618
1.03446e-05
-0.0103672
1.02028e-05
-0.0109265
9.78145e-06
-0.0114883
8.87112e-06
-0.0120467
7.6085e-06
-0.0126099
5.64454e-06
-0.0131668
3.29349e-06
-0.000280253
-0.000840782
6.63751e-08
-0.00140129
2.64808e-07
-0.00196189
5.9123e-07
-0.00252234
1.04028e-06
-0.00308298
1.6006e-06
-0.00364337
2.26362e-06
-0.00420398
3.00987e-06
-0.00476436
3.82783e-06
-0.0053248
4.6885e-06
-0.00588521
5.57619e-06
-0.00644548
6.45466e-06
-0.00700586
7.30669e-06
-0.00756596
8.09188e-06
-0.0081263
8.77864e-06
-0.00868618
9.33561e-06
-0.0092466
9.70172e-06
-0.00980604
9.87517e-06
-0.0103668
9.73636e-06
-0.0109256
9.34548e-06
-0.0114871
8.47773e-06
-0.0120447
7.30488e-06
-0.0126075
5.43242e-06
-0.0131635
3.22859e-06
-0.000280319
-0.00084098
6.34052e-08
-0.00140162
2.52953e-07
-0.00196234
5.6474e-07
-0.0025229
9.93632e-07
-0.00308365
1.52856e-06
-0.00364412
2.16139e-06
-0.00420479
2.87306e-06
-0.00476522
3.65281e-06
-0.00532569
4.47222e-06
-0.00588609
5.31674e-06
-0.00644633
6.15056e-06
-0.00700664
6.95833e-06
-0.00756664
7.69899e-06
-0.00812685
8.34479e-06
-0.00868655
8.86412e-06
-0.00924677
9.20148e-06
-0.0098059
9.35121e-06
-0.0103664
9.20477e-06
-0.0109247
8.82081e-06
-0.0114859
7.98247e-06
-0.0120429
6.8778e-06
-0.0126053
5.09874e-06
-0.0131603
3.04589e-06
-0.000280382
-0.00084117
6.05562e-08
-0.00140193
2.41567e-07
-0.00196277
5.39296e-07
-0.00252344
9.48859e-07
-0.00308428
1.45946e-06
-0.00364483
2.06344e-06
-0.00420557
2.74206e-06
-0.00476603
3.48551e-06
-0.00532654
4.2658e-06
-0.00588692
5.07003e-06
-0.00644714
5.86224e-06
-0.00700738
6.62978e-06
-0.00756729
7.32933e-06
-0.00812737
7.9396e-06
-0.00868689
8.425e-06
-0.00924692
8.74025e-06
-0.00980576
8.86503e-06
-0.0103661
8.71364e-06
-0.0109239
8.3255e-06
-0.0114848
7.51385e-06
-0.0120411
6.45342e-06
-0.0126033
4.75907e-06
-0.0131572
2.81915e-06
-0.000280443
-0.000841351
5.80361e-08
-0.00140222
2.31507e-07
-0.00196318
5.16841e-07
-0.00252395
9.09422e-07
-0.00308488
1.39876e-06
-0.00364551
1.97761e-06
-0.00420632
2.6277e-06
-0.00476681
3.33998e-06
-0.00532734
4.08748e-06
-0.00588772
4.85815e-06
-0.00644791
5.61745e-06
-0.00700808
6.35294e-06
-0.00756791
7.02296e-06
-0.00812785
7.60729e-06
-0.0086872
8.07544e-06
-0.00924705
8.37952e-06
-0.00980561
8.49944e-06
-0.0103657
8.34875e-06
-0.0109231
7.97835e-06
-0.0114837
7.18911e-06
-0.0120394
6.19268e-06
-0.0126014
4.55899e-06
-0.0131544
2.74193e-06
-0.000280501
-0.000841524
5.53116e-08
-0.00140251
2.20634e-07
-0.00196357
4.92572e-07
-0.00252444
8.66811e-07
-0.00308546
1.33317e-06
-0.00364616
1.88489e-06
-0.00420703
2.50414e-06
-0.00476756
3.18267e-06
-0.00532811
3.89473e-06
-0.00588848
4.62912e-06
-0.00644865
5.35287e-06
-0.00700876
6.05338e-06
-0.00756849
6.69126e-06
-0.00812831
7.24716e-06
-0.0086875
7.69728e-06
-0.00924717
7.98968e-06
-0.00980548
8.1056e-06
-0.0103653
7.95471e-06
-0.0109223
7.60562e-06
-0.0114827
6.83571e-06
-0.0120377
5.89054e-06
-0.0125995
4.31281e-06
-0.0131517
2.65974e-06
-0.000280556
-0.00084169
5.23533e-08
-0.00140278
2.08832e-07
-0.00196394
4.66246e-07
-0.0025249
8.20612e-07
-0.00308601
1.26209e-06
-0.00364678
1.78446e-06
-0.0042077
2.37036e-06
-0.00476827
3.0124e-06
-0.00532884
3.68624e-06
-0.0058892
4.38155e-06
-0.00644935
5.06697e-06
-0.0070094
5.72959e-06
-0.00756906
6.33251e-06
-0.00812876
6.85725e-06
-0.00868778
7.28741e-06
-0.00924729
7.56662e-06
-0.00980534
7.67842e-06
-0.0103649
7.52842e-06
-0.0109215
7.21135e-06
-0.0114818
6.46774e-06
-0.0120361
5.56633e-06
-0.0125979
4.02415e-06
-0.013149
2.4587e-06
-0.000280609
-0.000841846
4.91375e-08
-0.00140304
1.96013e-07
-0.0019643
4.37673e-07
-0.00252534
7.70511e-07
-0.00308653
1.18506e-06
-0.00364736
1.67567e-06
-0.00420834
2.22556e-06
-0.00476895
2.82824e-06
-0.00532954
3.46105e-06
-0.00588989
4.11444e-06
-0.00645001
4.7589e-06
-0.00701001
5.38071e-06
-0.00756959
5.94638e-06
-0.00812918
6.43708e-06
-0.00868805
6.84544e-06
-0.00924741
7.10795e-06
-0.00980521
7.21428e-06
-0.0103646
7.06315e-06
-0.0109208
6.7871e-06
-0.0114809
6.08347e-06
-0.0120346
5.25321e-06
-0.0125963
4.07115e-06
-0.0131465
2.29368e-06
-0.000280658
-0.000841993
4.56439e-08
-0.00140328
1.82103e-07
-0.00196463
4.06697e-07
-0.00252576
7.16227e-07
-0.00308702
1.10163e-06
-0.00364791
1.55792e-06
-0.00420895
2.06895e-06
-0.00476958
2.62921e-06
-0.00533019
3.21805e-06
-0.00589053
3.82651e-06
-0.00645064
4.42735e-06
-0.00701058
5.00541e-06
-0.00757008
5.53205e-06
-0.00812958
5.98605e-06
-0.00868829
6.37139e-06
-0.00924753
6.61312e-06
-0.00980506
6.71417e-06
-0.0103643
6.55759e-06
-0.0109201
6.31535e-06
-0.0114801
5.65479e-06
-0.0120331
4.96284e-06
-0.0125948
3.64009e-06
-0.0131442
2.1633e-06
-0.000280703
-0.00084213
4.18635e-08
-0.00140351
1.67064e-07
-0.00196494
3.73224e-07
-0.00252614
6.57582e-07
-0.00308748
1.01153e-06
-0.00364843
1.43078e-06
-0.00420951
1.89993e-06
-0.00477017
2.41453e-06
-0.0053308
2.95625e-06
-0.00589113
3.51645e-06
-0.00645122
4.07089e-06
-0.00701112
4.60191e-06
-0.00757054
5.08815e-06
-0.00812996
5.50278e-06
-0.00868852
5.86455e-06
-0.00924764
6.0812e-06
-0.0098049
6.18343e-06
-0.0103641
6.02223e-06
-0.0109194
5.80923e-06
-0.0114794
5.16245e-06
-0.0120318
4.5969e-06
-0.0125934
3.32636e-06
-0.0131421
1.98594e-06
-0.000280745
-0.000842255
3.78046e-08
-0.00140371
1.5092e-07
-0.00196522
3.37269e-07
-0.0025265
5.94543e-07
-0.0030879
9.14661e-07
-0.0036489
1.2941e-06
-0.00421002
1.71829e-06
-0.00477071
2.18386e-06
-0.00533136
2.67508e-06
-0.00589169
3.18335e-06
-0.00645175
3.68837e-06
-0.00701161
4.16863e-06
-0.00757096
4.61344e-06
-0.00813031
4.98565e-06
-0.00868872
5.32378e-06
-0.00924776
5.50942e-06
-0.00980473
5.62056e-06
-0.0103639
5.45892e-06
-0.0109188
5.29557e-06
-0.0114788
5.05988e-06
-0.0120305
4.07129e-06
-0.0125921
3.01461e-06
-0.0131401
1.79204e-06
-0.000280783
-0.000842368
3.34915e-08
-0.0014039
1.33744e-07
-0.00196548
2.98948e-07
-0.00252682
5.27267e-07
-0.00308828
8.11176e-07
-0.00364932
1.1481e-06
-0.00421049
1.52434e-06
-0.0047712
1.93752e-06
-0.00533186
2.37475e-06
-0.00589219
2.82696e-06
-0.00645223
3.27954e-06
-0.00701206
3.70476e-06
-0.00757133
4.10776e-06
-0.00813064
4.43363e-06
-0.0086889
4.75045e-06
-0.00924788
4.89786e-06
-0.00980457
5.0251e-06
-0.0103637
4.85121e-06
-0.0109182
4.81015e-06
-0.0114781
4.35433e-06
-0.0120294
3.66379e-06
-0.0125908
2.72167e-06
-0.0131383
1.60564e-06
-0.000280817
-0.000842469
2.89391e-08
-0.00140406
1.15611e-07
-0.0019657
2.58413e-07
-0.0025271
4.55995e-07
-0.00308861
7.01434e-07
-0.0036497
9.93342e-07
-0.0042109
1.31893e-06
-0.00477163
1.6766e-06
-0.00533231
2.05635e-06
-0.00589264
2.44801e-06
-0.00645266
2.84567e-06
-0.00701247
3.2107e-06
-0.00757166
3.57339e-06
-0.00813095
3.84648e-06
-0.00868905
4.14902e-06
-0.00924801
4.2515e-06
-0.00980443
4.40678e-06
-0.0103637
4.59443e-06
-0.0109176
4.12256e-06
-0.0114775
3.74881e-06
-0.0120285
3.20168e-06
-0.0125897
2.38728e-06
-0.0131367
1.40733e-06
-0.000280846
-0.000842556
2.41121e-08
-0.00140421
9.6536e-08
-0.0019659
2.15813e-07
-0.00252735
3.81129e-07
-0.0030889
5.8617e-07
-0.00365002
8.30848e-07
-0.00421126