/*--------------------------------*- C++ -*----------------------------------*\
  =========                 |
  \\      /  F ield         | OpenFOAM: The Open Source CFD Toolbox
   \\    /   O peration     | Website:  https://openfoam.org
    \\  /    A nd           | Version:  10
     \\/     M anipulation  |
\*---------------------------------------------------------------------------*/
FoamFile
{
    format      ascii;
    class       volScalarField;
    location    "0.43";
    object      rho;
}
// * * * * * * * * * * * * * * * * * * * * * * * * * * * * * * * * * * * * * //

dimensions      [1 -3 0 0 0 0 0];

internalField   nonuniform List<scalar> 
4176
(
0.0308487
0.0308517
0.0308579
0.0308683
0.0308814
0.0308977
0.0309186
0.0309401
0.0309693
0.0309955
0.0310323
0.0310648
0.0311068
0.0311475
0.0311924
0.0312441
0.0312869
0.0313549
0.0313932
0.031479
0.0315107
0.031616
0.0316364
0.0317502
0.0308567
0.0308595
0.0308648
0.0308748
0.0308858
0.0309015
0.0309192
0.0309399
0.030965
0.0309899
0.031022
0.0310523
0.0310899
0.031127
0.031168
0.0312143
0.031254
0.0313144
0.0313499
0.0314267
0.0314539
0.0315541
0.031575
0.0317035
0.030876
0.0308789
0.0308844
0.0308946
0.0309062
0.0309224
0.0309409
0.0309621
0.0309885
0.031014
0.0310477
0.0310787
0.0311182
0.0311562
0.0311995
0.0312469
0.0312889
0.031352
0.0313876
0.0314681
0.0314955
0.0315945
0.0316136
0.0317342
0.0309047
0.0309076
0.0309129
0.0309229
0.0309341
0.0309498
0.0309679
0.0309884
0.0310142
0.0310387
0.031072
0.0311016
0.0311407
0.031177
0.03122
0.0312656
0.0313073
0.0313703
0.0314013
0.0314842
0.0315092
0.0316069
0.0316248
0.0317365
0.0309441
0.030947
0.0309523
0.0309624
0.0309735
0.0309893
0.0310072
0.031028
0.0310535
0.0310784
0.0311112
0.0311413
0.0311801
0.0312165
0.0312596
0.0313046
0.0313482
0.0314082
0.0314429
0.0315236
0.0315503
0.0316475
0.0316669
0.0317802
0.0309936
0.0309965
0.0310017
0.0310117
0.0310225
0.0310383
0.0310558
0.0310764
0.0311014
0.0311261
0.0311583
0.0311881
0.0312263
0.0312623
0.031305
0.0313489
0.031393
0.0314499
0.031488
0.0315648
0.0315924
0.0316884
0.0317086
0.0318235
0.0310535
0.0310564
0.0310615
0.0310714
0.0310822
0.0310978
0.0311151
0.0311356
0.0311603
0.0311849
0.0312168
0.0312463
0.0312842
0.0313197
0.0313623
0.0314055
0.0314498
0.0315051
0.0315441
0.0316189
0.0316478
0.0317421
0.0317627
0.0318756
0.0311237
0.0311265
0.0311316
0.0311414
0.031152
0.0311675
0.0311845
0.0312048
0.0312292
0.0312534
0.0312849
0.0313141
0.0313515
0.0313865
0.0314288
0.031471
0.0315154
0.0315688
0.031609
0.0316812
0.0317113
0.0318039
0.031825
0.0319366
0.0312042
0.031207
0.031212
0.0312218
0.0312322
0.0312475
0.0312643
0.0312844
0.0313084
0.0313324
0.0313635
0.0313922
0.0314293
0.0314637
0.0315057
0.0315471
0.0315914
0.0316432
0.0316842
0.031754
0.0317851
0.0318757
0.0318972
0.032007
0.031295
0.0312978
0.0313027
0.0313124
0.0313226
0.0313379
0.0313544
0.0313743
0.0313979
0.0314216
0.0314522
0.0314805
0.0315171
0.0315509
0.0315926
0.031633
0.0316772
0.0317273
0.0317691
0.0318364
0.0318685
0.0319567
0.0319788
0.0320867
0.0313963
0.0313991
0.0314039
0.0314135
0.0314235
0.0314386
0.0314548
0.0314745
0.0314978
0.0315211
0.0315513
0.0315791
0.0316153
0.0316483
0.0316896
0.031729
0.0317731
0.0318217
0.031864
0.0319288
0.0319615
0.0320477
0.03207
0.032176
0.031508
0.0315108
0.0315155
0.031525
0.0315349
0.0315498
0.0315657
0.0315851
0.0316079
0.0316309
0.0316607
0.031688
0.0317236
0.031756
0.0317968
0.0318352
0.0318789
0.0319261
0.0319687
0.0320312
0.0320648
0.032148
0.0321709
0.0322747
0.0316303
0.0316331
0.0316377
0.0316471
0.0316567
0.0316714
0.031687
0.0317061
0.0317286
0.0317511
0.0317804
0.0318072
0.0318423
0.0318739
0.0319142
0.0319516
0.031995
0.0320406
0.0320836
0.0321436
0.0321777
0.0322585
0.0322814
0.0323831
0.0317632
0.031766
0.0317704
0.0317797
0.0317891
0.0318036
0.0318189
0.0318376
0.0318597
0.0318818
0.0319106
0.0319368
0.0319713
0.0320022
0.0320418
0.0320782
0.0321212
0.0321653
0.0322084
0.032266
0.0323006
0.032379
0.0324018
0.032501
0.0319068
0.0319095
0.0319139
0.0319231
0.0319322
0.0319465
0.0319614
0.0319798
0.0320014
0.032023
0.0320512
0.0320768
0.0321108
0.0321408
0.0321799
0.0322152
0.0322576
0.0323002
0.0323433
0.0323985
0.0324337
0.0325092
0.0325321
0.0326288
0.0320612
0.0320639
0.0320682
0.0320772
0.0320861
0.0321001
0.0321146
0.0321326
0.0321537
0.0321748
0.0322025
0.0322274
0.0322607
0.0322899
0.0323283
0.0323625
0.0324043
0.0324454
0.0324883
0.0325411
0.0325766
0.0326493
0.0326727
0.0327666
0.0322265
0.0322292
0.0322333
0.0322422
0.0322508
0.0322645
0.0322786
0.0322963
0.0323168
0.0323374
0.0323644
0.0323886
0.0324211
0.0324495
0.0324871
0.0325203
0.0325615
0.032601
0.0326436
0.0326939
0.0327298
0.0327995
0.0328233
0.0329143
0.0324027
0.0324054
0.0324094
0.0324181
0.0324265
0.0324399
0.0324536
0.0324708
0.0324907
0.0325107
0.032537
0.0325605
0.0325923
0.0326197
0.0326565
0.0326885
0.032729
0.032767
0.0328091
0.0328571
0.0328933
0.0329599
0.0329841
0.033072
0.0325901
0.0325927
0.0325966
0.0326052
0.0326132
0.0326263
0.0326395
0.0326562
0.0326756
0.032695
0.0327206
0.0327432
0.0327742
0.0328006
0.0328365
0.0328674
0.032907
0.0329435
0.0329851
0.0330306
0.0330669
0.0331307
0.0331551
0.0332399
0.0327887
0.0327913
0.032795
0.0328033
0.032811
0.0328238
0.0328366
0.0328528
0.0328715
0.0328902
0.0329151
0.0329368
0.032967
0.0329923
0.0330273
0.0330569
0.0330957
0.0331305
0.0331715
0.0332146
0.0332512
0.0333117
0.0333364
0.033418
0.0329985
0.0330011
0.0330046
0.0330128
0.0330202
0.0330326
0.0330448
0.0330605
0.0330786
0.0330966
0.0331206
0.0331415
0.0331707
0.033195
0.033229
0.0332573
0.033295
0.0333282
0.0333685
0.0334092
0.0334457
0.0335032
0.0335281
0.0336065
0.0332198
0.0332224
0.0332257
0.0332337
0.0332406
0.0332527
0.0332643
0.0332795
0.0332968
0.0333141
0.0333373
0.0333573
0.0333856
0.0334087
0.0334416
0.0334686
0.0335053
0.0335368
0.0335761
0.0336145
0.033651
0.0337051
0.0337303
0.0338053
0.0334526
0.0334551
0.0334583
0.033466
0.0334726
0.0334842
0.0334953
0.0335098
0.0335265
0.033543
0.0335653
0.0335843
0.0336116
0.0336336
0.0336654
0.0336909
0.0337265
0.0337563
0.0337946
0.0338308
0.0338669
0.0339178
0.033943
0.0340146
0.033697
0.0336995
0.0337024
0.0337099
0.0337161
0.0337273
0.0337378
0.0337517
0.0337675
0.0337832
0.0338046
0.0338226
0.0338489
0.0338697
0.0339003
0.0339244
0.0339589
0.0339868
0.0340241
0.0340579
0.0340938
0.0341412
0.0341665
0.0342344
0.0339531
0.0339555
0.0339583
0.0339655
0.0339713
0.033982
0.0339919
0.0340051
0.0340202
0.034035
0.0340555
0.0340724
0.0340976
0.0341171
0.0341466
0.0341692
0.0342025
0.0342286
0.0342648
0.0342962
0.0343315
0.0343757
0.0344008
0.0344648
0.034221
0.0342233
0.0342259
0.0342328
0.0342382
0.0342485
0.0342577
0.0342703
0.0342845
0.0342985
0.0343179
0.0343338
0.0343578
0.0343761
0.0344043
0.0344254
0.0344574
0.0344817
0.0345166
0.0345458
0.0345805
0.0346213
0.0346463
0.0347063
0.0345006
0.0345029
0.0345053
0.034512
0.0345169
0.0345268
0.0345353
0.0345473
0.0345606
0.0345737
0.0345921
0.0346069
0.0346297
0.0346466
0.0346736
0.0346931
0.0347238
0.0347463
0.0347799
0.0348068
0.0348406
0.034878
0.0349031
0.0349591
0.0347923
0.0347945
0.0347967
0.0348031
0.0348076
0.034817
0.0348249
0.0348361
0.0348486
0.0348608
0.0348781
0.0348917
0.0349134
0.0349289
0.0349546
0.0349725
0.0350018
0.0350224
0.0350547
0.0350792
0.0351121
0.0351459
0.0351712
0.0352229
0.0350959
0.0350981
0.0351001
0.0351063
0.0351103
0.0351192
0.0351264
0.035137
0.0351486
0.0351598
0.0351761
0.0351886
0.035209
0.0352231
0.0352474
0.0352636
0.0352915
0.0353101
0.0353411
0.0353633
0.0353952
0.0354254
0.0354504
0.0354982
0.0354117
0.0354138
0.0354156
0.0354215
0.0354251
0.0354335
0.0354401
0.0354499
0.0354607
0.0354709
0.0354862
0.0354974
0.0355166
0.0355293
0.0355522
0.0355667
0.0355932
0.0356098
0.0356393
0.0356591
0.0356899
0.0357166
0.0357412
0.0357851
0.0357397
0.0357418
0.0357433
0.035749
0.0357521
0.03576
0.0357659
0.035775
0.0357849
0.0357942
0.0358084
0.0358185
0.0358364
0.0358476
0.0358691
0.0358819
0.0359069
0.0359214
0.0359494
0.0359669
0.0359964
0.0360197
0.0360442
0.0360835
0.03608
0.036082
0.0360833
0.0360887
0.0360914
0.0360988
0.036104
0.0361124
0.0361214
0.0361298
0.0361429
0.0361518
0.0361685
0.0361782
0.0361983
0.0362093
0.0362328
0.0362452
0.0362717
0.0362867
0.0363149
0.0363349
0.0363593
0.0363937
0.0364327
0.0364347
0.0364358
0.0364409
0.036443
0.03645
0.0364545
0.0364622
0.0364702
0.0364777
0.0364897
0.0364974
0.0365129
0.0365211
0.0365399
0.0365491
0.0365711
0.0365814
0.0366063
0.0366187
0.0366455
0.0366624
0.0366863
0.0367164
0.0367979
0.0367998
0.0368006
0.0368055
0.0368072
0.0368137
0.0368175
0.0368245
0.0368316
0.0368381
0.036849
0.0368555
0.0368697
0.0368765
0.0368939
0.0369014
0.0369219
0.0369301
0.0369534
0.0369632
0.0369886
0.037002
0.0370258
0.037051
0.0371756
0.0371774
0.0371781
0.0371827
0.0371839
0.0371899
0.037193
0.0371993
0.0372055
0.0372111
0.0372209
0.0372262
0.0372391
0.0372445
0.0372605
0.0372662
0.0372853
0.0372913
0.0373132
0.0373204
0.0373443
0.0373545
0.0373776
0.037398
0.0375659
0.0375677
0.0375682
0.0375725
0.0375733
0.0375788
0.0375813
0.0375869
0.0375922
0.0375968
0.0376056
0.0376096
0.0376213
0.0376252
0.0376398
0.0376436
0.0376613
0.0376652
0.0376856
0.0376902
0.0377128
0.0377196
0.0377418
0.0377576
0.037969
0.0379708
0.037971
0.0379751
0.0379755
0.0379805
0.0379823
0.0379872
0.0379917
0.0379953
0.038003
0.0380058
0.0380163
0.0380186
0.0380318
0.0380339
0.0380501
0.0380518
0.0380709
0.0380729
0.038094
0.0380978
0.0381188
0.0381297
0.038385
0.0383867
0.0383867
0.0383906
0.0383905
0.0383951
0.0383962
0.0384005
0.0384041
0.0384068
0.0384134
0.038415
0.0384242
0.0384251
0.0384369
0.0384371
0.0384518
0.0384513
0.0384689
0.0384683
0.0384883
0.0384888
0.0385087
0.0385149
0.0388139
0.0388156
0.0388154
0.038819
0.0388185
0.0388227
0.0388232
0.0388268
0.0388295
0.0388313
0.0388368
0.0388373
0.0388452
0.0388446
0.038855
0.0388534
0.0388666
0.0388638
0.03888
0.0388767
0.0388953
0.0388928
0.0389117
0.0389131
0.0392559
0.0392576
0.0392573
0.0392606
0.0392597
0.0392634
0.0392632
0.0392661
0.039268
0.0392689
0.0392734
0.0392727
0.0392794
0.0392773
0.0392863
0.0392829
0.0392946
0.0392895
0.0393043
0.0392982
0.0393154
0.0393096
0.0393276
0.0393248
0.0397112
0.0397128
0.0397123
0.0397154
0.039714
0.0397174
0.0397165
0.0397187
0.0397197
0.0397197
0.0397232
0.0397213
0.0397268
0.0397233
0.039731
0.0397257
0.039736
0.0397286
0.039742
0.0397331
0.0397488
0.0397397
0.0397563
0.0397499
0.0401799
0.0401814
0.0401807
0.0401836
0.0401818
0.0401846
0.0401831
0.0401847
0.0401848
0.0401839
0.0401863
0.0401833
0.0401876
0.0401826
0.0401889
0.0401819
0.0401908
0.0401811
0.0401931
0.0401813
0.0401958
0.0401831
0.0401987
0.0401879
0.040662
0.0406635
0.0406626
0.0406652
0.040663
0.0406654
0.0406632
0.0406641
0.0406634
0.0406615
0.0406629
0.0406587
0.0406618
0.0406553
0.0406603
0.0406514
0.040659
0.040647
0.0406579
0.0406431
0.0406563
0.0406401
0.0406548
0.0406393
0.0411577
0.0411592
0.041158
0.0411605
0.0411578
0.0411597
0.0411568
0.0411571
0.0411555
0.0411527
0.041153
0.0411476
0.0411495
0.0411415
0.0411452
0.0411345
0.0411408
0.0411265
0.0411361
0.0411185
0.0411307
0.0411107
0.0411248
0.0411045
0.0416671
0.0416685
0.0416672
0.0416694
0.0416662
0.0416677
0.0416642
0.0416637
0.0416612
0.0416575
0.0416568
0.0416502
0.0416508
0.0416414
0.0416437
0.0416312
0.0416361
0.0416197
0.0416279
0.0416075
0.0416186
0.0415951
0.0416086
0.0415838
0.0421902
0.0421916
0.0421901
0.042192
0.0421884
0.0421895
0.0421852
0.0421841
0.0421807
0.0421761
0.0421743
0.0421664
0.0421659
0.042155
0.0421559
0.0421416
0.0421452
0.0421264
0.0421333
0.04211
0.0421204
0.0420928
0.0421063
0.0420765
0.0427271
0.0427286
0.0427268
0.0427285
0.0427244
0.042725
0.0427201
0.0427183
0.042714
0.0427084
0.0427055
0.0426965
0.0426947
0.0426823
0.0426819
0.0426657
0.042668
0.0426469
0.0426526
0.0426262
0.0426359
0.0426044
0.042618
0.0425828
0.0432779
0.0432793
0.0432773
0.0432788
0.0432742
0.0432744
0.0432688
0.0432663
0.0432611
0.0432546
0.0432506
0.0432404
0.0432374
0.0432235
0.0432218
0.0432036
0.0432047
0.0431812
0.0431857
0.0431561
0.0431653
0.0431295
0.0431434
0.0431033
0.0438425
0.0438439
0.0438417
0.0438429
0.0438379
0.0438377
0.0438313
0.0438282
0.0438221
0.0438146
0.0438096
0.0437982
0.043794
0.0437785
0.0437756
0.0437554
0.0437553
0.0437292
0.043733
0.0436999
0.0437088
0.0436687
0.0436827
0.0436376
0.044421
0.0444223
0.0444199
0.0444209
0.0444154
0.0444147
0.0444077
0.0444039
0.0443969
0.0443885
0.0443825
0.0443698
0.0443645
0.0443474
0.0443433
0.0443211
0.0443199
0.044291
0.0442944
0.0442576
0.0442668
0.0442214
0.0442361
0.044186
0.0450132
0.0450145
0.0450119
0.0450126
0.0450067
0.0450056
0.0449979
0.0449934
0.0449856
0.0449762
0.0449692
0.0449553
0.0449489
0.0449302
0.044925
0.0449007
0.0448986
0.0448667
0.0448697
0.0448292
0.0448387
0.0447886
0.0448032
0.0447486
0.045619
0.0456203
0.0456176
0.0456181
0.0456117
0.0456102
0.0456018
0.0455967
0.045588
0.0455777
0.0455698
0.0455545
0.0455471
0.0455267
0.0455207
0.0454941
0.0454913
0.0454564
0.0454594
0.0454149
0.0454242
0.0453704
0.0453844
0.0453254
0.0462385
0.0462397
0.0462368
0.0462371
0.0462303
0.0462284
0.0462193
0.0462136
0.0462041
0.0461929
0.0461841
0.0461675
0.0461593
0.046137
0.0461304
0.0461013
0.0460982
0.04606
0.0460634
0.0460143
0.0460239
0.0459662
0.0459797
0.0459165
0.0468713
0.0468725
0.0468694
0.0468695
0.0468623
0.04686
0.0468504
0.046844
0.0468338
0.0468217
0.0468121
0.0467941
0.0467853
0.0467609
0.0467541
0.0467222
0.0467194
0.0466775
0.0466805
0.0466287
0.0466372
0.0465765
0.0465892
0.0465219
0.0475174
0.0475186
0.0475153
0.0475152
0.0475076
0.047505
0.0474948
0.0474878
0.047477
0.0474638
0.0474537
0.0474341
0.0474251
0.0473983
0.0473918
0.0473565
0.0473545
0.0473087
0.0473118
0.0472573
0.0472644
0.0472009
0.0472128
0.0471416
0.0481765
0.0481777
0.0481743
0.0481741
0.048166
0.0481632
0.0481523
0.0481447
0.0481334
0.0481191
0.0481089
0.0480872
0.0480787
0.0480491
0.0480432
0.0480047
0.0480025
0.047955
0.0479564
0.0478998
0.0479059
0.0478395
0.0478507
0.0477757
0.0488484
0.0488497
0.048846
0.0488458
0.0488373
0.0488342
0.0488228
0.0488146
0.0488032
0.0487873
0.0487776
0.0487534
0.0487456
0.0487138
0.048707
0.0486677
0.0486637
0.0486149
0.0486149
0.0485563
0.0485613
0.0484922
0.0485025
0.048424
0.0495329
0.0495344
0.0495302
0.0495303
0.0495212
0.0495181
0.0495061
0.0494972
0.049486
0.0494685
0.0494588
0.0494336
0.0494247
0.0493921
0.0493843
0.0493437
0.0493385
0.0492882
0.0492872
0.0492267
0.0492304
0.0491588
0.0491685
0.0490865
0.0502299
0.0502313
0.0502269
0.0502272
0.0502174
0.0502146
0.0502019
0.0501929
0.0501808
0.0501631
0.0501526
0.0501267
0.050117
0.0500836
0.0500746
0.0500331
0.0500267
0.0499753
0.0499728
0.0499106
0.0499135
0.0498395
0.0498483
0.049763
0.0509389
0.0509405
0.0509361
0.050936
0.0509262
0.0509231
0.0509097
0.0509014
0.050888
0.0508702
0.0508589
0.0508325
0.050822
0.0507879
0.050778
0.0507356
0.050728
0.0506756
0.0506719
0.0506083
0.0506098
0.0505337
0.0505419
0.0504535
0.05166
0.0516616
0.0516572
0.051657
0.0516471
0.0516439
0.05163
0.0516219
0.0516069
0.0515902
0.0515774
0.051551
0.0515397
0.0515048
0.0514942
0.0514508
0.0514423
0.0513887
0.0513842
0.051319
0.0513198
0.0512415
0.0512489
0.0511577
0.052393
0.0523946
0.0523902
0.0523899
0.05238
0.0523766
0.0523625
0.0523543
0.0523384
0.0523223
0.0523077
0.0522821
0.0522696
0.0522343
0.0522229
0.0521787
0.0521694
0.052115
0.052109
0.052043
0.0520424
0.0519626
0.0519692
0.0518753
0.0531377
0.0531393
0.0531349
0.0531346
0.0531245
0.0531211
0.0531067
0.0530985
0.053082
0.0530662
0.0530505
0.0530254
0.0530112
0.0529762
0.0529639
0.0529191
0.0529089
0.0528533
0.0528468
0.0527794
0.0527782
0.0526965
0.0527025
0.0526061
0.0538941
0.0538958
0.0538913
0.0538911
0.0538808
0.0538774
0.0538627
0.0538545
0.0538375
0.0538219
0.0538051
0.0537804
0.0537648
0.0537303
0.0537168
0.0536715
0.0536606
0.0536043
0.0535965
0.0535284
0.053526
0.053443
0.0534482
0.0533497
0.0546622
0.0546639
0.0546594
0.0546592
0.0546488
0.0546453
0.0546304
0.0546222
0.0546047
0.0545893
0.0545716
0.0545471
0.0545307
0.0544958
0.0544813
0.0544358
0.054424
0.0543667
0.0543584
0.0542891
0.054286
0.0542016
0.0542062
0.0541057
0.0554419
0.0554437
0.0554391
0.055439
0.0554283
0.0554249
0.0554097
0.0554014
0.0553834
0.0553681
0.0553496
0.0553252
0.0553078
0.0552727
0.0552573
0.0552114
0.055199
0.0551409
0.0551316
0.0550615
0.0550575
0.054972
0.0549759
0.0548737
0.0562334
0.0562352
0.0562305
0.0562304
0.0562195
0.0562161
0.0562005
0.0561921
0.0561735
0.0561582
0.0561387
0.0561144
0.0560959
0.0560608
0.0560444
0.0559982
0.0559849
0.055926
0.0559162
0.055845
0.0558402
0.0557538
0.0557569
0.0556533
0.0570364
0.0570384
0.0570335
0.0570334
0.0570222
0.0570186
0.0570026
0.0569939
0.0569748
0.0569593
0.0569388
0.0569145
0.056895
0.0568595
0.0568424
0.0567954
0.0567815
0.056722
0.0567115
0.0566392
0.0566338
0.0565463
0.0565489
0.056444
0.0578509
0.0578529
0.0578479
0.0578477
0.0578361
0.0578322
0.0578157
0.0578067
0.0577869
0.057771
0.0577494
0.0577252
0.0577041
0.0576689
0.0576507
0.0576029
0.0575884
0.0575284
0.0575171
0.0574439
0.0574378
0.0573497
0.0573515
0.0572456
0.0586763
0.0586783
0.0586731
0.0586726
0.0586606
0.0586564
0.0586393
0.0586298
0.0586092
0.0585929
0.0585701
0.0585461
0.0585232
0.0584885
0.0584688
0.0584206
0.0584052
0.0583448
0.0583326
0.058259
0.058252
0.0581633
0.0581646
0.0580578
0.0595114
0.0595135
0.059508
0.0595073
0.059495
0.0594903
0.0594726
0.0594625
0.0594413
0.0594243
0.0594006
0.0593765
0.059352
0.0593178
0.0592959
0.0592486
0.0592315
0.0591707
0.0591581
0.0590842
0.0590765
0.0589873
0.0589879
0.0588806
0.0603548
0.0603568
0.0603513
0.0603503
0.0603378
0.0603327
0.0603146
0.060304
0.0602822
0.0602647
0.0602401
0.060216
0.0601897
0.0601564
0.060132
0.0600863
0.0600673
0.0600065
0.0599931
0.0599197
0.0599108
0.0598215
0.0598216
0.0597139
0.0612043
0.0612063
0.0612009
0.0611998
0.0611872
0.061182
0.0611637
0.0611529
0.0611308
0.0611131
0.0610881
0.0610639
0.0610366
0.0610039
0.0609777
0.0609333
0.0609124
0.0608522
0.0608378
0.0607648
0.0607552
0.0606662
0.0606657
0.0605581
0.0620576
0.0620597
0.0620545
0.0620536
0.0620413
0.0620363
0.0620184
0.0620078
0.061986
0.0619686
0.0619436
0.0619198
0.0618919
0.0618603
0.0618326
0.0617897
0.0617663
0.061709
0.061692
0.0616203
0.06161
0.0615213
0.0615207
0.0614132
0.062913
0.0629153
0.0629104
0.0629101
0.0628983
0.0628941
0.062877
0.0628673
0.0628464
0.0628299
0.0628058
0.0627828
0.0627554
0.062725
0.0626966
0.0626557
0.0626307
0.0625753
0.0625575
0.0624857
0.0624757
0.0623874
0.0623866
0.0622795
0.0637695
0.063772
0.0637677
0.0637681
0.0637573
0.0637543
0.0637385
0.0637303
0.063711
0.0636961
0.0636736
0.0636524
0.0636263
0.0635976
0.06357
0.063531
0.0635057
0.0634525
0.0634335
0.0633625
0.0633526
0.0632645
0.063264
0.0631572
0.0646281
0.0646309
0.0646272
0.0646286
0.0646189
0.0646174
0.0646032
0.0645969
0.0645795
0.0645669
0.0645465
0.0645278
0.0645037
0.0644776
0.0644516
0.0644155
0.0643905
0.0643404
0.0643203
0.0642525
0.0642417
0.0641535
0.064153
0.0640463
0.0654919
0.065495
0.0654919
0.0654942
0.0654856
0.0654856
0.0654729
0.0654686
0.0654532
0.065443
0.0654249
0.065409
0.0653873
0.0653641
0.0653408
0.0653075
0.0652847
0.0652377
0.0652191
0.0651533
0.0651435
0.0650554
0.0650551
0.0649474
0.0663666
0.0663703
0.0663671
0.0663705
0.0663622
0.0663637
0.0663517
0.0663493
0.066335
0.0663269
0.0663106
0.0662972
0.0662777
0.0662572
0.0662372
0.0662058
0.0661875
0.0661411
0.0661282
0.0660626
0.0660574
0.0659702
0.065971
0.0658628
0.06726
0.0672644
0.0672604
0.0672652
0.0672556
0.0672589
0.0672453
0.0672453
0.0672296
0.067224
0.0672073
0.0671958
0.0671772
0.0671583
0.0671422
0.0671083
0.0670995
0.0670478
0.0670453
0.0669775
0.066979
0.0668942
0.0668987
0.0667961
0.0681815
0.0681853
0.0681822
0.068185
0.0681765
0.0681771
0.0681647
0.0681614
0.0681471
0.0681386
0.0681224
0.0681097
0.0680905
0.0680733
0.0680546
0.0680235
0.0680147
0.0679644
0.067964
0.0678978
0.0679031
0.0678201
0.0678292
0.0677345
0.0691391
0.0691427
0.069139
0.0691409
0.0691308
0.0691297
0.0691152
0.0691097
0.0690926
0.0690815
0.0690625
0.0690471
0.069025
0.0690061
0.0689826
0.0689547
0.0689382
0.0688924
0.068889
0.0688226
0.0688298
0.0687452
0.0687577
0.0686633
0.0701396
0.070143
0.0701383
0.0701389
0.0701268
0.0701233
0.0701057
0.0700968
0.0700758
0.0700604
0.0700368
0.0700165
0.0699894
0.0699655
0.0699362
0.0699052
0.0698817
0.0698356
0.0698255
0.0697567
0.069764
0.0696743
0.0696891
0.0695907
0.0711862
0.0711898
0.0711836
0.0711833
0.0711686
0.0711629
0.0711416
0.0711292
0.0711031
0.0710831
0.0710532
0.0710271
0.0709927
0.0709621
0.0709245
0.0708864
0.0708548
0.0708009
0.0707852
0.070707
0.0707118
0.0706135
0.070629
0.0705222
0.0722789
0.072283
0.0722751
0.0722743
0.0722571
0.0722497
0.0722244
0.0722096
0.0721775
0.0721548
0.0721164
0.0720866
0.0720423
0.0720051
0.071958
0.0719102
0.0718701
0.0718009
0.0717785
0.0716867
0.071684
0.0715722
0.0715852
0.0714647
0.0734146
0.073418
0.0734108
0.0734076
0.0733903
0.0733798
0.0733537
0.0733342
0.0733012
0.0732713
0.0732318
0.073193
0.0731453
0.0730992
0.0730435
0.0729895
0.0729318
0.0728583
0.0728176
0.0727132
0.0726958
0.0725656
0.0725703
0.0724279
0.0745864
0.0745897
0.0745823
0.0745787
0.0745605
0.074549
0.0745215
0.0745004
0.0744653
0.0744331
0.0743905
0.0743484
0.0742966
0.0742456
0.0741841
0.0741234
0.0740543
0.0739799
0.0739119
0.0738094
0.0737657
0.0736178
0.0736059
0.0734304
0.0757865
0.0757897
0.0757825
0.0757787
0.0757603
0.0757486
0.0757207
0.0756991
0.0756632
0.0756302
0.0755866
0.0755431
0.0754897
0.0754365
0.0753726
0.0753087
0.0752357
0.0751573
0.0750787
0.0749782
0.0749047
0.07476
0.0747209
0.0745078
0.0770062
0.0770093
0.0770024
0.0769989
0.0769808
0.0769695
0.0769418
0.0769207
0.0768853
0.0768526
0.0768095
0.0767664
0.0767135
0.0766608
0.0765973
0.0765338
0.076461
0.0763829
0.0763035
0.0762045
0.0761253
0.0759887
0.0759321
0.0757072
0.0782367
0.0782401
0.0782335
0.0782306
0.0782129
0.0782025
0.0781757
0.0781557
0.0781214
0.0780902
0.0780485
0.0780072
0.077956
0.0779054
0.0778441
0.0777832
0.0777129
0.0776378
0.077564
0.0774655
0.0773985
0.0772604
0.0772202
0.0770226
0.0794701
0.0794739
0.0794676
0.0794654
0.0794486
0.0794393
0.0794136
0.0793952
0.0793625
0.0793333
0.0792937
0.0792548
0.0792063
0.0791586
0.0791005
0.0790433
0.0789768
0.0789065
0.0788367
0.0787446
0.0786831
0.0785525
0.0785154
0.0783322
0.0806994
0.0807035
0.0806976
0.0806963
0.0806803
0.0806724
0.080648
0.0806315
0.0806006
0.0805738
0.0805365
0.0805006
0.0804549
0.080411
0.0803564
0.0803033
0.080241
0.080176
0.080111
0.0800254
0.0799683
0.0798477
0.0798129
0.0796434
0.0819184
0.0819232
0.0819173
0.0819172
0.0819018
0.0818956
0.0818724
0.0818581
0.0818289
0.081805
0.0817698
0.0817376
0.0816945
0.0816548
0.0816036
0.0815552
0.0814974
0.081438
0.081377
0.0812986
0.0812465
0.0811352
0.0811028
0.080947
0.0831224
0.0831275
0.0831215
0.0831231
0.0831078
0.0831039
0.0830812
0.08307
0.0830416
0.0830217
0.0829876
0.0829603
0.0829186
0.0828846
0.0828356
0.082793
0.0827387
0.0826852
0.0826295
0.0825572
0.0825092
0.0824081
0.0823779
0.0822357
0.0843068
0.0843121
0.0843064
0.0843092
0.0842943
0.0842925
0.0842705
0.0842623
0.0842347
0.0842189
0.0841856
0.0841636
0.0841227
0.0840953
0.0840471
0.0840123
0.0839597
0.0839129
0.0838618
0.0837957
0.083752
0.0836608
0.0836328
0.0835039
0.0854683
0.0854735
0.0854688
0.0854714
0.0854587
0.0854567
0.085438
0.0854297
0.0854064
0.0853907
0.0853624
0.0853412
0.0853056
0.0852801
0.0852371
0.0852058
0.0851578
0.0851172
0.085069
0.0850103
0.0849707
0.0848893
0.0848632
0.0847473
0.0866038
0.0866092
0.086605
0.086608
0.0865966
0.0865955
0.0865787
0.0865716
0.0865512
0.0865368
0.0865124
0.0864925
0.086462
0.0864379
0.0864008
0.0863717
0.0863294
0.0862932
0.0862481
0.0861992
0.086162
0.0860896
0.0860655
0.0859622
0.087711
0.0877166
0.0877129
0.0877165
0.0877061
0.0877061
0.0876908
0.0876853
0.087667
0.0876545
0.0876332
0.0876154
0.0875888
0.0875672
0.0875346
0.0875088
0.087471
0.0874395
0.0873988
0.0873579
0.0873216
0.087259
0.087237
0.0871458
0.0887884
0.0887939
0.0887907
0.0887948
0.0887853
0.0887863
0.0887725
0.0887685
0.0887523
0.0887417
0.0887231
0.0887077
0.0886843
0.0886656
0.088637
0.0886146
0.0885812
0.0885541
0.0885176
0.0884829
0.0884489
0.0883956
0.0883758
0.0882962
0.0898343
0.0898397
0.0898368
0.0898415
0.0898327
0.089835
0.0898223
0.0898199
0.0898055
0.0897969
0.0897806
0.0897676
0.0897474
0.0897313
0.0897064
0.0896873
0.089658
0.0896352
0.0896028
0.0895737
0.0895423
0.0894979
0.0894802
0.0894115
0.0908474
0.0908528
0.0908503
0.0908553
0.0908477
0.0908504
0.0908394
0.0908381
0.0908257
0.0908187
0.0908048
0.090794
0.0907766
0.0907633
0.0907417
0.0907258
0.0907004
0.0906813
0.0906531
0.090629
0.090601
0.0905653
0.0905478
0.0904904
0.0918271
0.0918326
0.0918301
0.0918361
0.0918284
0.0918329
0.0918221
0.091823
0.0918116
0.0918067
0.0917947
0.0917861
0.0917713
0.0917606
0.0917422
0.0917292
0.0917074
0.091692
0.0916678
0.0916482
0.0916235
0.0915955
0.0915792
0.0915315
0.092773
0.0927782
0.0927764
0.092782
0.092776
0.0927801
0.0927716
0.0927727
0.0927635
0.0927598
0.0927501
0.0927434
0.0927311
0.0927227
0.0927072
0.0926973
0.0926787
0.0926668
0.0926459
0.0926307
0.0926099
0.0925878
0.0925734
0.0925344
0.0936845
0.0936898
0.0936879
0.0936945
0.0936882
0.0936941
0.0936855
0.0936887
0.0936802
0.0936785
0.0936702
0.0936656
0.0936555
0.0936494
0.0936367
0.0936292
0.0936139
0.093605
0.0935879
0.0935767
0.093559
0.0935423
0.0935295
0.0934991
0.0945618
0.094567
0.0945652
0.0945723
0.0945663
0.0945732
0.0945653
0.0945695
0.0945624
0.094562
0.0945555
0.0945525
0.0945446
0.0945405
0.0945303
0.0945255
0.0945129
0.0945074
0.0944929
0.0944853
0.0944711
0.0944593
0.0944477
0.0944255
0.0954049
0.0954097
0.0954093
0.0954143
0.0954121
0.0954158
0.0954123
0.0954148
0.0954106
0.0954105
0.095406
0.0954045
0.0953985
0.0953964
0.0953885
0.095386
0.095376
0.0953729
0.0953617
0.0953576
0.0953458
0.0953382
0.0953296
0.0953138
0.0962141
0.0962193
0.0962171
0.0962261
0.0962189
0.0962296
0.0962206
0.096229
0.0962223
0.0962257
0.0962214
0.096222
0.0962175
0.0962172
0.0962115
0.0962111
0.0962035
0.0962032
0.0961943
0.0961931
0.0961845
0.0961805
0.096174
0.0961647
0.0969899
0.096994
0.0969953
0.0969982
0.0970004
0.0970009
0.0970032
0.0970033
0.0970044
0.0970044
0.0970039
0.0970046
0.0970023
0.0970035
0.0969998
0.0970014
0.0969959
0.0969979
0.0969916
0.0969935
0.0969869
0.096987
0.0969828
0.0969785
0.0977326
0.0977378
0.0977355
0.0977454
0.097738
0.0977509
0.0977417
0.0977532
0.0977468
0.0977536
0.0977508
0.0977546
0.0977528
0.0977559
0.0977539
0.0977571
0.0977539
0.097758
0.0977539
0.0977583
0.0977543
0.0977576
0.0977552
0.097756
0.0984434
0.0984468
0.0984491
0.0984511
0.0984554
0.0984551
0.0984606
0.0984597
0.0984647
0.0984648
0.0984677
0.0984701
0.0984709
0.0984748
0.0984745
0.0984795
0.0984777
0.098484
0.0984818
0.0984888
0.0984864
0.0984931
0.0984923
0.0984976
0.0991221
0.0991269
0.0991256
0.0991342
0.0991295
0.0991407
0.0991347
0.0991459
0.0991418
0.0991501
0.099149
0.0991552
0.0991558
0.0991614
0.0991624
0.0991688
0.0991689
0.0991767
0.0991763
0.0991854
0.0991849
0.0991944
0.0991946
0.0992042
0.0997709
0.0997739
0.0997763
0.099779
0.0997825
0.0997845
0.0997893
0.0997906
0.0997963
0.0997982
0.0998028
0.099807
0.0998101
0.0998162
0.0998186
0.0998264
0.0998276
0.0998372
0.0998383
0.0998494
0.09985
0.0998624
0.0998637
0.0998768
0.100389
0.100393
0.100393
0.1004
0.100399
0.100406
0.100405
0.100414
0.100414
0.100421
0.100423
0.10043
0.100433
0.100441
0.100444
0.100453
0.100455
0.100466
0.100469
0.100481
0.100484
0.100498
0.1005
0.100517
0.100979
0.100982
0.100984
0.100988
0.10099
0.100994
0.100998
0.101002
0.101007
0.101012
0.101016
0.101023
0.101027
0.101035
0.10104
0.10105
0.101053
0.101065
0.101069
0.101083
0.101086
0.101103
0.101106
0.101125
0.101541
0.101544
0.101545
0.10155
0.101551
0.101557
0.101559
0.101565
0.101569
0.101575
0.10158
0.101588
0.101592
0.101601
0.101606
0.101617
0.101622
0.101635
0.101639
0.101655
0.101659
0.101678
0.101681
0.101703
0.102076
0.102078
0.102081
0.102083
0.102087
0.102091
0.102095
0.102101
0.102105
0.102112
0.102116
0.102125
0.10213
0.10214
0.102146
0.102157
0.102163
0.102177
0.102182
0.102199
0.102204
0.102224
0.102228
0.102251
0.102585
0.102588
0.102589
0.102594
0.102595
0.102601
0.102604
0.10261
0.102615
0.102622
0.102627
0.102636
0.102642
0.102652
0.102658
0.102671
0.102677
0.102692
0.102698
0.102716
0.102721
0.102743
0.102747
0.102773
0.103069
0.103071
0.103074
0.103076
0.103081
0.103083
0.103089
0.103094
0.1031
0.103107
0.103112
0.103122
0.103128
0.103139
0.103146
0.103158
0.103165
0.103181
0.103188
0.103206
0.103212
0.103235
0.10324
0.103267
0.103529
0.103531
0.103533
0.103537
0.103539
0.103545
0.103548
0.103556
0.10356
0.103568
0.103574
0.103583
0.10359
0.103601
0.103608
0.103622
0.103629
0.103646
0.103652
0.103672
0.103678
0.103702
0.103707
0.103736
0.103966
0.103968
0.10397
0.103974
0.103977
0.103982
0.103986
0.103992
0.103998
0.104005
0.104012
0.104021
0.104028
0.10404
0.104048
0.104062
0.104069
0.104086
0.104094
0.104114
0.104121
0.104146
0.104151
0.104181
0.104382
0.104383
0.104386
0.104388
0.104393
0.104396
0.104402
0.104408
0.104413
0.104421
0.104428
0.104438
0.104445
0.104457
0.104465
0.104479
0.104487
0.104505
0.104513
0.104533
0.104541
0.104566
0.104572
0.104603
0.104776
0.104778
0.104779
0.104784
0.104785
0.104793
0.104794
0.104803
0.104807
0.104816
0.104822
0.104833
0.10484
0.104852
0.10486
0.104875
0.104883
0.104901
0.104909
0.104931
0.104939
0.104964
0.104971
0.105002
0.10515
0.105152
0.105155
0.105156
0.105162
0.105164
0.105172
0.105175
0.105183
0.10519
0.105197
0.105207
0.105215
0.105227
0.105236
0.10525
0.105259
0.105277
0.105286
0.105308
0.105316
0.105342
0.105348
0.105381
0.105506
0.105508
0.105508
0.105514
0.105514
0.105523
0.105523
0.105534
0.105536
0.105547
0.105552
0.105563
0.10557
0.105583
0.105592
0.105607
0.105615
0.105634
0.105642
0.105664
0.105673
0.105699
0.105706
0.105739
0.105843
0.105844
0.105847
0.105848
0.105854
0.105855
0.105864
0.105866
0.105876
0.105881
0.10589
0.105899
0.105908
0.10592
0.105929
0.105944
0.105953
0.105972
0.10598