/*--------------------------------*- C++ -*----------------------------------*\
  =========                 |
  \\      /  F ield         | OpenFOAM: The Open Source CFD Toolbox
   \\    /   O peration     | Website:  https://openfoam.org
    \\  /    A nd           | Version:  10
     \\/     M anipulation  |
\*---------------------------------------------------------------------------*/
FoamFile
{
    format      ascii;
    class       volScalarField;
    location    "0.43";
    object      T;
}
// * * * * * * * * * * * * * * * * * * * * * * * * * * * * * * * * * * * * * //

dimensions      [0 0 0 1 0 0 0];

internalField   nonuniform List<scalar> 
4176
(
180.347
180.351
180.372
180.382
180.426
180.445
180.507
180.538
180.613
180.661
180.75
180.809
180.913
180.985
181.101
181.191
181.308
181.43
181.535
181.702
181.778
182.01
182.024
182.327
180.356
180.361
180.382
180.393
180.436
180.457
180.519
180.552
180.628
180.677
180.767
180.829
180.935
181.01
181.128
181.22
181.34
181.464
181.572
181.743
181.819
182.062
182.078
182.412
180.384
180.389
180.409
180.42
180.462
180.483
180.542
180.576
180.649
180.698
180.785
180.846
180.95
181.022
181.139
181.228
181.347
181.467
181.573
181.739
181.811
182.049
182.065
182.41
180.436
180.44
180.461
180.471
180.514
180.534
180.594
180.627
180.7
180.749
180.837
180.897
181.002
181.073
181.191
181.279
181.4
181.522
181.622
181.794
181.863
182.097
182.111
182.44
180.511
180.515
180.536
180.546
180.588
180.608
180.667
180.699
180.772
180.82
180.907
180.966
181.07
181.14
181.258
181.343
181.465
181.586
181.684
181.857
181.925
182.156
182.17
182.489
180.61
180.614
180.635
180.645
180.686
180.706
180.765
180.797
180.869
180.917
181.002
181.062
181.164
181.234
181.35
181.435
181.559
181.673
181.777
181.945
182.015
182.244
182.261
182.579
180.733
180.737
180.757
180.767
180.809
180.828
180.886
180.918
180.989
181.036
181.121
181.18
181.281
181.35
181.465
181.548
181.672
181.782
181.89
182.051
182.123
182.349
182.369
182.685
180.88
180.884
180.904
180.914
180.955
180.974
181.031
181.063
181.133
181.18
181.263
181.321
181.421
181.489
181.603
181.685
181.809
181.914
182.025
182.181
182.255
182.478
182.498
182.81
181.05
181.055
181.075
181.084
181.125
181.143
181.2
181.231
181.3
181.346
181.428
181.486
181.585
181.652
181.764
181.844
181.968
182.07
182.182
182.332
182.408
182.627
182.649
182.956
181.245
181.249
181.269
181.278
181.318
181.336
181.393
181.423
181.491
181.537
181.618
181.674
181.771
181.837
181.949
182.027
182.149
182.248
182.361
182.506
182.584
182.798
182.821
183.123
181.463
181.467
181.487
181.496
181.536
181.553
181.609
181.638
181.706
181.75
181.83
181.886
181.981
182.046
182.156
182.233
182.354
182.449
182.563
182.703
182.784
182.989
183.015
183.311
181.705
181.709
181.729
181.737
181.776
181.793
181.848
181.877
181.944
181.988
182.066
182.12
182.215
182.278
182.386
182.461
182.581
182.673
182.787
182.922
183.003
183.204
183.23
183.521
181.971
181.975
181.994
182.002
182.041
182.057
182.112
182.14
182.205
182.248
182.325
182.378
182.471
182.533
182.639
182.712
182.83
182.92
183.033
183.163
183.246
183.44
183.467
183.752
182.26
182.264
182.283
182.291
182.329
182.345
182.399
182.426
182.49
182.532
182.608
182.66
182.751
182.811
182.916
182.986
183.102
183.19
183.302
183.427
183.511
183.698
183.725
184.005
182.573
182.577
182.596
182.603
182.641
182.656
182.709
182.735
182.798
182.839
182.913
182.964
183.053
183.112
183.215
183.283
183.397
183.482
183.593
183.714
183.796
183.98
184.006
184.279
182.91
182.914
182.932
182.939
182.977
182.991
183.043
183.068
183.13
183.17
183.242
183.292
183.379
183.436
183.537
183.603
183.715
183.796
183.906
184.022
184.106
184.281
184.308
184.575
183.271
183.274
183.293
183.299
183.336
183.349
183.4
183.424
183.485
183.523
183.595
183.642
183.728
183.783
183.881
183.945
184.055
184.133
184.242
184.353
184.436
184.606
184.633
184.892
183.655
183.659
183.677
183.682
183.719
183.731
183.781
183.804
183.864
183.901
183.97
184.016
184.099
184.152
184.249
184.31
184.418
184.493
184.599
184.705
184.788
184.952
184.979
185.232
184.063
184.067
184.084
184.09
184.125
184.137
184.186
184.208
184.266
184.301
184.369
184.413
184.494
184.545
184.639
184.697
184.803
184.875
184.979
185.08
185.163
185.319
185.347
185.592
184.495
184.498
184.515
184.52
184.555
184.566
184.614
184.635
184.691
184.725
184.79
184.833
184.911
184.96
185.052
185.108
185.21
185.279
185.381
185.477
185.559
185.71
185.737
185.975
184.95
184.954
184.97
184.975
185.009
185.019
185.066
185.085
185.14
185.172
185.235
185.276
185.352
185.398
185.488
185.54
185.64
185.706
185.806
185.897
185.978
186.121
186.149
186.378
185.429
185.433
185.449
185.453
185.486
185.495
185.54
185.558
185.612
185.642
185.704
185.742
185.816
185.86
185.946
185.996
186.093
186.155
186.252
186.339
186.418
186.555
186.583
186.804
185.932
185.935
185.951
185.954
185.987
185.995
186.039
186.055
186.107
186.135
186.195
186.231
186.302
186.343
186.427
186.474
186.568
186.626
186.72
186.802
186.881
187.01
187.038
187.251
186.458
186.461
186.477
186.479
186.511
186.518
186.561
186.576
186.625
186.652
186.709
186.743
186.812
186.85
186.931
186.975
187.066
187.12
187.211
187.288
187.365
187.488
187.515
187.719
187.008
187.011
187.026
187.028
187.058
187.064
187.106
187.119
187.167
187.191
187.247
187.278
187.344
187.38
187.458
187.498
187.586
187.636
187.725
187.797
187.871
187.987
188.014
188.21
187.581
187.583
187.598
187.599
187.629
187.634
187.674
187.686
187.732
187.754
187.807
187.836
187.899
187.932
188.007
188.044
188.128
188.175
188.26
188.327
188.4
188.509
188.533
188.722
188.177
188.179
188.194
188.194
188.223
188.226
188.265
188.275
188.32
188.34
188.39
188.416
188.477
188.507
188.579
188.612
188.694
188.736
188.818
188.88
188.95
189.052
189.075
189.257
188.796
188.798
188.812
188.812
188.84
188.842
188.879
188.888
188.93
188.948
188.996
189.02
189.078
189.105
189.174
189.203
189.281
189.32
189.398
189.455
189.522
189.617
189.639
189.813
189.438
189.44
189.453
189.453
189.48
189.48
189.516
189.523
189.564
189.579
189.625
189.646
189.701
189.725
189.79
189.817
189.891
189.926
190.001
190.053
190.117
190.204
190.225
190.391
190.102
190.104
190.117
190.116
190.142
190.142
190.176
190.181
190.219
190.233
190.276
190.295
190.347
190.367
190.43
190.453
190.523
190.554
190.625
190.672
190.733
190.814
190.834
190.988
190.789
190.791
190.804
190.801
190.827
190.825
190.858
190.861
190.898
190.909
190.95
190.966
191.015
191.032
191.092
191.111
191.178
191.204
191.272
191.314
191.371
191.445
191.464
191.609
191.498
191.5
191.512
191.509
191.534
191.531
191.562
191.564
191.599
191.608
191.646
191.659
191.706
191.72
191.776
191.791
191.855
191.876
191.941
191.978
192.031
192.099
192.115
192.253
192.23
192.231
192.243
192.239
192.263
192.259
192.289
192.289
192.322
192.329
192.365
192.375
192.419
192.43
192.482
192.494
192.554
192.571
192.632
192.663
192.714
192.775
192.79
192.917
192.983
192.984
192.996
192.991
193.014
193.008
193.037
193.035
193.066
193.071
193.105
193.113
193.154
193.161
193.211
193.219
193.275
193.288
193.345
193.372
193.417
193.473
193.486
193.604
193.758
193.759
193.77
193.765
193.786
193.78
193.807
193.804
193.833
193.836
193.867
193.872
193.91
193.915
193.961
193.966
194.018
194.027
194.08
194.102
194.144
194.193
194.204
194.313
194.554
194.555
194.566
194.56
194.58
194.573
194.599
194.594
194.621
194.622
194.651
194.653
194.689
194.69
194.734
194.735
194.784
194.788
194.838
194.854
194.892
194.936
194.943
195.043
195.371
195.372
195.382
195.376
195.396
195.387
195.412
195.405
195.431
195.429
195.456
195.456
195.489
195.487
195.527
195.525
195.57
195.571
195.617
195.628
195.663
195.7
195.704
195.796
196.21
196.211
196.22
196.214
196.232
196.223
196.246
196.238
196.262
196.258
196.283
196.28
196.31
196.305
196.343
196.336
196.379
196.375
196.417
196.424
196.454
196.486
196.488
196.569
197.069
197.07
197.079
197.072
197.09
197.079
197.101
197.091
197.114
197.108
197.13
197.125
197.153
197.145
197.179
197.169
197.208
197.201
197.239
197.241
197.268
197.294
197.292
197.365
197.949
197.95
197.959
197.951
197.968
197.956
197.977
197.966
197.986
197.979
197.999
197.991
198.016
198.006
198.037
198.023
198.059
198.048
198.082
198.079
198.102
198.122
198.118
198.182
198.849
198.85
198.859
198.85
198.867
198.854
198.874
198.861
198.88
198.87
198.888
198.878
198.901
198.887
198.916
198.898
198.931
198.915
198.946
198.938
198.958
198.972
198.965
199.021
199.77
199.771
199.779
199.77
199.785
199.772
199.79
199.776
199.793
199.782
199.798
199.786
199.806
199.789
199.815
199.794
199.824
199.804
199.831
199.818
199.835
199.843
199.833
199.882
200.711
200.711
200.719
200.709
200.724
200.71
200.727
200.711
200.727
200.714
200.728
200.713
200.731
200.711
200.735
200.71
200.737
200.713
200.737
200.719
200.733
200.734
200.721
200.762
201.672
201.672
201.679
201.669
201.683
201.668
201.684
201.667
201.68
201.666
201.678
201.661
201.676
201.654
201.675
201.646
201.671
201.642
201.663
201.64
201.652
201.646
201.631
201.663
202.652
202.652
202.659
202.648
202.662
202.645
202.66
202.641
202.654
202.637
202.647
202.628
202.641
202.616
202.634
202.602
202.624
202.59
202.61
202.581
202.592
202.579
202.561
202.585
203.651
203.651
203.658
203.647
203.659
203.642
203.655
203.636
203.646
203.628
203.636
203.615
203.625
203.597
203.613
203.578
203.597
203.559
203.577
203.542
203.55
203.532
203.512
203.528
204.67
204.67
204.676
204.664
204.676
204.658
204.67
204.649
204.658
204.638
204.644
204.62
204.629
204.598
204.611
204.573
204.589
204.546
204.563
204.522
204.529
204.503
204.483
204.49
205.707
205.707
205.713
205.701
205.712
205.692
205.703
205.681
205.688
205.667
205.671
205.645
205.651
205.618
205.629
205.587
205.6
205.553
205.567
205.522
205.526
205.494
205.474
205.471
206.763
206.762
206.768
206.755
206.765
206.745
206.755
206.731
206.737
206.714
206.716
206.688
206.692
206.656
206.664
206.619
206.63
206.579
206.591
206.54
206.543
206.501
206.485
206.472
207.836
207.835
207.841
207.827
207.837
207.815
207.825
207.8
207.804
207.779
207.779
207.749
207.751
207.712
207.718
207.67
207.679
207.624
207.633
207.577
207.578
207.53
207.513
207.492
208.926
208.926
208.931
208.917
208.926
208.903
208.911
208.885
208.888
208.861
208.86
208.827
208.827
208.786
208.79
208.738
208.746
208.686
208.693
208.631
208.634
208.576
208.559
208.53
210.033
210.033
210.038
210.023
210.031
210.008
210.015
209.988
209.989
209.961
209.957
209.923
209.921
209.877
209.879
209.823
209.83
209.766
209.772
209.701
209.708
209.641
209.624
209.586
211.156
211.156
211.16
211.146
211.153
211.129
211.135
211.106
211.107
211.077
211.072
211.035
211.032
210.985
210.985
210.925
210.932
210.862
210.869
210.791
210.796
210.724
210.706
210.661
212.295
212.294
212.299
212.283
212.29
212.266
212.271
212.241
212.24
212.208
212.202
212.164
212.159
212.109
212.108
212.044
212.05
211.972
211.984
211.898
211.902
211.824
211.805
211.754
213.448
213.448
213.452
213.436
213.442
213.417
213.421
213.391
213.388
213.355
213.348
213.307
213.301
213.248
213.248
213.178
213.185
213.103
213.111
213.022
213.025
212.942
212.922
212.863
214.616
214.615
214.619
214.603
214.608
214.583
214.586
214.555
214.551
214.517
214.509
214.465
214.46
214.401
214.403
214.328
214.334
214.248
214.256
214.163
214.164
214.076
214.055
213.99
215.797
215.796
215.8
215.783
215.788
215.762
215.764
215.732
215.728
215.692
215.684
215.637
215.633
215.569
215.573
215.492
215.499
215.409
215.416
215.319
215.318
215.226
215.204
215.132
216.99
216.989
216.993
216.976
216.981
216.954
216.956
216.922
216.919
216.88
216.873
216.822
216.818
216.753
216.754
216.673
216.678
216.586
216.589
216.49
216.488
216.391
216.368
216.291
218.195
218.195
218.197
218.182
218.185
218.159
218.159
218.125
218.121
218.081
218.073
218.022
218.016
217.95
217.95
217.867
217.869
217.775
217.778
217.676
217.671
217.571
217.548
217.465
219.412
219.411
219.414
219.398
219.401
219.374
219.374
219.34
219.335
219.294
219.285
219.233
219.226
219.159
219.157
219.074
219.075
218.979
218.98
218.875
218.87
218.766
218.742
218.653
220.638
220.638
220.641
220.624
220.627
220.601
220.6
220.567
220.559
220.52
220.509
220.456
220.448
220.381
220.376
220.293
220.292
220.195
220.194
220.087
220.08
219.974
219.949
219.856
221.875
221.875
221.878
221.861
221.864
221.837
221.836
221.803
221.794
221.756
221.743
221.691
221.681
221.613
221.607
221.524
221.521
221.422
221.421
221.311
221.304
221.194
221.169
221.071
223.121
223.121
223.124
223.107
223.11
223.083
223.082
223.049
223.038
223.001
222.986
222.936
222.923
222.856
222.849
222.765
222.761
222.663
222.658
222.547
222.538
222.427
222.401
222.299
224.377
224.376
224.379
224.362
224.366
224.338
224.336
224.304
224.292
224.256
224.239
224.19
224.177
224.109
224.1
224.017
224.01
223.911
223.908
223.794
223.784
223.67
223.644
223.539
225.64
225.64
225.643
225.626
225.63
225.602
225.6
225.568
225.556
225.52
225.501
225.453
225.437
225.371
225.362
225.276
225.269
225.171
225.164
225.05
225.04
224.924
224.897
224.789
226.913
226.912
226.916
226.899
226.902
226.874
226.872
226.84
226.827
226.792
226.772
226.725
226.707
226.642
226.631
226.544
226.536
226.437
226.431
226.316
226.304
226.187
226.16
226.048
228.193
228.193
228.196
228.179
228.182
228.155
228.152
228.119
228.106
228.071
228.05
228.004
227.985
227.919
227.909
227.82
227.812
227.712
227.704
227.59
227.577
227.458
227.431
227.316
229.481
229.481
229.484
229.467
229.47
229.442
229.44
229.407
229.393
229.358
229.335
229.29
229.269
229.204
229.192
229.103
229.095
228.994
228.984
228.87
228.856
228.736
228.709
228.592
230.777
230.777
230.78
230.762
230.765
230.737
230.734
230.7
230.686
230.651
230.627
230.582
230.559
230.495
230.481
230.393
230.384
230.281
230.27
230.157
230.142
230.021
229.994
229.875
232.079
232.079
232.082
232.064
232.066
232.038
232.034
232
231.985
231.95
231.924
231.88
231.855
231.791
231.774
231.688
231.678
231.573
231.562
231.449
231.433
231.312
231.284
231.164
233.386
233.387
233.389
233.371
233.373
233.344
233.339
233.305
233.289
233.253
233.226
233.182
233.154
233.092
233.072
232.987
232.977
232.871
232.86
232.745
232.729
232.608
232.581
232.459
234.697
234.697
234.699
234.681
234.683
234.653
234.648
234.613
234.596
234.56
234.531
234.488
234.458
234.397
234.375
234.291
234.277
234.174
234.163
234.045
234.03
233.91
233.881
233.76
236.008
236.008
236.011
235.992
235.994
235.963
235.958
235.922
235.905
235.868
235.839
235.796
235.764
235.705
235.679
235.599
235.579
235.483
235.469
235.35
235.335
235.215
235.188
235.065
237.316
237.316
237.319
237.3
237.303
237.272
237.268
237.232
237.215
237.178
237.149
237.106
237.073
237.016
236.987
236.91
236.889
236.791
236.779
236.66
236.646
236.526
236.499
236.377
238.619
238.619
238.622
238.604
238.607
238.577
238.573
238.538
238.522
238.487
238.458
238.417
238.384
238.328
238.299
238.224
238.201
238.107
238.091
237.977
237.961
237.842
237.816
237.694
239.914
239.914
239.918
239.9
239.905
239.876
239.874
239.841
239.827
239.793
239.766
239.727
239.695
239.643
239.613
239.542
239.516
239.426
239.407
239.299
239.282
239.163
239.138
239.017
241.2
241.201
241.206
241.189
241.195
241.168
241.169
241.138
241.126
241.096
241.071
241.036
241.006
240.957
240.929
240.862
240.837
240.751
240.733
240.624
240.609
240.49
240.467
240.345
242.481
242.482
242.488
242.473
242.48
242.456
242.459
242.43
242.422
242.395
242.374
242.342
242.316
242.271
242.246
242.184
242.161
242.079
242.062
241.956
241.943
241.824
241.802
241.68
243.762
243.764
243.77
243.757
243.765
243.743
243.748
243.722
243.717
243.693
243.675
243.647
243.624
243.584
243.563
243.504
243.487
243.409
243.394
243.294
243.283
243.166
243.146
243.022
245.053
245.055
245.061
245.049
245.058
245.038
245.042
245.02
245.015
244.994
244.978
244.954
244.934
244.897
244.881
244.823
244.816
244.735
244.731
244.629
244.628
244.513
244.497
244.376
246.364
246.367
246.373
246.361
246.369
246.349
246.353
246.331
246.326
246.306
246.29
246.267
246.247
246.213
246.199
246.142
246.141
246.061
246.063
245.964
245.969
245.857
245.848
245.735
247.708
247.71
247.716
247.702
247.711
247.688
247.692
247.666
247.66
247.637
247.62
247.595
247.574
247.541
247.523
247.47
247.465
247.387
247.392
247.294
247.304
247.193
247.19
247.084
249.094
249.096
249.101
249.085
249.092
249.066
249.067
249.038
249.028
249.001
248.979
248.95
248.923
248.887
248.862
248.81
248.796
248.72
248.724
248.622
248.634
248.52
248.522
248.414
250.529
250.53
250.534
250.517
250.521
250.491
250.488
250.455
250.439
250.406
250.377
250.341
250.307
250.264
250.229
250.173
250.148
250.069
250.063
249.956
249.968
249.845
249.85
249.735
252.013
252.015
252.018
251.999
251.999
251.967
251.96
251.922
251.899
251.861
251.823
251.781
251.736
251.684
251.638
251.571
251.535
251.444
251.429
251.308
251.314
251.178
251.184
251.053
253.546
253.548
253.549
253.528
253.527
253.492
253.481
253.439
253.411
253.367
253.322
253.273
253.218
253.157
253.098
253.022
252.969
252.865
252.836
252.697
252.69
252.533
252.534
252.381
255.119
255.12
255.121
255.099
255.097
255.059
255.047
255
254.97
254.921
254.872
254.815
254.755
254.685
254.617
254.532
254.461
254.353
254.295
254.149
254.117
253.937
253.924
253.735
256.721
256.722
256.724
256.701
256.698
256.659
256.646
256.598
256.566
256.514
256.463
256.403
256.339
256.265
256.19
256.101
256.017
255.907
255.823
255.68
255.613
255.421
255.383
255.148
258.341
258.343
258.344
258.321
258.319
258.28
258.267
258.219
258.187
258.135
258.083
258.023
257.957
257.883
257.806
257.715
257.628
257.517
257.423
257.283
257.191
257.005
256.94
256.669
259.968
259.969
259.972
259.949
259.948
259.909
259.897
259.85
259.819
259.769
259.718
259.66
259.595
259.523
259.447
259.359
259.273
259.165
259.071
258.936
258.843
258.662
258.594
258.326
261.589
261.591
261.594
261.572
261.572
261.534
261.523
261.478
261.449
261.402
261.353
261.298
261.236
261.168
261.096
261.013
260.929
260.828
260.741
260.61
260.527
260.353
260.295
260.052
263.196
263.197
263.201
263.18
263.181
263.145
263.136
263.094
263.067
263.022
262.977
262.926
262.868
262.804
262.736
262.66
262.581
262.488
262.405
262.285
262.209
262.046
261.994
261.771
264.779
264.781
264.785
264.765
264.768
264.734
264.727
264.687
264.662
264.622
264.579
264.533
264.478
264.421
264.357
264.287
264.214
264.129
264.054
263.94
263.873
263.723
263.675
263.47
266.332
266.335
266.339
266.321
266.324
266.293
266.287
266.251
266.228
266.192
266.152
266.111
266.06
266.009
265.949
265.887
265.818
265.742
265.672
265.569
265.508
265.371
265.326
265.141
267.851
267.854
267.859
267.842
267.846
267.817
267.812
267.78
267.759
267.728
267.689
267.655
267.605
267.563
267.505
267.452
267.387
267.32
267.254
267.164
267.105
266.984
266.941
266.775
269.33
269.334
269.339
269.323
269.329
269.301
269.299
269.269
269.25
269.223
269.188
269.159
269.112
269.076
269.021
268.977
268.915
268.857
268.795
268.717
268.662
268.554
268.514
268.366
270.768
270.772
270.778
270.762
270.769
270.743
270.744
270.714
270.7
270.674
270.644
270.617
270.577
270.544
270.495
270.456
270.4
270.35
270.293
270.225
270.172
270.079
270.042
269.91
272.162
272.164
272.171
272.156
272.165
272.14
272.143
272.115
272.105
272.081
272.055
272.031
271.995
271.966
271.923
271.889
271.839
271.796
271.741
271.684
271.638
271.555
271.52
271.405
273.508
273.511
273.519
273.504
273.515
273.49
273.496
273.47
273.462
273.441
273.419
273.397
273.366
273.341
273.303
273.273
273.228
273.192
273.142
273.096
273.05
272.982
272.947
272.848
274.808
274.811
274.819
274.805
274.817
274.794
274.801
274.777
274.772
274.753
274.734
274.715
274.688
274.667
274.633
274.608
274.568
274.538
274.493
274.455
274.411
274.357
274.322
274.238
276.06
276.063
276.072
276.058
276.071
276.049
276.058
276.035
276.033
276.016
276
275.985
275.961
275.943
275.914
275.893
275.858
275.833
275.793
275.763
275.72
275.677
275.647
275.575
277.264
277.267
277.276
277.263
277.276
277.256
277.266
277.246
277.245
277.23
277.217
277.205
277.184
277.17
277.144
277.128
277.097
277.078
277.041
277.017
276.98
276.945
276.918
276.858
278.42
278.423
278.433
278.419
278.436
278.413
278.428
278.406
278.409
278.396
278.386
278.375
278.358
278.347
278.325
278.312
278.285
278.27
278.239
278.221
278.186
278.163
278.135
278.087
279.529
279.532
279.54
279.532
279.541
279.53
279.535
279.524
279.522
279.515
279.505
279.498
279.483
279.475
279.456
279.447
279.423
279.414
279.385
279.373
279.343
279.326
279.3
279.263
280.591
280.593
280.606
280.588
280.614
280.584
280.61
280.583
280.595
280.581
280.578
280.571
280.56
280.555
280.538
280.533
280.513
280.506
280.482
280.476
280.447
280.438
280.414
280.387
281.607
281.611
281.615
281.616
281.614
281.619
281.612
281.616
281.607
281.61
281.6
281.599
281.589
281.586
281.573
281.571
281.553
281.552
281.53
281.527
281.503
281.499
281.476
281.46
282.577
282.578
282.595
282.572
282.606
282.569
282.607
282.573
282.596
282.579
282.583
282.578
282.572
282.571
282.56
282.561
282.546
282.548
282.529
282.532
282.509
282.511
282.49
282.482
283.504
283.509
283.509
283.519
283.506
283.527
283.507
283.527
283.509
283.522
283.511
283.517
283.509
283.511
283.502
283.505
283.494
283.498
283.482
283.488
283.469
283.476
283.456
283.456
284.388
284.388
284.406
284.381
284.42
284.379
284.424
284.387
284.417
284.398
284.409
284.405
284.404
284.407
284.4
284.406
284.396
284.403
284.39
284.4
284.382
284.394
284.377
284.382
285.23
285.236
285.233
285.248
285.231
285.258
285.233
285.262
285.24
285.26
285.248
285.259
285.253
285.26
285.254
285.262
285.255
285.264
285.253
285.266
285.252
285.267
285.251
285.263
286.033
286.032
286.048
286.029
286.061
286.03
286.068
286.038
286.066
286.051
286.064
286.062
286.065
286.071
286.067
286.077
286.071
286.083
286.074
286.09
286.077
286.096
286.082
286.098
286.795
286.801
286.798
286.811
286.8
286.821
286.804
286.828
286.812
286.832
286.823
286.835
286.833
286.842
286.84
286.851
286.848
286.861
286.854
286.872
286.861
286.883
286.87
286.891
287.522
287.522
287.534
287.522
287.544
287.527
287.551
287.537
287.555
287.549
287.56
287.562
287.566
287.575
287.574
287.586
287.584
287.6
287.594
287.615
287.605
287.629
287.618
287.643
288.211
288.216
288.214
288.224
288.219
288.233
288.226
288.241
288.236
288.249
288.248
288.258
288.26
288.271
288.271
288.285
288.284
288.301
288.296
288.318
288.311
288.337
288.327
288.355
288.867
288.867
288.876
288.87
288.885
288.878
288.892
288.889
288.899
288.903
288.908
288.916
288.92
288.931
288.933
288.947
288.948
288.965
288.963
288.986
288.98
289.008
288.999
289.029
289.488
289.493
289.491
289.501
289.497
289.51
289.507
289.517
289.52
289.527
289.532
289.541
289.546
289.558
289.56
289.575
289.577
289.597
289.594
289.619
289.614
289.644
289.633
289.67
290.079
290.08
290.088
290.083
290.097
290.092
290.104
290.105
290.112
290.12
290.124
290.134
290.139
290.152
290.155
290.171
290.174
290.193
290.193
290.218
290.214
290.246
290.239
290.272
290.639
290.643
290.642
290.651
290.648
290.66
290.659
290.669
290.672
290.681
290.686
290.696
290.702
290.715
290.719
290.736
290.739
290.76
290.76
290.787
290.783
290.816
290.808
290.846
291.171
291.173
291.177
291.177
291.186
291.185
291.196
291.197
291.206
291.212
291.219
291.229
291.235
291.249
291.254
291.271
291.275
291.296
291.297
291.324
291.322
291.356
291.349
291.387
291.675
291.677
291.68
291.683
291.687
291.692
291.696
291.704
291.708
291.718
291.723
291.735
291.741
291.755
291.76
291.778
291.782
291.804
291.806
291.834
291.832
291.866
291.859
291.901
292.152
292.155
292.156
292.162
292.163
292.171
292.173
292.181
292.187
292.195
292.203
292.213
292.22
292.234
292.24
292.258
292.263
292.285
292.288
292.316
292.314
292.35
292.344
292.385
292.605
292.606
292.612
292.609
292.621
292.618
292.63
292.631
292.641
292.648
292.655
292.666
292.673
292.688
292.694
292.712
292.718
292.74
292.744
292.772
292.771
292.807
292.8
292.845
293.034
293.037
293.036
293.045
293.041
293.056
293.051
293.066
293.066
293.079
293.083
293.096
293.103
293.117
293.124
293.143
293.148
293.171
293.175
293.204
293.203
293.24
293.234
293.277
293.441
293.441
293.447
293.444
293.457
293.451
293.468
293.463
293.479
293.481
293.493
293.501
293.51
293.524
293.531
293.55
293.556
293.579
293.583
293.612
293.612
293.649
293.643
293.688
293.825
293.828
293.827
293.836
293.831
293.847
293.84
293.859
293.855
293.872
293.874
293.888
293.894
293.909
293.917
293.936
293.941
293.964
293.969
293.998
293.999
294.035
294.03
294.074
294.19
294.19
294.197
294.192
294.207
294.198
294.218
294.211
294.229
294.229
294.242
294.251
294.26
294.273
294.282
294.3
294.306
294.33
294.334
294.363
294.364
294.399
294.394
294.44
294.535
294.539
294.534
294.548
294.537
294.559
294.547
294.57
294.563
294.581
294.583
294.598
294.604
294.619
294.627
294.645
294.651
294.674
294.679
294.708
294.711
294.744
294.741
294.783
294.863
294.861
294.871
294.86
294.883
294.866
294.892
294.881
294.901
294.901
294.913
294.922
294.931
294.945
294.953
294.972
294.978
295.001
295.006
295.035
295.036
295.071
295.066
295.111
295.171
295.176
295.169
295.187
295.17
295.199
295.18
295.208
295.198
295.218
295.218
295.233
295.239
295.254
295.262
295.281
295.287
295.31
295.315
295.343
295.345
295.38
295.376
295.419
295.465
295.463
295.474
295.462
295.486
295.467
295.496
295.481
295.504
295.501
295.516
295.523
295.533
295.546
295.555
295.573
295.579
295.602
295.607
295.636
295.637
295.672
295.668
295.71
295.742
295.746
295.74
295.756
295.742
295.768
295.75
295.778
295.767
295.788
295.787
295.803
295.808
295.823
295.831
295.85
295.856
295.879
295.883
295.911
295.914
295.948
295.943
295.987
296.006
296.004
296.013
296.004
296.023
296.01
296.033
296.023
296.042
296.041
296.054
296.062
296.071
296.085
296.093
296.111
296.117
296.14
296.145
296.173
296.176
296.208
296.205
296.247
296.253
296.257
296.252
296.266
296.255
296.276
296.264
296.285
296.28
296.297
296.298
296.313
296.319
296.333
296.341
296.359
296.365
296.388
296.392
296.419
296.422
296.456
296.453
296.493
296.49
296.488
296.496
296.489
296.505
296.496
296.513
296.509
296.523
296.526
296.536
296.546
296.554
296.567
296.575
296.593
296.599
296.621
296.626
296.653
296.657
296.687
296.685
296.727
296.712
296.715
296.711
296.722
296.715
296.731
296.724
296.74
296.739
296.753
296.756
296.769
296.775
296.789
296.797
296.815
296.821
296.843
296.847
296.873
296.876
296.91
296.907
296.946
296.923
296.923
296.928
296.925
296.935
296.932
296.944
296.944
296.954
296.96
296.968
296.978
296.986
296.999
297.007
297.024
297.03
297.052
297.057
297.083
297.087
297.116
297.115
297.154
297.122
297.124
297.124
297.13
297.129
297.137
297.137
297.148
297.15
297.161
297.166
297.178
297.184
297.198
297.206
297.222
297.228
297.25
297.254
297.28
297.282
297.315
297.313
297.35
297.312
297.312
297.314
297.316
297.32
297.323
297.329
297.334
297.34
297.348
297.354
297.366
297.372
297.386
297.393
297.41
297.416
297.437
297.442
297.467
297.47
297.5
297.499
297.536
297.49
297.492
297.492
297.496
297.497
297.503
297.506
297.513
297.518
297.527
297.532
297.544
297.549
297.564
297.571
297.587
297.593
297.614
297.617
297.644
297.644
297.678
297.675
297.711
297.659
297.66
297.662
297.664
297.668
297.671
297.676
297.681
297.687
297.695
297.7
297.712
297.718
297.732
297.738
297.755
297.76
297.782
297.786
297.81
297.813
297.841
297.842
297.876
297.819
297.82
297.821
297.825
297.826
297.832
297.834
297.842
297.845
297.855
297.859
297.872
297.877
297.891
297.897
297.914
297.918
297.94
297.942
297.969
297.968
298.001
297.998
298.033
297.971
297.972
297.972
297.976
297.977
297.983
297.985
297.992
297.997
298.005
298.01
298.022
298.027
298.041
298.047
298.063
298.068
298.09
298.092
298.118
298.119
298.148
298.148
298.18
298.114
298.114
298.116
298.118
298.121
298.125
298.129
298.135
298.139
298.148
298.153
298.164
298.169
298.183
298.188
298.205
298.21
298.23
298.233
298.258
298.259
298.289
298.287
298.321
298.249
298.25
298.25
298.254
298.255
298.261
298.262
298.271
298.273
298.283
298.287
298.299
298.303
298.318
298.323
298.339
298.342
298.365
298.366
298.391
298.392
298.421
298.42
298.452
298.377
298.377
298.378
298.381
298.383
298.388
298.391
298.397
298.401
298.41
298.414
298.426
298.43
298.445
298.448
298.466
298.469
298.49
298.492
298.518
298.517
298.547
298.544
298.577
298.497
298.498
298.499
298.502
298.504
298.508
298.511
298.518
298.521
298.53
298.534
298.546
298.55
298.564
298.568
298.585
298.588
298.61
298.611
298.635
298.637
298.664
298.663
298.694
298.611
298.612
298.612
298.617
298.616
298.624
298.623
298.633
298.634
298.645
298.647
298.659
298.662
298.678
298.681
298.698
298.702
298.72
298.723
298.748
298.748
298.776
298.774
298.805
298.719
298.719
298.722
298.721
298.727
298.727
298.735
298.737
298.743
298.75
298.755
298.766
298.769
298.784
298.787
298.804
298.806
298.829
298.829
298.853
298.854
298.88
298.88
298.909
298.82
298.822
298.82
298.827
298.823
298.834
298.829
298.843
298.84
298.853
298.854
298.867
298.87
298.885
298.887
298.905
298.908
298.926
298.929
298.953
298.953
298.979
298.978
299.008
298.916
298.915
298.92
298.916
298.926
298.921
298.933
298.931
298.941
298.945
298.951
298.961
298.965
298.979
298.982
298.998
299.001
299.022
299.023
299.046
299.046
299.073
299.072
299.1
299.005
299.007
299.005
299.013
299.007
299.021
299.013
299.029
299.025
299.038
299.039
299.051
299.053
299.069
299.07
299.087
299.09
299.109
299.111
299.135
299.135
299.16
299.159
299.188
299.091
299.089
299.095
299.09
299.101
299.095
299.108
299.105
299.115
299.119
299.125
299.134
299.138
299.152
299.154
299.17
299.174
299.193
299.194
299.217
299.216
299.244
299.242
299.269
299.169
299.171
299.169
299.176
299.172
299.184
299.178
299.192
299.189
299.201
299.202
299.214
299.216
299.231
299.233
299.249
299.252
299.271
299.272
299.295
299.296
299.32
299.319
299.346
299.245
299.244
299.248
299.246
299.253
299.251
299.259
299.26
299.267
299.273
299.277
299.288
299.29
299.304
299.307
299.322
299.326
299.344
299.345
299.368
299.367
299.394
299.391
299.419
299.314
299.315
299.316
299.318
299.32
299.324
299.326
299.332
299.335
299.343
299.347
299.358
299.36
299.373
299.376
299.392
299.394
299.412
299.415
299.435
299.437
299.46