/*--------------------------------*- C++ -*----------------------------------*\
  =========                 |
  \\      /  F ield         | OpenFOAM: The Open Source CFD Toolbox
   \\    /   O peration     | Website:  https://openfoam.org
    \\  /    A nd           | Version:  10
     \\/     M anipulation  |
\*---------------------------------------------------------------------------*/
FoamFile
{
    format      ascii;
    class       volVectorField;
    location    "0.43";
    object      U;
}
// * * * * * * * * * * * * * * * * * * * * * * * * * * * * * * * * * * * * * //

dimensions      [0 1 -1 0 0 0 0];

internalField   nonuniform List<vector> 
4176
(
(497.488 -0.0140664 -6.69606e-09)
(497.474 0.0636891 1.97839e-09)
(497.449 0.00156982 -6.50413e-10)
(497.4 0.090383 -2.0921e-11)
(497.346 0.0511372 -1.80076e-10)
(497.271 0.0895292 -5.99492e-10)
(497.18 0.125926 -3.48631e-10)
(497.088 0.0604618 3.38143e-10)
(496.954 0.225245 7.27468e-10)
(496.849 0.00479273 7.0246e-10)
(496.672 0.34438 4.56504e-10)
(496.549 -0.0690559 3.3889e-10)
(496.339 0.469837 9.52254e-11)
(496.192 -0.139421 -2.73133e-10)
(495.956 0.567836 -4.1438e-10)
(495.773 -0.135539 -2.66504e-10)
(495.536 0.528562 -2.02587e-10)
(495.286 0.0237783 -1.19332e-11)
(495.073 0.334769 3.00743e-10)
(494.73 0.323088 1.65002e-10)
(494.575 -0.0169369 -1.38689e-10)
(494.097 0.771861 -1.48001e-10)
(494.068 -0.516389 1.46595e-10)
(493.444 1.44222 2.7775e-10)
(497.47 0.00500333 -6.69509e-09)
(497.456 0.11453 1.97862e-09)
(497.43 0.0766322 -6.50574e-10)
(497.379 0.203303 -2.16937e-11)
(497.325 0.186405 -1.80059e-10)
(497.247 0.264247 -5.99064e-10)
(497.156 0.321832 -3.492e-10)
(497.059 0.295551 3.38268e-10)
(496.924 0.482195 7.281e-10)
(496.814 0.297921 7.02549e-10)
(496.636 0.662882 4.55973e-10)
(496.508 0.278767 3.38758e-10)
(496.293 0.850403 9.36383e-11)
(496.142 0.25846 -2.72977e-10)
(495.901 1.01252 -4.14147e-10)
(495.713 0.302139 -2.66031e-10)
(495.47 1.04233 -2.03761e-10)
(495.215 0.510826 -1.20846e-11)
(494.996 0.91432 2.99694e-10)
(494.646 0.855235 1.64587e-10)
(494.491 0.628515 -1.38617e-10)
(493.992 1.33098 -1.50329e-10)
(493.957 0.125123 1.47357e-10)
(493.269 1.99245 2.77402e-10)
(497.413 0.0233567 -6.69875e-09)
(497.399 0.161189 1.97779e-09)
(497.375 0.147819 -6.52653e-10)
(497.324 0.307652 -2.06992e-11)
(497.272 0.314014 -1.80277e-10)
(497.195 0.426439 -5.99758e-10)
(497.108 0.505952 -3.46386e-10)
(497.011 0.514782 3.40168e-10)
(496.881 0.722913 7.30076e-10)
(496.772 0.572584 7.0271e-10)
(496.599 0.960654 4.54934e-10)
(496.473 0.606165 3.37848e-10)
(496.263 1.20618 9.52226e-11)
(496.116 0.634037 -2.72823e-10)
(495.877 1.42872 -4.14329e-10)
(495.697 0.7139 -2.6477e-10)
(495.454 1.52285 -2.06491e-10)
(495.209 0.96608 -1.37344e-11)
(494.993 1.45713 3.00306e-10)
(494.653 1.34386 1.64167e-10)
(494.506 1.24776 -1.39548e-10)
(494.016 1.88223 -1.47642e-10)
(493.982 0.838741 1.4769e-10)
(493.271 2.60856 2.78364e-10)
(497.309 0.0420941 -6.69732e-09)
(497.295 0.208697 1.98145e-09)
(497.271 0.220323 -6.53696e-10)
(497.22 0.413975 -1.76277e-11)
(497.168 0.443987 -1.81071e-10)
(497.091 0.591798 -6.04009e-10)
(497.004 0.693509 -3.46182e-10)
(496.907 0.738414 3.3778e-10)
(496.777 0.968124 7.23368e-10)
(496.668 0.852898 7.06099e-10)
(496.494 1.26398 4.55771e-10)
(496.37 0.94052 3.36047e-10)
(496.158 1.56884 9.67147e-11)
(496.013 1.01823 -2.74321e-10)
(495.77 1.85359 -4.21428e-10)
(495.593 1.13539 -2.65966e-10)
(495.346 2.0173 -2.04076e-10)
(495.097 1.42661 -1.41277e-11)
(494.891 2.0093 3.02582e-10)
(494.54 1.84069 1.63558e-10)
(494.398 1.85843 -1.42339e-10)
(493.915 2.42014 -1.48427e-10)
(493.886 1.52566 1.45973e-10)
(493.205 3.20528 2.68923e-10)
(497.157 0.0604275 -6.69987e-09)
(497.143 0.255218 1.98785e-09)
(497.119 0.291247 -6.49997e-10)
(497.069 0.518162 -1.75934e-11)
(497.018 0.571125 -1.77841e-10)
(496.941 0.753968 -5.98516e-10)
(496.856 0.876979 -3.48001e-10)
(496.76 0.957965 3.40085e-10)
(496.631 1.208 7.28968e-10)
(496.524 1.12839 7.04019e-10)
(496.351 1.56077 4.55896e-10)
(496.229 1.26932 3.38825e-10)
(496.018 1.9241 9.32476e-11)
(495.876 1.39598 -2.75287e-10)
(495.633 2.27129 -4.19497e-10)
(495.461 1.55008 -2.68455e-10)
(495.211 2.51261 -2.05184e-10)
(494.966 1.86976 -1.33745e-11)
(494.764 2.55439 2.97088e-10)
(494.411 2.33854 1.69341e-10)
(494.271 2.45297 -1.34604e-10)
(493.793 2.94602 -1.45447e-10)
(493.763 2.16824 1.49614e-10)
(493.103 3.76321 2.79783e-10)
(496.957 0.0787518 -6.71314e-09)
(496.942 0.301443 1.98586e-09)
(496.919 0.362014 -6.48647e-10)
(496.869 0.621761 -2.24654e-11)
(496.819 0.697957 -1.89086e-10)
(496.742 0.915283 -6.03482e-10)
(496.658 1.06002 -3.45526e-10)
(496.562 1.17647 3.36425e-10)
(496.435 1.4473 7.29729e-10)
(496.327 1.40279 7.09428e-10)
(496.157 1.85668 4.56127e-10)
(496.035 1.59729 3.33038e-10)
(495.825 2.27775 9.04207e-11)
(495.685 1.77362 -2.72896e-10)
(495.443 2.68569 -4.22555e-10)
(495.274 1.96903 -2.65854e-10)
(495.018 3.00321 -1.94669e-10)
(494.787 2.31263 -1.05323e-11)
(494.571 3.10398 3.0689e-10)
(494.229 2.83529 1.7148e-10)
(494.084 3.04926 -1.38843e-10)
(493.611 3.47408 -1.56143e-10)
(493.576 2.81513 1.4643e-10)
(492.913 4.3202 2.80116e-10)
(496.708 0.0968977 -6.71219e-09)
(496.694 0.347002 1.98296e-09)
(496.671 0.431988 -6.64864e-10)
(496.621 0.723919 -2.24558e-11)
(496.572 0.823331 -1.74496e-10)
(496.495 1.07438 -6.02636e-10)
(496.412 1.24095 -3.56775e-10)
(496.316 1.39203 3.4129e-10)
(496.192 1.68384 7.36546e-10)
(496.084 1.6737 7.04779e-10)
(495.916 2.14914 4.53301e-10)
(495.795 1.92146 3.4391e-10)
(495.588 2.627 1.0608e-10)
(495.448 2.14763 -2.71061e-10)
(495.208 3.09402 -4.18116e-10)
(495.043 2.38632 -2.62535e-10)
(494.785 3.4828 -2.0414e-10)
(494.565 2.75729 -1.61837e-11)
(494.337 3.65142 3.01361e-10)
(494.01 3.32016 1.68998e-10)
(493.859 3.64442 -1.40276e-10)
(493.392 4.00167 -1.56212e-10)
(493.353 3.47176 1.48813e-10)
(492.692 4.88251 2.85277e-10)
(496.411 0.114906 -6.72875e-09)
(496.396 0.392093 1.99356e-09)
(496.374 0.501338 -6.44682e-10)
(496.324 0.825056 -1.90628e-11)
(496.276 0.947536 -1.87483e-10)
(496.199 1.23188 -5.99788e-10)
(496.117 1.42014 -3.40107e-10)
(496.023 1.60544 3.40424e-10)
(495.899 1.91806 7.18604e-10)
(495.793 1.942 7.0237e-10)
(495.626 2.43867 4.64115e-10)
(495.506 2.24275 3.38144e-10)
(495.301 2.97266 8.0348e-11)
(495.164 2.51866 -2.79812e-10)
(494.924 3.49784 -4.11119e-10)
(494.763 2.80112 -2.70593e-10)
(494.504 3.95501 -2.00519e-10)
(494.292 3.19956 3.76901e-13)
(494.059 4.19418 3.05193e-10)
(493.742 3.80062 1.5428e-10)
(493.586 4.23769 -1.40496e-10)
(493.127 4.5244 -1.4007e-10)
(493.084 4.1231 1.46386e-10)
(492.431 5.43755 2.62173e-10)
(496.065 0.132732 -6.74183e-09)
(496.051 0.436629 1.98052e-09)
(496.029 0.569902 -6.66863e-10)
(495.979 0.924964 -3.13525e-11)
(495.931 1.07028 -1.87767e-10)
(495.856 1.38744 -6.08241e-10)
(495.775 1.59715 -3.55268e-10)
(495.681 1.8162 3.37602e-10)
(495.559 2.14936 7.25593e-10)
(495.454 2.20699 6.99459e-10)
(495.289 2.72452 4.52268e-10)
(495.171 2.56026 3.36447e-10)
(494.967 3.31384 8.84981e-11)
(494.832 2.88569 -2.78677e-10)
(494.593 3.89623 -4.17899e-10)
(494.436 3.21208 -2.67497e-10)
(494.177 4.41875 -2.04814e-10)
(493.973 3.63889 -1.0669e-11)
(493.734 4.73008 3.01738e-10)
(493.43 4.27447 1.61126e-10)
(493.267 4.82836 -1.42509e-10)
(492.818 5.04234 -1.51119e-10)
(492.771 4.77007 1.48256e-10)
(492.127 5.9859 2.78669e-10)
(495.671 0.150374 -6.72755e-09)
(495.657 0.480618 2.00963e-09)
(495.635 0.63768 -6.48348e-10)
(495.586 1.02366 -8.30631e-12)
(495.539 1.19157 -1.69421e-10)
(495.464 1.5411 -5.91391e-10)
(495.384 1.77198 -3.38139e-10)
(495.29 2.02435 3.55437e-10)
(495.17 2.3777 7.44506e-10)
(495.066 2.46867 7.16383e-10)
(494.903 3.0066 4.70568e-10)
(494.787 2.87387 3.52151e-10)
(494.585 3.65043 1.06808e-10)
(494.453 3.24848 -2.66189e-10)
(494.215 4.28909 -4.04335e-10)
(494.062 3.61891 -2.5678e-10)
(493.803 4.87437 -1.90992e-10)
(493.607 4.0745 3.4426e-13)
(493.364 5.25849 3.15617e-10)
(493.071 4.74231 1.72666e-10)
(492.903 5.41413 -1.30432e-10)
(492.464 5.5534 -1.3893e-10)
(492.413 5.41098 1.57844e-10)
(491.779 6.5259 2.8799e-10)
(495.228 0.167805 -6.75054e-09)
(495.214 0.524007 1.99911e-09)
(495.193 0.704573 -6.58443e-10)
(495.144 1.12104 -1.59079e-11)
(495.097 1.31124 -1.76484e-10)
(495.023 1.6927 -5.99502e-10)
(494.944 1.94443 -3.42912e-10)
(494.852 2.22965 3.54243e-10)
(494.733 2.60282 7.43366e-10)
(494.631 2.72674 7.14948e-10)
(494.47 3.28457 4.70896e-10)
(494.355 3.18316 3.54497e-10)
(494.155 3.98197 1.09173e-10)
(494.026 3.60644 -2.6469e-10)
(493.79 4.67592 -3.99798e-10)
(493.641 4.02088 -2.50758e-10)
(493.382 5.32174 -1.83429e-10)
(493.194 4.50582 6.58751e-12)
(492.947 5.77859 3.2607e-10)
(492.666 5.20354 1.83367e-10)
(492.492 5.99342 -1.42187e-10)
(492.065 6.05658 -1.72793e-10)
(492.01 6.04538 1.2879e-10)
(491.386 7.05713 2.57051e-10)
(494.737 0.185004 -6.76139e-09)
(494.723 0.566752 2.00287e-09)
(494.702 0.770505 -6.6223e-10)
(494.653 1.21701 -2.14682e-11)
(494.608 1.42917 -1.8191e-10)
(494.534 1.84211 -6.05717e-10)
(494.457 2.11436 -3.50766e-10)
(494.366 2.43199 3.44981e-10)
(494.248 2.82458 7.34182e-10)
(494.147 2.98102 7.05824e-10)
(493.988 3.55822 4.6036e-10)
(493.875 3.48786 3.45102e-10)
(493.678 4.30817 9.78953e-11)
(493.551 3.95918 -2.74665e-10)
(493.318 5.05635 -4.1456e-10)
(493.172 4.41739 -2.64442e-10)
(492.915 5.7609 -2.00488e-10)
(492.733 4.93243 -6.72827e-12)
(492.483 6.28965 3.0762e-10)
(492.214 5.65788 1.64841e-10)
(492.035 6.56474 -1.37338e-10)
(491.62 6.55059 -1.43444e-10)
(491.561 6.67245 1.54946e-10)
(490.949 7.57901 2.83755e-10)
(494.197 0.201942 -6.77313e-09)
(494.183 0.608796 2.00364e-09)
(494.162 0.835377 -6.6907e-10)
(494.114 1.31143 -2.75179e-11)
(494.07 1.54521 -1.90605e-10)
(493.997 1.98915 -6.18353e-10)
(493.921 2.28155 -3.65045e-10)
(493.831 2.63115 3.29155e-10)
(493.715 3.04273 7.18169e-10)
(493.616 3.2313 6.87596e-10)
(493.459 3.82731 4.34178e-10)
(493.348 3.7877 3.1882e-10)
(493.152 4.62872 6.45904e-11)
(493.029 4.30625 -2.80548e-10)
(492.797 5.42993 -3.90864e-10)
(492.657 4.80776 -2.47073e-10)
(492.4 6.19172 -1.82287e-10)
(492.225 5.35401 5.76646e-12)
(491.973 6.79111 3.20186e-10)
(491.715 6.10449 1.75094e-10)
(491.532 7.12725 -1.29286e-10)
(491.13 7.03464 -1.38219e-10)
(491.068 7.29086 1.60498e-10)
(490.468 8.09099 2.87123e-10)
(493.608 0.218596 -6.77703e-09)
(493.594 0.650085 2.0293e-09)
(493.574 0.899096 -6.70611e-10)
(493.526 1.40419 -4.71713e-11)
(493.483 1.65919 -1.94022e-10)
(493.411 2.13364 -6.0988e-10)
(493.336 2.4458 -3.43791e-10)
(493.247 2.82689 3.67443e-10)
(493.134 3.25703 7.3859e-10)
(493.036 3.4773 6.88633e-10)
(492.881 4.09157 4.47337e-10)
(492.772 4.08239 3.42113e-10)
(492.579 4.94333 1.06487e-10)
(492.459 4.64731 -2.61728e-10)
(492.23 5.7963 -4.24237e-10)
(492.093 5.19146 -2.87906e-10)
(491.838 6.61379 -2.1858e-10)
(491.67 5.76996 -1.27695e-11)
(491.416 7.28245 3.14485e-10)
(491.17 6.54284 1.80705e-10)
(490.983 7.68039 -1.41752e-10)
(490.594 7.50777 -1.67009e-10)
(490.529 7.89919 1.4391e-10)
(489.942 8.59253 2.84671e-10)
(492.97 0.234941 -6.80416e-09)
(492.956 0.69057 1.99215e-09)
(492.937 0.961576 -6.62728e-10)
(492.89 1.49516 9.32042e-12)
(492.847 1.77094 -1.68788e-10)
(492.776 2.27537 -6.07552e-10)
(492.702 2.60684 -3.63707e-10)
(492.615 3.01895 3.22569e-10)
(492.503 3.46717 7.37029e-10)
(492.407 3.71872 7.31343e-10)
(492.255 4.3507 4.68306e-10)
(492.149 4.37162 3.36201e-10)
(491.958 5.2517 7.16754e-11)
(491.841 4.98201 -2.8374e-10)
(491.614 6.15514 -4.00383e-10)
(491.482 5.56804 -2.58733e-10)
(491.23 7.02666 -2.08245e-10)
(491.068 6.17954 -2.40757e-11)
(490.813 7.76309 2.73883e-10)
(490.579 6.97263 1.5151e-10)
(490.387 8.22376 -1.28911e-10)
(490.011 7.96914 -1.4269e-10)
(489.944 8.49619 1.44352e-10)
(489.37 9.08309 2.59661e-10)
(492.283 0.250957 -6.80205e-09)
(492.269 0.730205 2.04486e-09)
(492.25 1.02274 -6.7081e-10)
(492.203 1.58424 -5.05424e-11)
(492.162 1.88031 -1.96684e-10)
(492.092 2.41415 -6.08702e-10)
(492.02 2.76443 -3.35624e-10)
(491.934 3.20702 3.77028e-10)
(491.825 3.67283 7.4244e-10)
(491.731 3.95519 6.91288e-10)
(491.58 4.60431 4.54289e-10)
(491.477 4.655 3.49926e-10)
(491.289 5.55349 1.1569e-10)
(491.175 5.31 -2.87709e-10)
(490.951 6.50611 -4.57135e-10)
(490.824 5.93706 -2.84067e-10)
(490.573 7.42996 -2.08489e-10)
(490.419 6.58194 9.48215e-13)
(490.164 8.23225 3.29958e-10)
(489.941 7.39362 1.57924e-10)
(489.745 8.7567 -1.68015e-10)
(489.383 8.41844 -1.55845e-10)
(489.313 9.08128 1.58032e-10)
(488.753 9.56198 2.97542e-10)
(491.546 0.266622 -6.83068e-09)
(491.533 0.768944 2.01087e-09)
(491.514 1.08249 -6.90247e-10)
(491.468 1.67131 -5.45115e-11)
(491.427 1.98714 -1.86532e-10)
(491.358 2.54978 -5.82899e-10)
(491.288 2.91832 -3.31895e-10)
(491.204 3.39081 3.5977e-10)
(491.097 3.87364 7.40677e-10)
(491.005 4.18633 7.0349e-10)
(490.858 4.85201 4.4336e-10)
(490.757 4.9321 3.18289e-10)
(490.572 5.84827 9.58485e-11)
(490.462 5.63084 -2.57581e-10)
(490.241 6.84888 -4.06867e-10)
(490.118 6.29812 -2.60675e-10)
(489.87 7.82345 -2.04786e-10)
(489.722 6.97632 -1.53293e-11)
(489.467 8.68911 2.87923e-10)
(489.256 7.80545 1.34673e-10)
(489.057 9.27767 -1.79776e-10)
(488.71 8.85633 -1.52559e-10)
(488.635 9.65492 1.76286e-10)
(488.091 10.0279 2.94648e-10)
(490.76 0.281912 -6.83785e-09)
(490.746 0.806735 2.03917e-09)
(490.728 1.14077 -6.57853e-10)
(490.683 1.75624 -5.47406e-14)
(490.643 2.09126 -1.6371e-10)
(490.576 2.68206 -5.88187e-10)
(490.507 3.06826 -3.24146e-10)
(490.425 3.57004 3.85217e-10)
(490.32 4.06928 7.82795e-10)
(490.23 4.41174 7.16522e-10)
(490.086 5.09333 4.27645e-10)
(489.988 5.20243 3.14791e-10)
(489.807 6.13557 6.2618e-11)
(489.7 5.94404 -3.09877e-10)
(489.482 7.18301 -4.49396e-10)
(489.364 6.65081 -2.85921e-10)
(489.119 8.20688 -2.21766e-10)
(488.978 7.36193 -1.86286e-11)
(488.724 9.13301 3.01238e-10)
(488.524 8.20785 1.62982e-10)
(488.322 9.78625 -1.36397e-10)
(487.99 9.28237 -1.38187e-10)
(487.911 10.2163 1.65497e-10)
(487.382 10.4804 2.99073e-10)
(489.924 0.296796 -6.86061e-09)
(489.91 0.843512 2.03049e-09)
(489.893 1.19745 -6.79941e-10)
(489.848 1.8389 -2.64618e-11)
(489.81 2.1925 -1.9698e-10)
(489.743 2.81079 -6.32517e-10)
(489.677 3.21401 -3.70104e-10)
(489.596 3.74441 3.36517e-10)
(489.494 4.25939 7.25936e-10)
(489.407 4.63103 6.93439e-10)
(489.265 5.32785 4.41008e-10)
(489.171 5.4655 3.19165e-10)
(488.993 6.41486 5.80156e-11)
(488.89 6.24903 -3.18675e-10)
(488.676 7.50796 -4.6793e-10)
(488.563 6.99456 -3.08875e-10)
(488.321 8.57979 -2.09078e-10)
(488.186 7.73827 2.2426e-11)
(487.934 9.5635 3.41395e-10)
(487.745 8.60039 1.89205e-10)
(487.54 10.2819 -1.15772e-10)
(487.223 9.69622 -1.26906e-10)
(487.14 10.7647 1.74084e-10)
(486.628 10.9189 3.03707e-10)
(489.037 0.311241 -6.89367e-09)
(489.024 0.879197 2.04636e-09)
(489.007 1.25241 -6.52414e-10)
(488.963 1.91913 -2.16986e-11)
(488.926 2.29066 -1.71715e-10)
(488.861 2.93572 -5.8435e-10)
(488.797 3.35529 -3.48518e-10)
(488.718 3.91364 3.3377e-10)
(488.618 4.44366 7.45744e-10)
(488.534 4.84384 7.33654e-10)
(488.395 5.55516 4.55121e-10)
(488.305 5.72084 3.49027e-10)
(488.13 6.68563 1.07662e-10)
(488.032 6.54524 -2.99311e-10)
(487.821 7.82317 -4.23362e-10)
(487.713 7.32876 -2.49314e-10)
(487.475 8.94166 -2.14029e-10)
(487.347 8.10477 -3.98205e-11)
(487.097 9.9802 2.92095e-10)
(486.919 8.98266 1.62171e-10)
(486.712 10.7642 -1.69337e-10)
(486.41 10.0976 -1.54933e-10)
(486.323 11.2997 1.62077e-10)
(485.828 11.3431 2.6752e-10)
(488.1 0.325208 -6.89137e-09)
(488.087 0.913702 2.063e-09)
(488.071 1.30551 -6.54541e-10)
(488.028 1.99674 1.26545e-11)
(487.992 2.38551 -1.54031e-10)
(487.929 3.0566 -6.23578e-10)
(487.866 3.49183 -3.94618e-10)
(487.79 4.07742 3.26226e-10)
(487.693 4.62175 7.29381e-10)
(487.611 5.04983 7.03735e-10)
(487.476 5.77486 4.55808e-10)
(487.389 5.96802 3.45045e-10)
(487.218 6.94739 9.80684e-11)
(487.124 6.83209 -2.74695e-10)
(486.918 8.12805 -4.0546e-10)
(486.816 7.65272 -2.45327e-10)
(486.581 9.29188 -1.75958e-10)
(486.46 8.46074 -1.50939e-11)
(486.212 10.3827 2.6431e-10)
(486.046 9.35428 1.29741e-10)
(485.837 11.2324 -1.69888e-10)
(485.551 10.4861 -1.67606e-10)
(485.459 11.8206 1.36042e-10)
(484.981 11.7525 2.76798e-10)
(487.113 0.338655 -6.92947e-09)
(487.1 0.946935 2.02098e-09)
(487.084 1.35661 -6.79923e-10)
(487.042 2.07153 1.29032e-11)
(487.008 2.47681 -1.78026e-10)
(486.946 3.17317 -6.2521e-10)
(486.886 3.62332 -3.71201e-10)
(486.812 4.23544 3.71343e-10)
(486.718 4.79333 7.94544e-10)
(486.639 5.24864 7.43137e-10)
(486.508 5.98658 4.71199e-10)
(486.424 6.20663 3.31772e-10)
(486.257 7.1997 5.35319e-11)
(486.168 7.10908 -2.98268e-10)
(485.966 8.42203 -4.11499e-10)
(485.869 7.96578 -2.6744e-10)
(485.638 9.62982 -2.21111e-10)
(485.525 8.80536 -3.64331e-11)
(485.28 10.7707 3.09897e-10)
(485.125 9.71489 1.85241e-10)
(484.914 11.6857 -1.36417e-10)
(484.644 10.8614 -1.59195e-10)
(484.548 12.3271 1.22661e-10)
(484.089 12.1467 2.82012e-10)
(486.075 0.351545 -6.95122e-09)
(486.062 0.978809 2.02776e-09)
(486.047 1.40556 -6.8226e-10)
(486.006 2.1433 1.84551e-11)
(485.973 2.56432 -1.68802e-10)
(485.913 3.28515 -6.21519e-10)
(485.855 3.74946 -3.71557e-10)
(485.784 4.38737 3.23039e-10)
(485.692 4.95805 7.46984e-10)
(485.617 5.43993 7.49858e-10)
(485.489 6.18996 4.82162e-10)
(485.409 6.4363 3.41888e-10)
(485.247 7.44216 6.35302e-11)
(485.162 7.37577 -2.90157e-10)
(484.965 8.70463 -4.02214e-10)
(484.874 8.26735 -2.63117e-10)
(484.648 9.95484 -2.16252e-10)
(484.542 9.13779 -2.7297e-11)
(484.301 11.1439 3.21052e-10)
(484.156 10.0641 1.94366e-10)
(483.944 12.123 -1.2674e-10)
(483.69 11.2228 -1.50482e-10)
(483.59 12.8183 1.37861e-10)
(483.15 12.5254 2.55326e-10)
(484.985 0.363848 -6.97987e-09)
(484.973 1.00925 2.07492e-09)
(484.958 1.45225 -6.59279e-10)
(484.919 2.21191 -2.51172e-11)
(484.888 2.64782 -2.2526e-10)
(484.829 3.39226 -6.39297e-10)
(484.774 3.86993 -3.46232e-10)
(484.705 4.53286 3.40565e-10)
(484.617 5.11553 7.54558e-10)
(484.545 5.6233 7.41623e-10)
(484.421 6.3846 4.56877e-10)
(484.345 6.65666 3.57382e-10)
(484.187 7.67438 1.21626e-10)
(484.107 7.63175 -2.96233e-10)
(483.914 8.97543 -4.72703e-10)
(483.83 8.55693 -2.87233e-10)
(483.608 10.2664 -2.00449e-10)
(483.51 9.4573 -2.24328e-11)
(483.273 11.5016 3.16559e-10)
(483.139 10.4013 1.80838e-10)
(482.927 12.5435 -1.53521e-10)
(482.689 11.5697 -1.36728e-10)
(482.586 13.2935 1.89332e-10)
(482.164 12.888 2.89351e-10)
(483.845 0.37554 -6.9708e-09)
(483.833 1.03822 2.10573e-09)
(483.819 1.49658 -6.46093e-10)
(483.78 2.27721 -1.38825e-11)
(483.751 2.72714 -2.20784e-10)
(483.695 3.49429 -6.4136e-10)
(483.642 3.98446 -3.51872e-10)
(483.575 4.6716 3.85711e-10)
(483.491 5.26543 7.94864e-10)
(483.422 5.79838 7.22712e-10)
(483.302 6.5701 4.30532e-10)
(483.231 6.86728 3.26992e-10)
(483.077 7.89595 8.31597e-11)
(483.003 7.87663 -2.87471e-10)
(482.815 9.23403 -4.13262e-10)
(482.737 8.8341 -2.38215e-10)
(482.52 10.5641 -2.11635e-10)
(482.43 9.76337 -4.15172e-11)
(482.196 11.8435 2.89787e-10)
(482.073 10.7257 1.52517e-10)
(481.861 12.9465 -1.37742e-10)
(481.64 11.901 -1.27236e-10)
(481.534 13.7512 1.95425e-10)
(481.132 13.2339 2.90143e-10)
(482.654 0.386607 -6.98839e-09)
(482.641 1.06566 2.08242e-09)
(482.629 1.5385 -7.07774e-10)
(482.591 2.33911 -2.0565e-12)
(482.563 2.80215 -1.94611e-10)
(482.509 3.59106 -6.4902e-10)
(482.459 4.09281 -3.35797e-10)
(482.395 4.8033 3.65621e-10)
(482.314 5.40739 7.36661e-10)
(482.249 5.96479 7.41176e-10)
(482.133 6.74605 4.70573e-10)
(482.066 7.06776 3.27598e-10)
(481.917 8.10645 1.05479e-10)
(481.848 8.10999 -2.99138e-10)
(481.665 9.48002 -4.65949e-10)
(481.594 9.09845 -2.69062e-10)
(481.382 10.8475 -2.23136e-10)
(481.3 10.0555 -3.13596e-11)
(481.071 12.169 3.19552e-10)
(480.958 11.0368 1.47776e-10)
(480.747 13.3314 -1.78052e-10)
(480.543 12.2161 -1.47209e-10)
(480.434 14.1903 1.36143e-10)
(480.052 13.5625 2.55697e-10)
(481.411 0.397037 -7.06896e-09)
(481.399 1.09156 2.06471e-09)
(481.387 1.57796 -7.1039e-10)
(481.351 2.39754 -3.16656e-11)
(481.325 2.87274 -1.95128e-10)
(481.272 3.68244 -6.27835e-10)
(481.225 4.1948 -3.47409e-10)
(481.164 4.92773 3.84993e-10)
(481.086 5.54112 7.85086e-10)
(481.025 6.12219 7.54622e-10)
(480.914 6.91205 5.06262e-10)
(480.851 7.25767 3.33791e-10)
(480.707 8.30542 7.61694e-11)
(480.644 8.33141 -3.0596e-10)
(480.466 9.71301 -4.44092e-10)
(480.401 9.34959 -2.74629e-10)
(480.195 11.1163 -2.05865e-10)
(480.121 10.3333 4.97701e-12)
(479.896 12.4777 3.32504e-10)
(479.794 11.3338 1.78352e-10)
(479.585 13.6974 -1.78809e-10)
(479.397 12.5146 -1.72838e-10)
(479.286 14.6101 1.37069e-10)
(478.924 13.8735 2.72152e-10)
(480.117 0.40682 -7.05174e-09)
(480.105 1.11589 2.12501e-09)
(480.094 1.61492 -6.56289e-10)
(480.059 2.45244 -1.91966e-11)
(480.035 2.93884 -2.30131e-10)
(479.984 3.76831 -6.59886e-10)
(479.939 4.29031 -3.65094e-10)
(479.882 5.04472 3.81131e-10)
(479.808 5.66641 7.87892e-10)
(479.75 6.27029 7.6838e-10)
(479.643 7.06775 4.72e-10)
(479.586 7.43661 3.11618e-10)
(479.446 8.49244 6.3942e-11)
(479.389 8.54042 -3.129e-10)
(479.217 9.93253 -4.39655e-10)
(479.158 9.58708 -2.5877e-10)
(478.958 11.3701 -1.7613e-10)
(478.892 10.5964 4.24632e-11)
(478.672 12.7696 3.21919e-10)
(478.581 11.6157 1.26359e-10)
(478.374 14.0434 -1.67403e-10)
(478.203 12.7969 -1.52093e-10)
(478.089 15.0117 1.72933e-10)
(477.748 14.1674 3.20922e-10)
(478.772 0.415943 -7.0634e-09)
(478.76 1.13862 2.10035e-09)
(478.75 1.64934 -7.3475e-10)
(478.716 2.50377 -2.55708e-11)
(478.693 3.00039 -1.60296e-10)
(478.645 3.84861 -6.24899e-10)
(478.603 4.37923 -3.77491e-10)
(478.548 5.15416 3.83358e-10)
(478.478 5.78309 7.54896e-10)
(478.424 6.4089 6.9332e-10)
(478.322 7.21289 4.7306e-10)
(478.269 7.60425 3.82208e-10)
(478.135 8.6671 8.83329e-11)
(478.084 8.73656 -3.25757e-10)
(477.917 10.1381 -4.35027e-10)
(477.866 9.81042 -2.36763e-10)
(477.67 11.6085 -2.01134e-10)
(477.613 10.8443 -2.26189e-11)
(477.399 13.0443 3.35943e-10)
(477.318 11.882 1.53312e-10)
(477.115 14.3683 -1.86766e-10)
(476.96 13.0632 -1.57695e-10)
(476.843 15.3936 1.85699e-10)
(476.523 14.4419 2.94709e-10)
(477.375 0.424389 -7.14906e-09)
(477.363 1.15971 2.08134e-09)
(477.354 1.68116 -7.2546e-10)
(477.321 2.55144 -3.84272e-11)
(477.301 3.05729 -2.09006e-10)
(477.255 3.92324 -6.52195e-10)
(477.215 4.46147 -3.65982e-10)
(477.163 5.25593 3.73165e-10)
(477.097 5.89106 7.7028e-10)
(477.047 6.53789 7.31989e-10)
(476.949 7.34729 4.80339e-10)
(476.902 7.76038 3.65131e-10)
(476.773 8.82908 1.00877e-10)
(476.727 8.91946 -2.92184e-10)
(476.567 10.3293 -4.30106e-10)
(476.522 10.0191 -2.59915e-10)
(476.333 11.831 -1.94855e-10)
(476.284 11.0765 1.13884e-11)
(476.076 13.3013 3.439e-10)
(476.005 12.1322 1.8665e-10)
(475.805 14.6716 -1.17714e-10)
(475.668 13.3119 -1.79969e-10)
(475.549 15.7554 1.24442e-10)
(475.25 14.6983 2.67739e-10)
(475.926 0.432143 -7.10009e-09)
(475.915 1.17913 2.15304e-09)
(475.907 1.71033 -6.86049e-10)
(475.875 2.59538 1.34814e-12)
(475.856 3.10947 -1.78983e-10)
(475.812 3.99212 -6.28558e-10)
(475.776 4.53694 -3.47839e-10)
(475.727 5.34998 3.88173e-10)
(475.664 5.99023 7.79764e-10)
(475.619 6.65719 7.34303e-10)
(475.525 7.47085 4.7512e-10)
(475.483 7.90486 3.47558e-10)
(475.359 8.97817 7.51129e-11)
(475.32 9.08885 -3.17656e-10)
(475.165 10.5057 -4.70322e-10)
(475.128 10.2127 -3.07235e-10)
(474.945 12.037 -2.47381e-10)
(474.905 11.2925 2.33e-11)
(474.702 13.5403 3.4581e-10)
(474.642 12.3658 1.75919e-10)
(474.446 14.9529 -1.30929e-10)
(474.325 13.5429 -1.41113e-10)
(474.204 16.0963 1.63321e-10)
(473.927 14.9357 2.97096e-10)
(474.426 0.439189 -7.14434e-09)
(474.415 1.19685 2.13347e-09)
(474.408 1.7368 -7.26327e-10)
(474.377 2.63553 1.11854e-12)
(474.361 3.15685 -1.92102e-10)
(474.319 4.05516 -6.57334e-10)
(474.285 4.60556 -3.35687e-10)
(474.24 5.4362 3.84144e-10)
(474.18 6.08053 7.6363e-10)
(474.139 6.76672 7.62281e-10)
(474.05 7.58349 4.82768e-10)
(474.012 8.03764 3.42064e-10)
(473.894 9.11428 1.13964e-10)
(473.861 9.2446 -3.00711e-10)
(473.712 10.667 -4.65559e-10)
(473.683 10.3909 -2.59829e-10)
(473.506 12.2261 -2.14815e-10)
(473.474 11.4918 -2.31499e-11)
(473.278 13.7608 3.47463e-10)
(473.229 12.5821 1.64683e-10)
(473.037 15.2125 -1.71373e-10)
(472.932 13.7569 -1.29771e-10)
(472.809 16.4148 1.64561e-10)
(472.555 15.1526 2.75181e-10)
(472.875 0.445519 -7.22332e-09)
(472.864 1.21285 2.14201e-09)
(472.857 1.76053 -6.91377e-10)
(472.828 2.67183 -3.96695e-11)
(472.813 3.19937 -1.86482e-10)
(472.774 4.11228 -6.12457e-10)
(472.743 4.66724 -3.74947e-10)
(472.7 5.51451 3.93091e-10)
(472.645 6.16186 8.12492e-10)
(472.607 6.86643 7.25843e-10)
(472.523 7.68518 4.90474e-10)
(472.491 8.1587 3.93824e-10)
(472.377 9.23737 8.07526e-11)
(472.35 9.38669 -2.95969e-10)
(472.208 10.8132 -4.13533e-10)
(472.186 10.5534 -2.90812e-10)
(472.015 12.3979 -2.08624e-10)
(471.993 11.6737 2.50644e-11)
(471.803 13.9621 3.15144e-10)
(471.764 12.7804 1.70868e-10)
(471.578 15.4506 -1.17991e-10)
(471.488 13.9541 -1.59176e-10)
(471.364 16.71 1.72149e-10)
(471.132 15.3488 3.23276e-10)
(471.271 0.451133 -7.21433e-09)
(471.261 1.22712 2.18822e-09)
(471.255 1.78154 -6.6216e-10)
(471.227 2.70429 -4.60093e-12)
(471.214 3.23702 -2.25943e-10)
(471.177 4.16346 -6.55892e-10)
(471.148 4.72193 -3.42755e-10)
(471.109 5.58484 4.22364e-10)
(471.057 6.23414 8.42447e-10)
(471.024 6.95623 7.61508e-10)
(470.944 7.77581 4.51421e-10)
(470.917 8.26798 3.49545e-10)
(470.809 9.34742 1.0762e-10)
(470.788 9.51514 -2.71962e-10)
(470.651 10.9442 -3.9461e-10)
(470.637 10.7004 -2.72782e-10)
(470.473 12.5524 -2.5755e-10)
(470.459 11.838 -1.72467e-11)
(470.276 14.1438 3.30557e-10)
(470.248 12.9597 1.83397e-10)
(470.068 15.6667 -9.78856e-11)
(469.992 14.1346 -1.47941e-10)
(469.867 16.9816 1.18361e-10)
(469.659 15.5238 2.76549e-10)
(469.616 0.456036 -7.30306e-09)
(469.606 1.23969 2.12261e-09)
(469.601 1.79983 -7.4987e-10)
(469.574 2.73293 -5.38567e-11)
(469.563 3.26981 -2.26847e-10)
(469.528 4.2087 -6.79234e-10)
(469.502 4.76962 -3.89974e-10)
(469.466 5.64716 3.56454e-10)
(469.418 6.29732 7.58448e-10)
(469.389 7.03604 7.16952e-10)
(469.314 7.85531 4.52619e-10)
(469.292 8.36542 3.30626e-10)
(469.189 9.44435 5.96424e-11)
(469.175 9.62995 -3.38188e-10)
(469.043 11.0601 -4.86085e-10)
(469.036 10.8318 -3.11425e-10)
(468.878 12.6895 -2.51229e-10)
(468.874 11.9848 -3.55164e-11)
(468.697 14.3057 2.90236e-10)
(468.681 13.1196 1.29022e-10)
(468.506 15.8602 -1.89576e-10)
(468.445 14.2978 -1.84626e-10)
(468.32 17.2289 1.26122e-10)
(468.135 15.6774 2.65574e-10)
(467.909 0.460242 -7.2675e-09)
(467.899 1.25057 2.17064e-09)
(467.894 1.81547 -7.40209e-10)
(467.869 2.75779 1.05782e-11)
(467.86 3.29781 -1.87559e-10)
(467.827 4.24805 -6.60718e-10)
(467.804 4.81035 -3.23105e-10)
(467.771 5.7015 4.07414e-10)
(467.727 6.3514 7.89031e-10)
(467.702 7.10581 7.94515e-10)
(467.631 7.92359 5.09146e-10)
(467.614 8.45089 3.58314e-10)
(467.517 9.52805 1.35953e-10)
(467.509 9.73103 -2.87343e-10)
(467.383 11.1608 -4.52726e-10)
(467.384 10.9477 -2.99157e-10)
(467.232 12.8094 -2.58979e-10)
(467.237 12.1141 2.62992e-12)
(467.066 14.448 3.1349e-10)
(467.061 13.2601 1.29442e-10)
(466.892 16.0307 -1.40512e-10)
(466.846 14.4425 -1.60635e-10)
(466.722 17.4509 1.26976e-10)
(466.56 15.8095 3.09879e-10)
(466.149 0.463763 -7.29105e-09)
(466.14 1.2598 2.18815e-09)
(466.136 1.82848 -7.37112e-10)
(466.112 2.77893 1.80491e-11)
(466.104 3.32108 -1.81551e-10)
(466.074 4.2816 -6.56311e-10)
(466.054 4.84421 -3.16794e-10)
(466.024 5.74792 4.17024e-10)
(465.984 6.3964 7.99171e-10)
(465.962 7.16557 7.35188e-10)
(465.896 7.98062 4.47855e-10)
(465.884 8.52434 3.72865e-10)
(465.793 9.59838 7.97632e-11)
(465.791 9.81823 -3.42078e-10)
(465.671 11.2462 -4.4042e-10)
(465.679 11.0481 -2.86838e-10)
(465.534 12.9121 -2.45696e-10)
(465.547 12.2262 1.5909e-11)
(465.383 14.5708 3.29969e-10)
(465.389 13.3813 1.42386e-10)
(465.225 16.1788 -1.27109e-10)
(465.193 14.5673 -1.48983e-10)
(465.072 17.646 1.48982e-10)
(464.933 15.92 3.29968e-10)
(464.338 0.466609 -7.34086e-09)
(464.329 1.26741 2.24479e-09)
(464.326 1.83892 -7.13296e-10)
(464.303 2.79642 -4.06236e-11)
(464.297 3.3397 -1.82494e-10)
(464.268 4.30942 -6.01148e-10)
(464.251 4.87128 -3.44919e-10)
(464.224 5.78651 3.69936e-10)
(464.188 6.43243 8.09539e-10)
(464.17 7.21538 8.00793e-10)
(464.109 8.02643 4.98551e-10)
(464.102 8.58575 3.39498e-10)
(464.016 9.65527 1.00978e-10)
(464.02 9.89143 -2.69584e-10)
(463.907 11.3161 -4.56265e-10)
(463.923 11.1328 -3.1394e-10)
(463.783 12.9973 -2.17587e-10)
(463.806 12.321 2.93874e-11)
(463.648 14.6743 3.32164e-10)
(463.664 13.4836 1.30166e-10)
(463.507 16.3051 -1.57269e-10)
(463.488 14.6714 -1.30631e-10)
(463.371 17.8126 1.5725e-10)
(463.254 16.0088 2.62277e-10)
(462.475 0.468787 -7.40012e-09)
(462.465 1.2734 2.18424e-09)
(462.463 1.84681 -7.50441e-10)
(462.441 2.81028 -5.57155e-11)
(462.437 3.35372 -2.45386e-10)
(462.411 4.33158 -7.12822e-10)
(462.396 4.89165 -3.52695e-10)
(462.372 5.81738 4.65671e-10)
(462.339 6.45958 8.62446e-10)
(462.326 7.25535 8.10789e-10)
(462.269 8.0611 5.2853e-10)
(462.267 8.63518 3.89034e-10)
(462.186 9.69872 1.08203e-10)
(462.197 9.95057 -3.05042e-10)
(462.09 11.3702 -4.65159e-10)
(462.113 11.2015 -3.01324e-10)
(461.98 13.0647 -2.47534e-10)
(462.012 12.3983 -3.56822e-11)
(461.86 14.7583 2.82502e-10)
(461.888 13.5671 1.11197e-10)
(461.736 16.41 -1.51147e-10)
(461.731 14.7556 -9.90812e-11)
(461.617 17.9509 2.17451e-10)
(461.523 16.0752 3.39499e-10)
(460.558 0.470299 -7.46015e-09)
(460.549 1.27778 2.20217e-09)
(460.548 1.85217 -7.19656e-10)
(460.527 2.82054 -6.32155e-11)
(460.525 3.36317 -2.25869e-10)
(460.5 4.34812 -6.63947e-10)
(460.489 4.90536 -3.46491e-10)
(460.467 5.84057 4.32405e-10)
(460.438 6.47793 7.81065e-10)
(460.429 7.28557 7.56671e-10)
(460.377 8.08475 5.08684e-10)
(460.38 8.67276 3.27111e-10)
(460.304 9.7288 7.18846e-11)
(460.321 9.9957 -3.13469e-10)
(460.219 11.4086 -4.45121e-10)
(460.251 11.254 -2.5484e-10)
(460.124 13.114 -2.40783e-10)
(460.166 12.4576 -2.33886e-12)
(460.02 14.8224 3.51175e-10)
(460.059 13.6313 1.2434e-10)
(459.913 16.4932 -1.82442e-10)
(459.921 14.8201 -1.57103e-10)
(459.811 18.0616 1.81052e-10)
(459.738 16.1198 3.27877e-10)
(458.589 0.471142 -7.42237e-09)
(458.58 1.28056 2.23628e-09)
(458.58 1.855 -7.4374e-10)
(458.56 2.82719 -4.83773e-11)
(458.56 3.36805 -2.40792e-10)