/*--------------------------------*- C++ -*----------------------------------*\
  =========                 |
  \\      /  F ield         | OpenFOAM: The Open Source CFD Toolbox
   \\    /   O peration     | Website:  https://openfoam.org
    \\  /    A nd           | Version:  10
     \\/     M anipulation  |
\*---------------------------------------------------------------------------*/
FoamFile
{
    format      ascii;
    class       surfaceScalarField;
    location    "0.41";
    object      phi;
}
// * * * * * * * * * * * * * * * * * * * * * * * * * * * * * * * * * * * * * //

dimensions      [1 0 -1 0 0 0 0];

internalField   nonuniform List<scalar> 
8154
(
-5.87218e-09
-2.23343e-08
-5.71451e-08
-9.23211e-08
-1.71949e-07
-2.26299e-07
-3.70272e-07
-4.54805e-07
-6.75126e-07
-8.14892e-07
-1.1047e-06
-1.33733e-06
-1.66776e-06
-2.02699e-06
-2.36081e-06
-2.86628e-06
-3.25521e-06
-3.98684e-06
-4.56951e-06
-5.50924e-06
-6.82791e-06
-7.24549e-06
-6.8575e-06
-0.000277438
-0.000832369
2.39862e-08
-0.00138746
9.60522e-08
-0.00194288
2.13033e-07
-0.00249867
3.7769e-07
-0.00305503
5.76875e-07
-0.00361202
8.23239e-07
-0.00416973
1.08816e-06
-0.00472845
1.39727e-06
-0.00528791
1.71018e-06
-0.00584877
2.05523e-06
-0.00641057
2.40222e-06
-0.00697376
2.74785e-06
-0.00753865
3.12047e-06
-0.00810417
3.43679e-06
-0.00867309
3.85063e-06
-0.00924022
4.12682e-06
-0.00981489
4.57486e-06
-0.0103833
4.92376e-06
-0.0109646
5.13638e-06
-0.0115338
5.27912e-06
-0.0121235
5.11799e-06
-0.0126947
4.02667e-06
-0.013293
2.44446e-06
-0.000277462
-0.000832441
2.62991e-08
-0.00138758
1.04603e-07
-0.00194305
2.34434e-07
-0.00249887
4.09818e-07
-0.00305527
6.34811e-07
-0.00361228
8.89332e-07
-0.00417003
1.19438e-06
-0.00472876
1.50065e-06
-0.00528825
1.86604e-06
-0.00584911
2.1897e-06
-0.00641092
2.59257e-06
-0.00697413
2.89227e-06
-0.00753897
3.29894e-06
-0.00810458
3.53981e-06
-0.00867336
3.90497e-06
-0.00924067
4.10603e-06
-0.00981524
4.39176e-06
-0.0103835
5.00139e-06
-0.0109647
4.66315e-06
-0.0115336
5.23162e-06
-0.0121224
5.33341e-06
-0.0126931
5.04127e-06
-0.0132906
4.2221e-06
-0.000277488
-0.00083252
2.12363e-08
-0.00138771
8.47173e-08
-0.00194322
1.87768e-07
-0.00249909
3.30152e-07
-0.00305553
5.01472e-07
-0.00361259
7.07083e-07
-0.00417034
9.22407e-07
-0.00472913
1.166e-06
-0.00528857
1.39315e-06
-0.00584952
1.64085e-06
-0.00641122
1.84544e-06
-0.00697454
2.04904e-06
-0.00753921
2.19705e-06
-0.00810495
2.28421e-06
-0.00867356
2.35449e-06
-0.00924095
2.20803e-06
-0.00981585
2.34542e-06
-0.0103832
1.89868e-06
-0.0109653
1.77815e-06
-0.0115337
1.39214e-06
-0.0121222
1.16059e-06
-0.0126923
7.19442e-07
-0.0132863
5.10899e-07
-0.00027751
-0.000832583
2.54681e-08
-0.00138781
1.01666e-07
-0.00194337
2.25718e-07
-0.00249927
3.97405e-07
-0.00305573
6.05173e-07
-0.0036128
8.55385e-07
-0.00417059
1.11924e-06
-0.00472936
1.42018e-06
-0.00528882
1.7016e-06
-0.00584972
2.01594e-06
-0.00641142
2.27122e-06
-0.00697468
2.54748e-06
-0.0075393
2.73309e-06
-0.00810502
2.8951e-06
-0.00867342
2.98574e-06
-0.00924109
2.89906e-06
-0.00981541
2.97617e-06
-0.010383
2.28253e-06
-0.0109649
2.51484e-06
-0.0115335
1.72618e-06
-0.0121217
1.21258e-06
-0.0126921
3.80146e-07
-0.0132858
-1.74705e-07
-0.000277535
-0.00083266
3.35775e-08
-0.00138794
1.34012e-07
-0.00194354
2.98834e-07
-0.00249947
5.26006e-07
-0.00305598
8.07461e-07
-0.00361307
1.14139e-06
-0.00417089
1.51174e-06
-0.00472964
1.9188e-06
-0.00528914
2.33825e-06
-0.00584997
2.77247e-06
-0.0064117
3.19334e-06
-0.00697487
3.59503e-06
-0.00753946
3.96343e-06
-0.00810511
4.25839e-06
-0.00867333
4.52201e-06
-0.00924116
4.61594e-06
-0.00981472
4.7318e-06
-0.0103833
4.40068e-06
-0.0109641
4.36533e-06
-0.011533
3.67445e-06
-0.0121209
3.21958e-06
-0.0126915
2.27219e-06
-0.013286
1.34887e-06
-0.000277569
-0.00083276
3.74945e-08
-0.0013881
1.49656e-07
-0.00194376
3.33994e-07
-0.00249975
5.87972e-07
-0.00305632
9.0384e-07
-0.00361344
1.27804e-06
-0.00417129
1.69598e-06
-0.00473006
2.15365e-06
-0.00528957
2.63031e-06
-0.00585039
3.12024e-06
-0.0064121
3.6017e-06
-0.00697524
4.05725e-06
-0.00753975
4.48086e-06
-0.00810537
4.82095e-06
-0.00867342
5.12347e-06
-0.00924128
5.24999e-06
-0.00981439
5.36982e-06
-0.0103832
5.08218e-06
-0.0109634
4.96652e-06
-0.0115325
4.21847e-06
-0.0121199
3.68518e-06
-0.0126906
2.64313e-06
-0.0132847
1.61625e-06
-0.000277606
-0.000832873
4.13216e-08
-0.00138829
1.64947e-07
-0.00194402
3.6823e-07
-0.00250007
6.48382e-07
-0.00305669
9.97255e-07
-0.00361386
1.41088e-06
-0.00417175
1.87385e-06
-0.00473054
2.38167e-06
-0.00529006
2.91187e-06
-0.00585088
3.45844e-06
-0.00641256
3.99591e-06
-0.00697566
4.50811e-06
-0.00754009
4.98157e-06
-0.00810567
5.37009e-06
-0.00867355
5.70642e-06
-0.0092414
5.86237e-06
-0.0098141
5.9972e-06
-0.0103831
5.71825e-06
-0.0109626
5.597e-06
-0.011532
4.81245e-06
-0.0121189
4.20932e-06
-0.0126896
2.99477e-06
-0.013283
1.80111e-06
-0.000277648
-0.000832996
4.50099e-08
-0.00138849
1.79663e-07
-0.0019443
4.01138e-07
-0.00250042
7.06249e-07
-0.00305711
1.08658e-06
-0.00361432
1.5373e-06
-0.00417226
2.04295e-06
-0.00473107
2.59739e-06
-0.00529061
3.17843e-06
-0.00585141
3.77729e-06
-0.00641307
4.36878e-06
-0.00697614
4.93301e-06
-0.00754048
5.45559e-06
-0.00810601
5.88781e-06
-0.0086737
6.25713e-06
-0.00924153
6.44114e-06
-0.00981382
6.58157e-06
-0.010383
6.32806e-06
-0.0109618
6.17527e-06
-0.0115314
5.37243e-06
-0.0121176
4.83983e-06
-0.0126884
3.36399e-06
-0.0132812
2.02171e-06
-0.000277693
-0.000833131
4.86482e-08
-0.00138871
1.94168e-07
-0.0019446
4.33522e-07
-0.0025008
7.63094e-07
-0.00305756
1.17406e-06
-0.00361482
1.66077e-06
-0.00417281
2.20738e-06
-0.00473165
2.80655e-06
-0.00529121
3.43577e-06
-0.005852
4.08456e-06
-0.00641363
4.72713e-06
-0.00697666
5.34154e-06
-0.00754091
5.9111e-06
-0.00810638
6.38598e-06
-0.00867389
6.78701e-06
-0.00924167
6.99658e-06
-0.00981357
7.13818e-06
-0.0103828
6.90391e-06
-0.010961
6.7283e-06
-0.0115308
5.889e-06
-0.0121162
4.89851e-06
-0.012687
3.6925e-06
-0.0132792
2.21643e-06
-0.000277742
-0.000833277
5.22356e-08
-0.00138895
2.08466e-07
-0.00194493
4.65423e-07
-0.00250121
8.19038e-07
-0.00305804
1.26e-06
-0.00361537
1.78181e-06
-0.00417341
2.36804e-06
-0.00473228
3.01017e-06
-0.00529186
3.68517e-06
-0.00585265
4.38115e-06
-0.00641425
5.07164e-06
-0.00697723
5.73324e-06
-0.00754139
6.34725e-06
-0.00810678
6.86307e-06
-0.0086741
7.29526e-06
-0.00924181
7.52843e-06
-0.00981334
7.66957e-06
-0.0103827
7.45112e-06
-0.0109602
7.25008e-06
-0.01153
6.39798e-06
-0.0121148
5.5877e-06
-0.0126856
4.03995e-06
-0.013277
2.40711e-06
-0.000277794
-0.000833434
5.57875e-08
-0.00138921
2.22625e-07
-0.00194529
4.97026e-07
-0.00250165
8.74481e-07
-0.00305857
1.34516e-06
-0.00361596
1.90166e-06
-0.00417406
2.52684e-06
-0.00473295
3.21094e-06
-0.00529255
3.93012e-06
-0.00585334
4.67119e-06
-0.00641491
5.40674e-06
-0.00697784
6.11251e-06
-0.00754191
6.76781e-06
-0.00810721
7.32219e-06
-0.00867433
7.78471e-06
-0.00924195
8.04269e-06
-0.00981312
8.18999e-06
-0.0103825
7.97256e-06
-0.0109594
7.74371e-06
-0.0115292
6.85951e-06
-0.0121132
6.00829e-06
-0.0126839
4.35863e-06
-0.0132746
2.59211e-06
-0.00027785
-0.000833601
5.92971e-08
-0.00138948
2.36625e-07
-0.00194567
5.28297e-07
-0.00250212
9.29409e-07
-0.00305912
1.4296e-06
-0.00361658
2.02061e-06
-0.00417474
2.68444e-06
-0.00473367
3.41002e-06
-0.00529329
4.17244e-06
-0.00585407
4.95714e-06
-0.00641562
5.73546e-06
-0.0069785
6.48246e-06
-0.00754246
7.17545e-06
-0.00810767
7.76482e-06
-0.00867459
8.25469e-06
-0.0092421
8.53574e-06
-0.0098129
8.68987e-06
-0.0103822
8.47024e-06
-0.0109585
8.2067e-06
-0.0115284
7.28506e-06
-0.0121115
6.37299e-06
-0.0126822
4.65474e-06
-0.013272
2.76333e-06
-0.000277909
-0.000833778
6.27649e-08
-0.00138977
2.50462e-07
-0.00194607
5.59234e-07
-0.00250262
9.83818e-07
-0.00305971
1.51336e-06
-0.00361724
2.13876e-06
-0.00417547
2.84113e-06
-0.00473443
3.60809e-06
-0.00529408
4.41343e-06
-0.00585485
5.24109e-06
-0.00641636
6.06083e-06
-0.00697919
6.84688e-06
-0.00754305
7.57441e-06
-0.00810816
8.19498e-06
-0.00867487
8.70842e-06
-0.00924225
9.00935e-06
-0.00981268
9.16782e-06
-0.010382
8.94857e-06
-0.0109576
8.64485e-06
-0.0115275
7.67833e-06
-0.0121098
6.70469e-06
-0.0126803
4.899e-06
-0.0132692
2.9108e-06
-0.000277972
-0.000833966
6.61937e-08
-0.00139008
2.64144e-07
-0.00194649
5.89825e-07
-0.00250315
1.03764e-06
-0.00306034
1.59627e-06
-0.00361795
2.25584e-06
-0.00417623
2.99657e-06
-0.00473524
3.80483e-06
-0.0052949
4.65303e-06
-0.00585567
5.52352e-06
-0.00641715
6.38421e-06
-0.00697992
7.20816e-06
-0.00754367
7.96805e-06
-0.00810867
8.61647e-06
-0.00867517
9.1493e-06
-0.00924241
9.46595e-06
-0.00981246
9.62704e-06
-0.0103817
9.41019e-06
-0.0109566
9.06427e-06
-0.0115265
8.05276e-06
-0.012108
7.01032e-06
-0.0126783
5.05783e-06
-0.0132663
3.03677e-06
-0.000278038
-0.000834164
6.95912e-08
-0.00139041
2.77692e-07
-0.00194694
6.20092e-07
-0.00250371
1.09086e-06
-0.003061
1.67818e-06
-0.00361869
2.37147e-06
-0.00417704
3.15012e-06
-0.00473609
3.99933e-06
-0.00529578
4.89022e-06
-0.00585653
5.80354e-06
-0.00641797
6.70526e-06
-0.00698068
7.56699e-06
-0.00754432
8.35852e-06
-0.00810921
9.03282e-06
-0.00867548
9.58149e-06
-0.00924257
9.90885e-06
-0.00981224
1.00685e-05
-0.0103813
9.85162e-06
-0.0109556
9.46465e-06
-0.0115255
8.41512e-06
-0.0121061
7.30905e-06
-0.0126763
5.28081e-06
-0.0132633
3.16919e-06
-0.000278108
-0.000834373
7.29608e-08
-0.00139075
2.9112e-07
-0.00194741
6.50041e-07
-0.0025043
1.14341e-06
-0.00306169
1.75889e-06
-0.00361946
2.4852e-06
-0.00417789
3.30094e-06
-0.00473698
4.1903e-06
-0.00529669
5.12321e-06
-0.00585743
6.07903e-06
-0.00641884
7.02187e-06
-0.00698147
7.92176e-06
-0.00754499
8.74543e-06
-0.00810975
9.44551e-06
-0.00867581
1.00088e-05
-0.00924272
1.03434e-05
-0.00981202
1.04951e-05
-0.0103809
1.02654e-05
-0.0109545
9.84444e-06
-0.0115244
8.75704e-06
-0.012104
7.58985e-06
-0.0126742
5.49904e-06
-0.0132601
3.29231e-06
-0.000278181
-0.000834591
7.62933e-08
-0.00139111
3.04385e-07
-0.00194791
6.79567e-07
-0.00250491
1.19508e-06
-0.00306242
1.83802e-06
-0.00362028
2.59637e-06
-0.00417878
3.44797e-06
-0.00473791
4.37613e-06
-0.00529764
5.34974e-06
-0.00585837
6.34702e-06
-0.00641974
7.33046e-06
-0.0069823
8.26866e-06
-0.00754569
9.12535e-06
-0.00811032
9.85237e-06
-0.00867615
1.04315e-05
-0.00924287
1.07736e-05
-0.00981179
1.0916e-05
-0.0103805
1.06699e-05
-0.0109534
1.0214e-05
-0.0115232
9.08949e-06
-0.0121019
7.8599e-06
-0.012672
5.69941e-06
-0.0132568
3.40811e-06
-0.000278257
-0.000834819
7.95626e-08
-0.00139149
3.17384e-07
-0.00194842
7.0845e-07
-0.00250556
1.24551e-06
-0.00306318
1.91502e-06
-0.00362113
2.70422e-06
-0.00417971
3.59017e-06
-0.00473888
4.55533e-06
-0.00529864
5.56772e-06
-0.00585936
6.60464e-06
-0.00642067
7.62727e-06
-0.00698316
8.60308e-06
-0.00754642
9.49318e-06
-0.0081109
1.02484e-05
-0.00867649
1.08456e-05
-0.00924301
1.11974e-05
-0.00981154
1.13325e-05
-0.0103801
1.10722e-05
-0.0109523
1.0577e-05
-0.011522
9.41826e-06
-0.0120998
8.12563e-06
-0.0126697
5.89411e-06
-0.0132534
3.51996e-06
-0.000278337
-0.000835057
8.27107e-08
-0.00139188
3.29895e-07
-0.00194896
7.36227e-07
-0.00250622
1.29395e-06
-0.00306397
1.98887e-06
-0.00362202
2.80745e-06
-0.00418067
3.72594e-06
-0.0047399
4.72598e-06
-0.00529968
5.77472e-06
-0.00586038
6.84874e-06
-0.00642165
7.90816e-06
-0.00698405
8.9197e-06
-0.00754717
9.84236e-06
-0.00811149
1.06263e-05
-0.00867684
1.12437e-05
-0.00924315
1.16083e-05
-0.00981128
1.17401e-05
-0.0103796
1.14681e-05
-0.0109512
1.09333e-05
-0.0115207
9.74647e-06
-0.0120975
8.39359e-06
-0.0126673
6.08851e-06
-0.0132499
3.63122e-06
-0.00027842
-0.000835305
8.56599e-08
-0.00139228
3.4162e-07
-0.00194952
7.62271e-07
-0.00250692
1.3394e-06
-0.00306478
2.05819e-06
-0.00362294
2.90434e-06
-0.00418167
3.85328e-06
-0.00474094
4.88582e-06
-0.00530075
5.96821e-06
-0.00586144
7.07632e-06
-0.00642266
8.16938e-06
-0.00698497
9.21365e-06
-0.00754796
1.01665e-05
-0.00811211
1.09779e-05
-0.0086772
1.16163e-05
-0.00924328
1.19965e-05
-0.00981101
1.21303e-05
-0.0103791
1.18512e-05
-0.01095
1.12805e-05
-0.0115193
1.00739e-05
-0.0120952
8.66528e-06
-0.0126649
6.28928e-06
-0.0132463
3.74609e-06
-0.000278506
-0.000835561
8.8321e-08
-0.0013927
3.5221e-07
-0.0019501
7.85839e-07
-0.00250764
1.38063e-06
-0.00306563
2.12123e-06
-0.00362388
2.99269e-06
-0.0041827
3.96963e-06
-0.00474203
5.03201e-06
-0.00530186
6.14513e-06
-0.00586253
7.28411e-06
-0.00642371
8.40723e-06
-0.00698592
9.48046e-06
-0.00754877
1.04599e-05
-0.00811275
1.12957e-05
-0.00867758
1.19537e-05
-0.00924341
1.23499e-05
-0.00981073
1.24899e-05
-0.0103785
1.22113e-05
-0.0109488
1.16188e-05
-0.0115179
1.03926e-05
-0.0120928
8.93397e-06
-0.0126623
6.49686e-06
-0.0132426
3.86636e-06
-0.000278594
-0.000835825
9.06068e-08
-0.00139314
3.61321e-07
-0.00195069
8.06175e-07
-0.00250838
1.41634e-06
-0.0030665
2.17611e-06
-0.00362486
3.06997e-06
-0.00418377
4.07188e-06
-0.00474314
5.16101e-06
-0.005303
6.30168e-06
-0.00586365
7.46812e-06
-0.00642478
8.6176e-06
-0.0069869
9.7157e-06
-0.0075496
1.07174e-05
-0.00811341
1.15733e-05
-0.00867798
1.22472e-05
-0.00924354
1.26569e-05
-0.00981045
1.28032e-05
-0.0103779
1.25289e-05
-0.0109475
1.19263e-05
-0.0115165
1.06822e-05
-0.0120904
9.18127e-06
-0.0126597
6.7012e-06
-0.0132387
3.98702e-06
-0.000278685
-0.000836096
9.24462e-08
-0.00139358
3.68667e-07
-0.0019513
8.22625e-07
-0.00250914
1.44537e-06
-0.0030674
2.22097e-06
-0.00362586
3.13359e-06
-0.00418486
4.15668e-06
-0.00474428
5.26874e-06
-0.00530417
6.43321e-06
-0.0058648
7.6234e-06
-0.00642588
8.79541e-06
-0.00698791
9.91427e-06
-0.00755046
1.09337e-05
-0.00811408
1.18049e-05
-0.00867839
1.24899e-05
-0.00924369
1.29086e-05
-0.00981017
1.3058e-05
-0.0103773
1.27862e-05
-0.0109463
1.2173e-05
-0.011515
1.0919e-05
-0.0120879
9.38286e-06
-0.0126569
6.87594e-06
-0.0132348
4.08949e-06
-0.000278777
-0.000836372
9.379e-08
-0.00139404
3.74042e-07
-0.00195192
8.34697e-07
-0.00250991
1.46677e-06
-0.00306831
2.25425e-06
-0.00362689
3.18115e-06
-0.00418597
4.22068e-06
-0.00474544
5.35088e-06
-0.00530536
6.53449e-06
-0.00586598
7.74402e-06
-0.00642699
8.93434e-06
-0.00698893
1.00698e-05
-0.00755133
1.11027e-05
-0.00811477
1.19843e-05
-0.00867881
1.26753e-05
-0.00924384
1.30975e-05
-0.0098099
1.32453e-05
-0.0103767
1.29722e-05
-0.010945
1.23473e-05
-0.0115134
1.10882e-05
-0.0120854
9.51352e-06
-0.0126541
6.97731e-06
-0.0132307
4.13885e-06
-0.000278871
-0.000836652
9.46257e-08
-0.0013945
3.77386e-07
-0.00195256
8.42216e-07
-0.0025107
1.48014e-06
-0.00306924
2.27516e-06
-0.00362792
3.21133e-06
-0.0041871
4.26173e-06
-0.00474663
5.40439e-06
-0.00530657
6.60148e-06
-0.00586717
7.82524e-06
-0.00642813
9.02906e-06
-0.00698996
1.01772e-05
-0.00755221
1.12193e-05
-0.00811546
1.21079e-05
-0.00867923
1.28001e-05
-0.00924398
1.32216e-05
-0.00980962
1.33616e-05
-0.0103761
1.30834e-05
-0.0109438
1.24452e-05
-0.0115118
1.11843e-05
-0.0120828
9.56226e-06
-0.0126513
6.97e-06
-0.0132265
4.10748e-06
-0.000278966
-0.000836935
9.53322e-08
-0.00139496
3.80206e-07
-0.00195319
8.48543e-07
-0.0025115
1.49138e-06
-0.00307017
2.29276e-06
-0.00362898
3.23685e-06
-0.00418824
4.29684e-06
-0.00474782
5.45091e-06
-0.00530779
6.66114e-06
-0.00586837
7.89973e-06
-0.00642928
9.11928e-06
-0.006991
1.02836e-05
-0.00755309
1.13407e-05
-0.00811615
1.22426e-05
-0.00867966
1.29442e-05
-0.00924412
1.33724e-05
-0.00980934
1.35131e-05
-0.0103754
1.32363e-05
-0.0109425
1.25934e-05
-0.0115102
1.13349e-05
-0.0120802
9.69054e-06
-0.0126485
7.06302e-06
-0.0132224
4.20469e-06
-0.000279061
-0.00083722
9.5641e-08
-0.00139543
3.8143e-07
-0.00195384
8.51265e-07
-0.0025123
1.49619e-06
-0.00307112
2.30028e-06
-0.00363004
3.24786e-06
-0.0041894
4.31231e-06
-0.00474903
5.47213e-06
-0.00530903
6.6897e-06
-0.00586959
7.93749e-06
-0.00643044
9.16803e-06
-0.00699206
1.03448e-05
-0.00755399
1.14152e-05
-0.00811685
1.23297e-05
-0.00868009
1.30422e-05
-0.00924427
1.34781e-05
-0.00980907
1.36219e-05
-0.0103748
1.33468e-05
-0.0109413
1.26995e-05
-0.0115086
1.14397e-05
-0.0120776
9.79102e-06
-0.0126456
7.14833e-06
-0.0132182
4.3814e-06
-0.000279157
-0.000837506
9.54408e-08
-0.0013959
3.80617e-07
-0.00195448
8.49409e-07
-0.0025131
1.49287e-06
-0.00307207
2.29512e-06
-0.0036311
3.24061e-06
-0.00419056
4.30296e-06
-0.00475025
5.46107e-06
-0.00531028
6.67777e-06
-0.00587082
7.92618e-06
-0.00643162
9.1592e-06
-0.00699313
1.03408e-05
-0.00755491
1.1418e-05
-0.00811757
1.23409e-05
-0.00868052
1.30618e-05
-0.00924441
1.35048e-05
-0.00980879
1.36514e-05
-0.0103741
1.33774e-05
-0.01094
1.27256e-05
-0.0115069
1.14679e-05
-0.012075
9.81153e-06
-0.0126427
7.16782e-06
-0.013214
4.0074e-06
-0.000279252
-0.000837791
9.47679e-08
-0.00139637
3.77923e-07
-0.00195513
8.43359e-07
-0.0025139
1.48218e-06
-0.00307301
2.27859e-06
-0.00363216
3.2172e-06
-0.00419172
4.27181e-06
-0.00475147
5.42174e-06
-0.00531152
6.63029e-06
-0.00587205
7.87141e-06
-0.0064328
9.09864e-06
-0.00699421
1.02771e-05
-0.00755583
1.13541e-05
-0.00811828
1.22802e-05
-0.00868097
1.30072e-05
-0.00924456
1.34577e-05
-0.00980852
1.36104e-05
-0.0103735
1.33407e-05
-0.0109388
1.2686e-05
-0.0115053
1.14307e-05
-0.0120723
9.75576e-06
-0.0126397
7.14924e-06
-0.0132098
3.93706e-06
-0.000279347
-0.000838074
9.36483e-08
-0.00139684
3.73459e-07
-0.00195577
8.33405e-07
-0.0025147
1.46473e-06
-0.00307395
2.25176e-06
-0.00363322
3.17938e-06
-0.00419287
4.22158e-06
-0.00475268
5.35807e-06
-0.00531276
6.55253e-06
-0.00587328
7.77969e-06
-0.00643397
8.99381e-06
-0.00699529
1.01614e-05
-0.00755675
1.12307e-05
-0.00811901
1.21537e-05
-0.00868143
1.28829e-05
-0.00924471
1.33403e-05
-0.00980825
1.35032e-05
-0.0103728
1.32452e-05
-0.0109375
1.25964e-05
-0.0115036
1.13452e-05
-0.0120697
9.65026e-06
-0.0126368
7.0925e-06
-0.0132056
4.19181e-06
-0.00027944
-0.000838354
9.21094e-08
-0.0013973
3.6734e-07
-0.0019564
8.19813e-07
-0.00251549
1.44101e-06
-0.00307488
2.21554e-06
-0.00363426
3.12865e-06
-0.004194
4.15459e-06
-0.00475387
5.2735e-06
-0.00531399
6.44935e-06
-0.00587449
7.65752e-06
-0.00643514
8.85282e-06
-0.00699636
1.00031e-05
-0.00755768
1.10578e-05
-0.00811973
1.19707e-05
-0.00868189
1.26959e-05
-0.00924488
1.31568e-05
-0.009808
1.33309e-05
-0.0103722
1.30913e-05
-0.0109363
1.24625e-05
-0.0115019
1.12332e-05
-0.0120671
9.54535e-06
-0.0126339
7.01811e-06
-0.0132014
4.16742e-06
-0.000279533
-0.000838629
9.01912e-08
-0.00139775
3.59724e-07
-0.00195702
8.02929e-07
-0.00251626
1.41163e-06
-0.00307579
2.17086e-06
-0.00363529
3.06632e-06
-0.00419512
4.07278e-06
-0.00475504
5.1708e-06
-0.0053152
6.32474e-06
-0.00587569
7.51049e-06
-0.00643629
8.68321e-06
-0.00699741
9.81195e-06
-0.00755859
1.08467e-05
-0.00812046
1.17435e-05
-0.00868235
1.24577e-05
-0.00924505
1.29161e-05
-0.00980776
1.30974e-05
-0.0103715
1.2877e-05
-0.010935
1.2277e-05
-0.0115002
1.10873e-05
-0.0120646
9.43638e-06
-0.0126311
6.93984e-06
-0.0131972
4.11861e-06
-0.000279623
-0.000838899
8.79531e-08
-0.00139819
3.50839e-07
-0.00195763
7.83238e-07
-0.00251702
1.37739e-06
-0.00307669
2.11883e-06
-0.00363629
2.99391e-06
-0.00419622
3.97801e-06
-0.0047562
5.05237e-06
-0.00531638
6.18182e-06
-0.00587686
7.34281e-06
-0.00643742
8.49082e-06
-0.00699845
9.59581e-06
-0.00755949
1.0608e-05
-0.00812117
1.1485e-05
-0.00868282
1.2183e-05
-0.00924523
1.26321e-05
-0.00980754
1.28136e-05
-0.0103709
1.26071e-05
-0.0109338
1.20364e-05
-0.0114985
1.08935e-05
-0.0120621
9.29265e-06
-0.0126282
6.85926e-06
-0.0131931
4.06476e-06
-0.000279711
-0.000839162
8.54709e-08
-0.00139862
3.40979e-07
-0.00195822
7.61366e-07
-0.00251776
1.33931e-06
-0.00307757
2.0609e-06
-0.00363728
2.9132e-06
-0.0041973
3.8724e-06
-0.00475733
4.92051e-06
-0.00531754
6.02318e-06
-0.00587801
7.1575e-06
-0.00643852
8.27948e-06
-0.00699946
9.36002e-06
-0.00756036
1.03494e-05
-0.00812186
1.1206e-05
-0.00868327
1.18858e-05
-0.00924541
1.23217e-05
-0.00980734
1.24964e-05
-0.0103704
1.22953e-05
-0.0109327
1.17463e-05
-0.0114969
1.0648e-05
-0.0120597
9.11081e-06
-0.0126255
6.77741e-06
-0.013189
4.00546e-06
-0.000279796
-0.000839417
8.28285e-08
-0.00139904
3.30472e-07
-0.0019588
7.38016e-07
-0.00251848
1.29855e-06
-0.00307842
1.99872e-06
-0.00363823
2.82634e-06
-0.00419835
3.7584e-06
-0.00475843
4.7779e-06
-0.00531868
5.85142e-06
-0.00587913
6.95703e-06
-0.0064396
8.0516e-06
-0.00700045
9.10726e-06
-0.00756122
1.00745e-05
-0.00812254
1.09123e-05
-0.00868371
1.15755e-05
-0.00924559
1.19988e-05
-0.00980713
1.21643e-05
-0.0103698
1.19622e-05
-0.0109316
1.1423e-05
-0.0114954
1.0355e-05
-0.0120573
8.87648e-06
-0.0126227
6.65135e-06
-0.013185
3.92851e-06
-0.000279879
-0.000839665
8.01035e-08
-0.00139945
3.19623e-07
-0.00195936
7.13859e-07
-0.00251918
1.25626e-06
-0.00307925
1.93399e-06
-0.00363917
2.73552e-06
-0.00419937
3.63872e-06
-0.0047595
4.62752e-06
-0.00531979
5.66953e-06
-0.00588022
6.74405e-06
-0.00644066
7.80918e-06
-0.00700141
8.83872e-06
-0.00756206
9.784e-06
-0.0081232
1.06046e-05
-0.00868414
1.12548e-05
-0.00924575
1.16697e-05
-0.00980693
1.18302e-05
-0.0103693
1.16279e-05
-0.0109305
1.1093e-05
-0.0114939
1.00411e-05
-0.0120551
8.59403e-06
-0.01262
6.42354e-06
-0.0131811
3.81832e-06
-0.000279959
-0.000839905
7.73547e-08
-0.00139985
3.08665e-07
-0.0019599
6.89416e-07
-0.00251986
1.21336e-06
-0.00308005
1.86809e-06
-0.00364007
2.64272e-06
-0.00420035
3.51584e-06
-0.00476054
4.47232e-06
-0.00532086
5.48069e-06
-0.00588129
6.52158e-06
-0.00644169
7.55461e-06
-0.00700236
8.55553e-06
-0.00756288
9.47717e-06
-0.00812384
1.02803e-05
-0.00868456
1.09197e-05
-0.00924591
1.1331e-05
-0.00980672
1.14943e-05
-0.0103688
1.12998e-05
-0.0109295
1.07759e-05
-0.0114925
9.74039e-06
-0.012053
8.3151e-06
-0.0126174
6.19075e-06
-0.0131773
3.67527e-06
-0.000280037
-0.000840136
7.46137e-08
-0.00140023
2.97728e-07
-0.00196043
6.64984e-07
-0.00252052
1.17039e-06
-0.00308082
1.80193e-06
-0.00364094
2.54924e-06
-0.00420131
3.39157e-06
-0.00476155
4.31458e-06
-0.0053219
5.28766e-06
-0.00588232
6.29265e-06
-0.00644269
7.29066e-06
-0.00700328
8.25958e-06
-0.00756368
9.15398e-06
-0.00812448
9.93659e-06
-0.00868498
1.05641e-05
-0.00924606
1.09732e-05
-0.00980653
1.11457e-05
-0.0103682
1.09681e-05
-0.0109284
1.0469e-05
-0.0114911
9.45993e-06
-0.0120508
8.06095e-06
-0.0126149
5.97295e-06
-0.0131736
3.48912e-06
-0.000280111
-0.00084036
7.18793e-08
-0.00140059
2.8681e-07
-0.00196093
6.40574e-07
-0.00252115
1.1274e-06
-0.00308157
1.73563e-06
-0.00364178
2.45538e-06
-0.00420223
3.26644e-06
-0.00476252
4.1552e-06
-0.00532291
5.09177e-06
-0.00588332
6.059e-06
-0.00644365
7.01933e-06
-0.00700417
7.95262e-06
-0.00756446
8.81518e-06
-0.00812511
9.57203e-06
-0.00868539
1.01828e-05
-0.00924623
1.05861e-05
-0.00980635
1.07681e-05
-0.0103677
1.06114e-05
-0.0109274
1.0151e-05
-0.0114897
9.18512e-06
-0.0120488
7.83891e-06
-0.0126124
5.79198e-06
-0.0131701
3.31558e-06
-0.000280183
-0.000840575
6.91274e-08
-0.00140095
2.7582e-07
-0.00196142
6.15994e-07
-0.00252176
1.08409e-06
-0.00308229
1.66877e-06
-0.00364259
2.36058e-06
-0.00420312
3.13988e-06
-0.00476346
3.9936e-06
-0.00532388
4.89264e-06
-0.00588428
5.82063e-06
-0.00644459
6.74114e-06
-0.00700503
7.63556e-06
-0.00756522
8.46182e-06
-0.00812572
9.18688e-06
-0.0086858
9.77411e-06
-0.00924641
1.01638e-05
-0.00980619
1.03481e-05
-0.0103673
1.02067e-05
-0.0109265
9.78794e-06
-0.0114883
8.87327e-06
-0.0120467
7.61238e-06
-0.0126099
5.6458e-06
-0.0131668
3.29061e-06
-0.000280252
-0.000840781
6.63065e-08
-0.00140129
2.64559e-07
-0.00196189
5.90805e-07
-0.00252234
1.03968e-06
-0.00308298
1.60019e-06
-0.00364337
2.26328e-06
-0.00420398
3.00981e-06
-0.00476436
3.82732e-06
-0.0053248
4.68749e-06
-0.0058852
5.57457e-06
-0.00644548
6.45329e-06
-0.00700586
7.30598e-06
-0.00756594
8.0921e-06
-0.0081263
8.77995e-06
-0.00868619
9.33683e-06
-0.00924659
9.7038e-06
-0.00980605
9.87901e-06
-0.0103668
9.73972e-06
-0.0109256
9.35192e-06
-0.0114871
8.47862e-06
-0.0120448
7.3085e-06
-0.0126075
5.43492e-06
-0.0131635
3.22529e-06
-0.000280319
-0.00084098
6.33466e-08
-0.00140162
2.52737e-07
-0.00196234
5.64364e-07
-0.0025229
9.93066e-07
-0.00308364
1.52817e-06
-0.00364412
2.16104e-06
-0.00420479
2.87299e-06
-0.00476522
3.65225e-06
-0.00532569
4.47121e-06
-0.00588608
5.31516e-06
-0.00644634
6.14922e-06
-0.00700664
6.95755e-06
-0.00756663
7.69922e-06
-0.00812686
8.34634e-06
-0.00868656
8.86569e-06
-0.00924676
9.2043e-06
-0.00980592
9.3553e-06
-0.0103664
9.2072e-06
-0.0109247
8.82668e-06
-0.0114859
7.98236e-06
-0.0120429
6.88086e-06
-0.0126053
5.10296e-06
-0.0131602
3.04247e-06
-0.000280382
-0.000841169
6.05009e-08
-0.00140193
2.41364e-07
-0.00196277
5.38944e-07
-0.00252344
9.48303e-07
-0.00308428
1.45908e-06
-0.00364483
2.06305e-06
-0.00420557
2.74194e-06
-0.00476604
3.48486e-06
-0.00532654
4.26478e-06
-0.00588692
5.06846e-06
-0.00644714
5.86085e-06
-0.00700738
6.62888e-06
-0.00756728
7.32961e-06
-0.00812737
7.94156e-06
-0.0086869
8.42713e-06
-0.00924691
8.7437e-06
-0.00980579
8.86914e-06
-0.010366
8.71483e-06
-0.0109239
8.33017e-06
-0.0114848
7.51335e-06
-0.0120411
6.45629e-06
-0.0126033
4.76487e-06
-0.0131572
2.81608e-06
-0.000280443
-0.00084135
5.79787e-08
-0.00140222
2.31302e-07
-0.00196318
5.16497e-07
-0.00252395
9.08872e-07
-0.00308488
1.39838e-06
-0.00364551
1.97718e-06
-0.00420631
2.62752e-06
-0.00476682
3.33922e-06
-0.00532734
4.08641e-06
-0.00588771
4.85656e-06
-0.00644791
5.61595e-06
-0.00700808
6.35182e-06
-0.00756789
7.02333e-06
-0.00812786
7.6098e-06
-0.00868721
8.07816e-06
-0.00924704
8.38319e-06
-0.00980565
8.50327e-06
-0.0103656
8.34886e-06
-0.0109231
7.98142e-06
-0.0114837
7.18946e-06
-0.0120394
6.19523e-06
-0.0126014
4.56525e-06
-0.0131544
2.73991e-06
-0.000280501
-0.000841524
5.52494e-08
-0.00140251
2.20423e-07
-0.00196357
4.92241e-07
-0.00252444
8.66284e-07
-0.00308546
1.33282e-06
-0.00364616
1.88444e-06
-0.00420703
2.50389e-06
-0.00476756
3.1818e-06
-0.00532811
3.89362e-06
-0.00588848
4.62749e-06
-0.00644865
5.35118e-06
-0.00700876
6.05196e-06
-0.00756848
6.69177e-06
-0.00812832
7.2503e-06
-0.00868751
7.70047e-06
-0.00924716
7.99291e-06
-0.00980551
8.1088e-06
-0.0103653
7.95441e-06
-0.0109223
7.60696e-06
-0.0114827
6.8386e-06
-0.0120377
5.89402e-06
-0.0125996
4.31497e-06
-0.0131516
2.65974e-06
-0.000280556
-0.000841689
5.2287e-08
-0.00140278
2.08622e-07
-0.00196394
4.6595e-07
-0.0025249
8.20145e-07
-0.00308601
1.2618e-06
-0.00364678
1.78399e-06
-0.0042077
2.37005e-06
-0.00476827
3.01144e-06
-0.00532885
3.6851e-06
-0.0058892
4.37988e-06
-0.00644935
5.06505e-06
-0.0070094
5.7278e-06
-0.00756905
6.33316e-06
-0.00812877
6.86099e-06
-0.00868779
7.29078e-06
-0.00924728
7.56859e-06
-0.00980536
7.68073e-06
-0.0103649
7.52899e-06
-0.0109215
7.21143e-06
-0.0114818
6.47462e-06
-0.0120361
5.57131e-06
-0.0125979
4.01784e-06
-0.013149
2.46151e-06
-0.000280608
-0.000841846
4.90702e-08
-0.00140304
1.9582e-07
-0.0019643
4.37449e-07
-0.00252534
7.70151e-07
-0.00308653
1.18487e-06
-0.00364736
1.67522e-06
-0.00420834
2.22519e-06
-0.00476895
2.82722e-06
-0.00532954
3.45991e-06
-0.00588989
4.11271e-06
-0.00645002
4.7567e-06
-0.00701001
5.37849e-06
-0.00756958
5.94715e-06
-0.00812919
6.44137e-06
-0.00868806
6.84857e-06
-0.0092474
7.10782e-06
-0.00980522
7.21568e-06
-0.0103646
7.06602e-06
-0.0109208
6.78702e-06
-0.0114809
6.09103e-06
-0.0120346
5.27514e-06
-0.0125963
4.02969e-06
-0.0131465
2.31282e-06
-0.000280658
-0.000841993
4.55812e-08
-0.00140328
1.81949e-07
-0.00196463
4.06586e-07
-0.00252576
7.16025e-07
-0.00308702
1.10157e-06
-0.00364791
1.55749e-06
-0.00420895
2.06853e-06
-0.00476958
2.62817e-06
-0.00533019
3.21692e-06
-0.00589053
3.82469e-06
-0.00645064
4.4248e-06
-0.00701058
5.00271e-06
-0.00757007
5.53289e-06
-0.00812959
5.99084e-06
-0.0086883
6.37387e-06
-0.00924752
6.61047e-06
-0.00980506
6.71514e-06
-0.0103643
6.56453e-06
-0.0109201
6.31807e-06
-0.0114801
5.65707e-06
-0.0120331
4.9652e-06
-0.0125948
3.63662e-06
-0.0131442
2.16013e-06
-0.000280703
-0.000842129
4.18112e-08
-0.00140351
1.66972e-07
-0.00196494
3.73267e-07
-0.00252614
6.57575e-07
-0.00308748
1.01161e-06
-0.00364842
1.43035e-06
-0.00420951
1.89944e-06
-0.00477017
2.4135e-06
-0.0053308
2.95512e-06
-0.00589113
3.51449e-06
-0.00645122
4.06795e-06
-0.00701111
4.59877e-06
-0.00757053
5.08902e-06
-0.00812997
5.50805e-06
-0.00868853
5.86608e-06
-0.00924763
6.07645e-06
-0.00980489
6.18465e-06
-0.0103641
6.03378e-06
-0.0109194
5.81477e-06
-0.0114794
5.15353e-06
-0.0120318
4.60346e-06
-0.0125934
3.32556e-06
-0.0131421
1.98149e-06
-0.000280745
-0.000842255
3.77699e-08
-0.00140371
1.5091e-07
-0.00196522
3.37494e-07
-0.0025265
5.94753e-07
-0.0030879
9.1488e-07
-0.00364889
1.29367e-06
-0.00421002
1.71769e-06
-0.00477071
2.18283e-06
-0.00533136
2.67393e-06
-0.00589169
3.18119e-06
-0.00645175
3.68503e-06
-0.00701161
4.16516e-06
-0.00757095
4.6144e-06
-0.00813033
4.99141e-06
-0.00868874
5.32428e-06
-0.00924774
5.5042e-06
-0.00980473
5.62366e-06
-0.0103639
5.46707e-06
-0.0109188
5.32479e-06
-0.0114788
5.00597e-06
-0.0120305
4.09865e-06
-0.0125921
3.01565e-06
-0.0131401
1.78823e-06
-0.000280783
-0.000842368
3.3481e-08
-0.0014039
1.3383e-07
-0.00196548
2.99367e-07
-0.00252682
5.27689e-07
-0.00308828
8.11496e-07
-0.00364932
1.14761e-06
-0.00421049
1.52358e-06
-0.0047712
1.93647e-06
-0.00533186
2.37352e-06
-0.00589219
2.82454e-06
-0.00645223
3.2758e-06
-0.00701206
3.70116e-06
-0.00757132
4.10893e-06
-0.00813066
4.43975e-06
-0.00868892
4.75013e-06
-0.00924786
4.89453e-06
-0.00980458
5.03175e-06
-0.0103637
4.85022e-06
-0.0109182
4.8162e-06
-0.0114782
4.34973e-06
-0.0120294
3.6656e-06
-0.0125908
2.72254e-06
-0.0131383
1.60426e-06
-0.000280817
-0.000842468
2.89608e-08
-0.00140406
1.15796e-07
-0.0019657
2.59014e-07
-0.0025271
4.56604e-07
-0.00308861
7.01807e-07
-0.00364969
9.92741e-07
-0.00421091
1.31795e-06
-0.00477163
1.67546e-06
-0.00533231
2.05498e-06
-0.00589264
2.44529e-06
-0.00645266
2.84166e-06
-0.00701247
3.2073e-06
-0.00757165
3.57493e-06
-0.00813096
3.85193e-06
-0.00868907
4.14832e-06
-0.00924799
4.24996e-06
-0.00980442
4.43398e-06
-0.0103637
4.56266e-06
-0.0109176
4.14817e-06
-0.0114776
3.75062e-06
-0.0120285
3.20084e-06
-0.0125897
2.38821e-06
-0.0131367
1.40623e-06
-0.000280846
-0.000842555
2.41743e-08
-0.00140421
9.68079e-08
-0.0019659
2.1656e-07
-0.00252734
3.81873e-07
-0.0030889
5.86531e-07
-0.00365002
8.30095e-07
-0.00421126