/*--------------------------------*- C++ -*----------------------------------*\
  =========                 |
  \\      /  F ield         | OpenFOAM: The Open Source CFD Toolbox
   \\    /   O peration     | Website:  https://openfoam.org
    \\  /    A nd           | Version:  10
     \\/     M anipulation  |
\*---------------------------------------------------------------------------*/
FoamFile
{
    format      ascii;
    class       volScalarField;
    location    "0.41";
    object      rho;
}
// * * * * * * * * * * * * * * * * * * * * * * * * * * * * * * * * * * * * * //

dimensions      [1 -3 0 0 0 0 0];

internalField   nonuniform List<scalar> 
4176
(
0.0308487
0.0308517
0.0308579
0.0308682
0.0308814
0.0308977
0.0309187
0.0309401
0.0309693
0.0309955
0.0310323
0.0310648
0.0311068
0.0311475
0.0311926
0.0312439
0.0312871
0.0313549
0.0313934
0.0314789
0.0315107
0.0316162
0.0316359
0.0317505
0.0308567
0.0308596
0.0308648
0.0308747
0.0308858
0.0309015
0.0309192
0.0309399
0.030965
0.0309899
0.031022
0.0310523
0.0310899
0.031127
0.0311682
0.0312141
0.0312541
0.0313144
0.03135
0.0314266
0.0314538
0.0315542
0.0315745
0.0317038
0.030876
0.0308789
0.0308845
0.0308946
0.0309063
0.0309223
0.030941
0.0309621
0.0309885
0.031014
0.0310477
0.0310787
0.0311182
0.0311562
0.0311996
0.0312468
0.0312891
0.031352
0.0313877
0.031468
0.0314955
0.0315946
0.031613
0.0317345
0.0309047
0.0309076
0.0309129
0.0309228
0.0309341
0.0309497
0.0309679
0.0309883
0.0310142
0.0310387
0.031072
0.0311016
0.0311407
0.031177
0.0312201
0.0312654
0.0313074
0.0313703
0.0314015
0.0314841
0.0315092
0.031607
0.0316242
0.0317369
0.0309441
0.030947
0.0309524
0.0309623
0.0309735
0.0309892
0.0310073
0.0310279
0.0310535
0.0310784
0.0311112
0.0311413
0.0311801
0.0312165
0.0312597
0.0313044
0.0313483
0.0314082
0.031443
0.0315235
0.0315503
0.0316475
0.0316663
0.0317806
0.0309936
0.0309965
0.0310017
0.0310116
0.0310226
0.0310382
0.0310558
0.0310763
0.0311014
0.0311261
0.0311583
0.0311881
0.0312263
0.0312623
0.031305
0.0313488
0.0313931
0.03145
0.0314881
0.0315647
0.0315924
0.0316884
0.0317081
0.0318239
0.0310535
0.0310564
0.0310616
0.0310714
0.0310822
0.0310978
0.0311152
0.0311355
0.0311603
0.0311848
0.0312168
0.0312463
0.0312842
0.0313198
0.0313624
0.0314053
0.0314499
0.0315051
0.0315442
0.0316189
0.0316479
0.0317421
0.0317622
0.031876
0.0311237
0.0311265
0.0311316
0.0311414
0.031152
0.0311674
0.0311846
0.0312047
0.0312292
0.0312534
0.0312849
0.0313141
0.0313515
0.0313865
0.0314289
0.0314709
0.0315155
0.0315689
0.0316091
0.0316811
0.0317112
0.0318039
0.0318244
0.031937
0.0312042
0.031207
0.031212
0.0312217
0.0312322
0.0312475
0.0312644
0.0312843
0.0313085
0.0313324
0.0313635
0.0313922
0.0314293
0.0314637
0.0315058
0.0315469
0.0315915
0.0316433
0.0316843
0.0317539
0.031785
0.0318757
0.0318967
0.0320074
0.031295
0.0312978
0.0313027
0.0313124
0.0313227
0.0313378
0.0313544
0.0313742
0.0313979
0.0314216
0.0314522
0.0314805
0.0315171
0.0315509
0.0315926
0.0316328
0.0316773
0.0317274
0.0317691
0.0318364
0.0318686
0.0319566
0.0319783
0.0320872
0.0313963
0.0313991
0.0314039
0.0314134
0.0314236
0.0314385
0.0314549
0.0314744
0.0314978
0.0315211
0.0315513
0.0315791
0.0316153
0.0316484
0.0316896
0.0317289
0.0317732
0.0318218
0.031864
0.0319288
0.0319616
0.0320476
0.0320696
0.0321764
0.031508
0.0315108
0.0315155
0.031525
0.0315349
0.0315497
0.0315657
0.031585
0.031608
0.0316309
0.0316607
0.031688
0.0317236
0.031756
0.0317968
0.0318351
0.031879
0.0319262
0.0319687
0.0320312
0.0320649
0.0321479
0.0321704
0.0322751
0.0316303
0.0316331
0.0316377
0.031647
0.0316567
0.0316713
0.0316871
0.031706
0.0317286
0.0317511
0.0317804
0.0318072
0.0318423
0.031874
0.0319142
0.0319515
0.031995
0.0320407
0.0320836
0.0321436
0.0321777
0.0322585
0.032281
0.0323834
0.0317632
0.031766
0.0317705
0.0317797
0.0317892
0.0318035
0.0318189
0.0318375
0.0318597
0.0318818
0.0319106
0.0319368
0.0319713
0.0320022
0.0320419
0.0320782
0.0321212
0.0321654
0.0322084
0.032266
0.0323007
0.0323789
0.0324014
0.0325014
0.0319068
0.0319095
0.031914
0.031923
0.0319323
0.0319464
0.0319614
0.0319797
0.0320014
0.032023
0.0320512
0.0320768
0.0321107
0.0321409
0.0321799
0.0322151
0.0322576
0.0323003
0.0323433
0.0323985
0.0324337
0.0325091
0.0325317
0.0326292
0.0320612
0.0320639
0.0320682
0.0320772
0.0320861
0.0321
0.0321147
0.0321325
0.0321537
0.0321748
0.0322024
0.0322274
0.0322606
0.0322899
0.0323283
0.0323625
0.0324044
0.0324455
0.0324883
0.0325411
0.0325767
0.0326492
0.0326723
0.0327669
0.0322265
0.0322292
0.0322333
0.0322421
0.0322509
0.0322645
0.0322787
0.0322962
0.0323168
0.0323373
0.0323643
0.0323886
0.0324211
0.0324495
0.0324872
0.0325202
0.0325615
0.0326011
0.0326435
0.0326939
0.0327299
0.0327994
0.032823
0.0329146
0.0324027
0.0324054
0.0324094
0.0324181
0.0324265
0.0324398
0.0324536
0.0324707
0.0324908
0.0325107
0.032537
0.0325605
0.0325922
0.0326197
0.0326566
0.0326885
0.032729
0.0327671
0.0328091
0.032857
0.0328934
0.0329599
0.0329837
0.0330723
0.0325901
0.0325927
0.0325966
0.0326051
0.0326132
0.0326262
0.0326396
0.0326562
0.0326757
0.0326949
0.0327205
0.0327432
0.0327741
0.0328006
0.0328366
0.0328673
0.032907
0.0329436
0.032985
0.0330306
0.0330671
0.0331306
0.0331548
0.0332402
0.0327887
0.0327913
0.032795
0.0328033
0.0328111
0.0328238
0.0328366
0.0328527
0.0328716
0.0328902
0.032915
0.0329368
0.0329669
0.0329924
0.0330274
0.0330568
0.0330956
0.0331306
0.0331714
0.0332146
0.0332513
0.0333116
0.0333361
0.0334183
0.0329985
0.0330011
0.0330047
0.0330128
0.0330202
0.0330325
0.0330448
0.0330604
0.0330786
0.0330965
0.0331206
0.0331415
0.0331707
0.033195
0.0332291
0.0332572
0.033295
0.0333283
0.0333684
0.0334092
0.0334458
0.0335031
0.0335278
0.0336068
0.0332198
0.0332223
0.0332257
0.0332336
0.0332407
0.0332526
0.0332644
0.0332794
0.0332969
0.0333141
0.0333373
0.0333573
0.0333855
0.0334087
0.0334418
0.0334684
0.0335053
0.0335368
0.0335761
0.0336146
0.0336511
0.033705
0.03373
0.0338056
0.0334526
0.0334551
0.0334583
0.033466
0.0334726
0.0334841
0.0334953
0.0335098
0.0335265
0.0335429
0.0335652
0.0335843
0.0336115
0.0336336
0.0336655
0.0336908
0.0337265
0.0337563
0.0337946
0.0338308
0.033867
0.0339177
0.0339428
0.0340148
0.033697
0.0336994
0.0337025
0.0337099
0.0337161
0.0337272
0.0337378
0.0337516
0.0337676
0.0337832
0.0338046
0.0338227
0.0338488
0.0338697
0.0339005
0.0339243
0.0339589
0.0339868
0.0340241
0.0340579
0.0340938
0.0341411
0.0341663
0.0342345
0.0339531
0.0339555
0.0339583
0.0339655
0.0339713
0.0339819
0.0339919
0.0340051
0.0340202
0.034035
0.0340554
0.0340724
0.0340976
0.0341171
0.0341468
0.0341691
0.0342025
0.0342286
0.0342648
0.0342962
0.0343316
0.0343757
0.0344007
0.034465
0.0342209
0.0342233
0.0342259
0.0342328
0.0342382
0.0342484
0.0342577
0.0342702
0.0342846
0.0342985
0.0343179
0.0343338
0.0343578
0.0343761
0.0344045
0.0344253
0.0344574
0.0344817
0.0345167
0.0345457
0.0345805
0.0346212
0.0346462
0.0347064
0.0345006
0.0345029
0.0345053
0.034512
0.034517
0.0345267
0.0345354
0.0345472
0.0345607
0.0345737
0.0345921
0.0346069
0.0346297
0.0346466
0.0346738
0.034693
0.0347238
0.0347462
0.03478
0.0348067
0.0348406
0.0348779
0.0349029
0.0349592
0.0347923
0.0347945
0.0347967
0.0348031
0.0348077
0.0348169
0.0348249
0.0348361
0.0348487
0.0348608
0.0348781
0.0348917
0.0349134
0.0349289
0.0349548
0.0349723
0.0350018
0.0350223
0.0350548
0.0350792
0.0351122
0.0351458
0.0351709
0.0352231
0.0350959
0.0350981
0.0351001
0.0351062
0.0351103
0.0351191
0.0351265
0.0351369
0.0351487
0.0351598
0.0351761
0.0351886
0.035209
0.035223
0.0352476
0.0352635
0.0352916
0.0353101
0.0353412
0.0353632
0.0353952
0.0354254
0.0354503
0.0354982
0.0354117
0.0354138
0.0354156
0.0354215
0.0354251
0.0354335
0.0354401
0.0354499
0.0354607
0.0354709
0.0354862
0.0354974
0.0355166
0.0355292
0.0355524
0.0355666
0.0355932
0.0356097
0.0356395
0.035659
0.0356899
0.0357165
0.0357411
0.0357851
0.0357397
0.0357418
0.0357433
0.0357489
0.0357521
0.03576
0.0357659
0.035775
0.0357849
0.0357942
0.0358084
0.0358185
0.0358364
0.0358475
0.0358693
0.0358818
0.0359069
0.0359213
0.0359496
0.0359667
0.0359964
0.0360197
0.0360442
0.0360836
0.03608
0.036082
0.0360834
0.0360887
0.0360914
0.0360988
0.036104
0.0361124
0.0361214
0.0361298
0.0361429
0.0361518
0.0361685
0.0361781
0.0361985
0.0362092
0.0362329
0.0362451
0.0362719
0.0362865
0.0363149
0.0363349
0.0363591
0.0363939
0.0364327
0.0364346
0.0364358
0.0364408
0.0364431
0.0364499
0.0364545
0.0364621
0.0364703
0.0364777
0.0364897
0.0364974
0.0365129
0.0365211
0.03654
0.036549
0.0365712
0.0365813
0.0366065
0.0366185
0.0366455
0.0366624
0.0366862
0.0367165
0.0367978
0.0367997
0.0368007
0.0368055
0.0368072
0.0368136
0.0368175
0.0368244
0.0368317
0.0368381
0.036849
0.0368555
0.0368697
0.0368765
0.036894
0.0369013
0.036922
0.03693
0.0369537
0.036963
0.0369887
0.037002
0.0370257
0.037051
0.0371755
0.0371774
0.0371781
0.0371826
0.037184
0.0371899
0.037193
0.0371993
0.0372056
0.0372111
0.0372209
0.0372262
0.0372392
0.0372444
0.0372606
0.0372661
0.0372853
0.0372912
0.0373134
0.0373202
0.0373443
0.0373545
0.0373774
0.0373981
0.0375659
0.0375677
0.0375682
0.0375725
0.0375733
0.0375788
0.0375813
0.0375868
0.0375923
0.0375968
0.0376055
0.0376096
0.0376213
0.0376251
0.0376399
0.0376436
0.0376613
0.0376651
0.0376859
0.03769
0.0377128
0.0377196
0.0377416
0.0377577
0.037969
0.0379707
0.0379711
0.0379751
0.0379755
0.0379805
0.0379823
0.0379872
0.0379917
0.0379953
0.038003
0.0380058
0.0380163
0.0380185
0.0380319
0.0380339
0.0380501
0.0380517
0.0380711
0.0380727
0.0380941
0.0380979
0.0381187
0.0381298
0.0383849
0.0383867
0.0383868
0.0383906
0.0383905
0.0383951
0.0383963
0.0384004
0.0384041
0.0384068
0.0384134
0.038415
0.0384242
0.038425
0.0384369
0.0384371
0.0384518
0.0384513
0.0384692
0.0384681
0.0384883
0.0384888
0.0385086
0.0385149
0.0388139
0.0388155
0.0388155
0.038819
0.0388186
0.0388227
0.0388232
0.0388267
0.0388295
0.0388313
0.0388368
0.0388373
0.0388452
0.0388445
0.0388551
0.0388534
0.0388666
0.0388638
0.0388802
0.0388766
0.0388953
0.0388928
0.0389116
0.0389131
0.0392559
0.0392576
0.0392573
0.0392606
0.0392597
0.0392634
0.0392632
0.0392661
0.039268
0.0392689
0.0392734
0.0392727
0.0392794
0.0392772
0.0392864
0.0392829
0.0392946
0.0392896
0.0393045
0.0392981
0.0393154
0.0393097
0.0393274
0.0393249
0.0397112
0.0397128
0.0397123
0.0397154
0.0397141
0.0397173
0.0397165
0.0397187
0.0397198
0.0397197
0.0397232
0.0397213
0.0397268
0.0397232
0.039731
0.0397257
0.039736
0.0397286
0.0397421
0.039733
0.0397487
0.0397398
0.0397562
0.0397499
0.0401798
0.0401814
0.0401807
0.0401836
0.0401818
0.0401846
0.0401831
0.0401847
0.0401849
0.0401839
0.0401863
0.0401833
0.0401876
0.0401825
0.040189
0.0401819
0.0401907
0.0401812
0.0401932
0.0401813
0.0401957
0.0401832
0.0401986
0.0401879
0.040662
0.0406635
0.0406626
0.0406652
0.040663
0.0406654
0.0406632
0.0406641
0.0406634
0.0406615
0.0406629
0.0406587
0.0406618
0.0406552
0.0406604
0.0406515
0.040659
0.0406472
0.0406578
0.0406431
0.0406563
0.0406402
0.0406547
0.0406393
0.0411577
0.0411592
0.0411581
0.0411605
0.0411577
0.0411597
0.0411568
0.0411571
0.0411555
0.0411527
0.041153
0.0411476
0.0411495
0.0411414
0.0411453
0.0411346
0.0411408
0.0411267
0.041136
0.0411185
0.0411306
0.0411108
0.0411247
0.0411045
0.041667
0.0416685
0.0416672
0.0416694
0.0416662
0.0416677
0.0416641
0.0416637
0.0416613
0.0416575
0.0416568
0.0416502
0.0416508
0.0416413
0.0416438
0.0416313
0.0416361
0.0416198
0.0416278
0.0416075
0.0416186
0.0415951
0.0416085
0.0415838
0.0421902
0.0421916
0.0421901
0.042192
0.0421884
0.0421895
0.0421852
0.0421841
0.0421807
0.0421761
0.0421743
0.0421665
0.0421659
0.0421549
0.042156
0.0421416
0.0421451
0.0421266
0.0421332
0.04211
0.0421204
0.042093
0.0421062
0.0420765
0.0427271
0.0427285
0.0427268
0.0427285
0.0427244
0.042725
0.04272
0.0427183
0.042714
0.0427084
0.0427055
0.0426965
0.0426947
0.0426822
0.042682
0.0426657
0.0426679
0.042647
0.0426525
0.0426262
0.042636
0.0426045
0.0426179
0.0425828
0.0432779
0.0432793
0.0432773
0.0432788
0.0432742
0.0432744
0.0432687
0.0432663
0.0432611
0.0432546
0.0432506
0.0432404
0.0432374
0.0432234
0.0432219
0.0432037
0.0432046
0.0431812
0.0431857
0.043156
0.0431653
0.0431296
0.0431434
0.0431032
0.0438425
0.0438439
0.0438417
0.0438429
0.0438379
0.0438377
0.0438313
0.0438281
0.0438221
0.0438146
0.0438096
0.0437982
0.043794
0.0437784
0.0437757
0.0437555
0.0437552
0.0437292
0.043733
0.0436999
0.0437089
0.0436687
0.0436827
0.0436375
0.044421
0.0444223
0.0444199
0.0444209
0.0444154
0.0444147
0.0444077
0.0444039
0.0443969
0.0443885
0.0443825
0.0443698
0.0443645
0.0443473
0.0443434
0.0443212
0.0443198
0.044291
0.0442944
0.0442577
0.0442667
0.0442215
0.0442361
0.044186
0.0450132
0.0450144
0.0450119
0.0450127
0.0450067
0.0450056
0.0449979
0.0449934
0.0449856
0.0449762
0.0449692
0.0449553
0.0449488
0.0449301
0.0449251
0.0449008
0.0448985
0.0448668
0.0448697
0.0448292
0.0448389
0.0447887
0.0448032
0.0447485
0.0456191
0.0456203
0.0456176
0.0456181
0.0456117
0.0456102
0.0456018
0.0455967
0.045588
0.0455777
0.0455698
0.0455546
0.0455471
0.0455266
0.0455208
0.0454942
0.0454912
0.0454565
0.0454593
0.0454149
0.0454242
0.0453705
0.0453843
0.0453254
0.0462385
0.0462397
0.0462368
0.0462371
0.0462303
0.0462284
0.0462193
0.0462136
0.0462041
0.0461929
0.0461841
0.0461676
0.0461593
0.0461369
0.0461305
0.0461014
0.0460981
0.0460599
0.0460635
0.0460143
0.0460239
0.0459663
0.0459797
0.0459164
0.0468714
0.0468725
0.0468694
0.0468695
0.0468623
0.0468601
0.0468503
0.046844
0.0468338
0.0468217
0.0468121
0.0467941
0.0467852
0.0467609
0.0467542
0.0467223
0.0467193
0.0466775
0.0466806
0.0466287
0.046637
0.0465766
0.0465892
0.0465219
0.0475174
0.0475186
0.0475153
0.0475153
0.0475076
0.047505
0.0474947
0.0474878
0.047477
0.0474638
0.0474537
0.0474341
0.0474251
0.0473983
0.0473919
0.0473567
0.0473544
0.0473087
0.0473119
0.0472573
0.0472644
0.0472009
0.0472128
0.0471416
0.0481765
0.0481777
0.0481743
0.0481741
0.048166
0.0481632
0.0481523
0.0481448
0.0481334
0.0481191
0.0481089
0.0480872
0.0480787
0.048049
0.0480433
0.0480048
0.0480023
0.0479551
0.0479564
0.0478997
0.0479059
0.0478396
0.0478507
0.0477756
0.0488484
0.0488497
0.048846
0.0488458
0.0488373
0.0488343
0.0488228
0.0488147
0.0488032
0.0487873
0.0487776
0.0487535
0.0487456
0.0487137
0.0487071
0.0486678
0.0486635
0.0486149
0.048615
0.0485563
0.0485612
0.0484923
0.0485025
0.0484239
0.0495329
0.0495344
0.0495302
0.0495303
0.0495211
0.0495182
0.0495061
0.0494973
0.049486
0.0494685
0.0494588
0.0494337
0.0494247
0.049392
0.0493845
0.0493438
0.0493384
0.0492883
0.0492873
0.0492266
0.0492304
0.0491589
0.0491686
0.0490864
0.0502299
0.0502313
0.0502269
0.0502272
0.0502173
0.0502146
0.0502018
0.0501929
0.0501808
0.0501631
0.0501526
0.0501267
0.050117
0.0500835
0.0500748
0.0500331
0.0500266
0.0499754
0.0499729
0.0499106
0.0499134
0.0498396
0.0498483
0.049763
0.0509389
0.0509405
0.0509361
0.050936
0.0509262
0.0509231
0.0509097
0.0509014
0.0508879
0.0508702
0.0508589
0.0508326
0.050822
0.0507878
0.0507782
0.0507356
0.0507279
0.0506755
0.050672
0.0506083
0.0506097
0.0505338
0.0505419
0.0504534
0.05166
0.0516616
0.0516572
0.051657
0.0516471
0.0516439
0.05163
0.051622
0.0516069
0.0515902
0.0515774
0.051551
0.0515397
0.0515048
0.0514944
0.0514508
0.0514423
0.0513888
0.0513842
0.051319
0.0513197
0.0512416
0.0512489
0.0511576
0.052393
0.0523946
0.0523902
0.05239
0.0523799
0.0523766
0.0523624
0.0523543
0.0523384
0.0523223
0.0523077
0.0522822
0.0522696
0.0522343
0.052223
0.0521788
0.0521694
0.052115
0.0521091
0.052043
0.0520423
0.0519627
0.0519693
0.0518753
0.0531377
0.0531393
0.0531349
0.0531347
0.0531245
0.0531211
0.0531067
0.0530986
0.053082
0.0530662
0.0530504
0.0530254
0.0530112
0.0529762
0.052964
0.0529192
0.0529089
0.0528533
0.0528469
0.0527794
0.052778
0.0526966
0.0527024
0.0526061
0.0538941
0.0538957
0.0538913
0.0538911
0.0538808
0.0538774
0.0538627
0.0538546
0.0538375
0.0538219
0.0538051
0.0537805
0.0537649
0.0537303
0.0537168
0.0536716
0.0536606
0.0536043
0.0535965
0.0535283
0.0535258
0.0534432
0.0534483
0.0533497
0.0546621
0.0546639
0.0546594
0.0546592
0.0546487
0.0546453
0.0546304
0.0546222
0.0546047
0.0545893
0.0545716
0.0545471
0.0545307
0.0544957
0.0544813
0.054436
0.054424
0.0543666
0.0543585
0.0542891
0.0542858
0.0542018
0.0542062
0.0541057
0.0554419
0.0554437
0.0554391
0.055439
0.0554283
0.0554249
0.0554097
0.0554014
0.0553834
0.0553681
0.0553496
0.0553252
0.0553077
0.0552727
0.0552572
0.0552116
0.0551989
0.0551409
0.0551317
0.0550614
0.0550573
0.0549722
0.0549759
0.0548737
0.0562333
0.0562352
0.0562305
0.0562304
0.0562195
0.0562161
0.0562005
0.0561921
0.0561735
0.0561582
0.0561387
0.0561144
0.0560959
0.0560608
0.0560444
0.0559983
0.0559847
0.0559261
0.0559164
0.0558449
0.0558401
0.0557539
0.0557569
0.0556533
0.0570364
0.0570384
0.0570335
0.0570334
0.0570222
0.0570186
0.0570026
0.0569939
0.0569748
0.0569593
0.0569388
0.0569145
0.0568949
0.0568595
0.0568425
0.0567955
0.0567813
0.0567222
0.0567116
0.0566392
0.0566335
0.0565466
0.0565489
0.056444
0.0578509
0.0578529
0.0578479
0.0578477
0.0578361
0.0578322
0.0578157
0.0578067
0.0577869
0.057771
0.0577493
0.0577253
0.0577041
0.0576689
0.0576507
0.057603
0.0575882
0.0575286
0.0575171
0.0574439
0.0574376
0.0573499
0.0573515
0.0572456
0.0586762
0.0586783
0.058673
0.0586726
0.0586606
0.0586564
0.0586393
0.0586298
0.0586093
0.0585929
0.0585701
0.0585461
0.0585232
0.0584885
0.0584688
0.0584207
0.0584051
0.0583448
0.0583325
0.0582591
0.0582518
0.0581636
0.0581646
0.0580578
0.0595114
0.0595135
0.059508
0.0595073
0.059495
0.0594903
0.0594726
0.0594625
0.0594413
0.0594243
0.0594006
0.0593766
0.0593519
0.0593178
0.0592959
0.0592486
0.0592315
0.0591707
0.0591578
0.0590844
0.0590763
0.0589876
0.0589878
0.0588806
0.0603547
0.0603568
0.0603513
0.0603503
0.0603378
0.0603326
0.0603146
0.060304
0.0602822
0.0602647
0.0602401
0.060216
0.0601897
0.0601564
0.0601321
0.0600862
0.0600672
0.0600066
0.0599929
0.0599199
0.0599105
0.0598218
0.0598216
0.0597139
0.0612042
0.0612063
0.0612008
0.0611998
0.0611872
0.0611819
0.0611637
0.0611529
0.0611308
0.0611131
0.0610881
0.0610639
0.0610366
0.061004
0.0609778
0.0609333
0.0609123
0.0608524
0.0608376
0.0607649
0.060755
0.0606665
0.0606657
0.060558
0.0620576
0.0620598
0.0620545
0.0620536
0.0620413
0.0620363
0.0620183
0.0620078
0.061986
0.0619686
0.0619436
0.0619198
0.0618919
0.0618603
0.0618326
0.0617896
0.0617661
0.0617092
0.0616919
0.0616203
0.0616097
0.0615218
0.0615208
0.0614131
0.062913
0.0629153
0.0629104
0.06291
0.0628983
0.0628941
0.0628769
0.0628673
0.0628464
0.0628299
0.0628057
0.0627829
0.0627554
0.062725
0.0626967
0.0626557
0.0626307
0.0625752
0.0625573
0.0624857
0.0624755
0.0623877
0.0623867
0.0622795
0.0637695
0.063772
0.0637677
0.0637681
0.0637573
0.0637543
0.0637385
0.0637303
0.063711
0.0636961
0.0636736
0.0636524
0.0636262
0.0635977
0.06357
0.0635311
0.0635057
0.0634527
0.0634333
0.0633626
0.0633523
0.0632648
0.063264
0.0631571
0.0646281
0.0646309
0.0646271
0.0646286
0.0646189
0.0646174
0.0646031
0.0645969
0.0645795
0.0645669
0.0645465
0.0645278
0.0645037
0.0644777
0.0644516
0.0644155
0.0643904
0.0643405
0.0643202
0.0642525
0.0642414
0.0641537
0.0641531
0.0640462
0.0654919
0.065495
0.0654918
0.0654942
0.0654855
0.0654856
0.0654728
0.0654686
0.0654532
0.0654429
0.0654249
0.065409
0.0653873
0.0653642
0.0653408
0.0653075
0.0652847
0.0652377
0.0652192
0.0651531
0.0651432
0.0650557
0.0650553
0.0649473
0.0663666
0.0663703
0.0663671
0.0663705
0.0663622
0.0663637
0.0663516
0.0663493
0.066335
0.0663269
0.0663106
0.0662972
0.0662776
0.0662573
0.0662372
0.0662058
0.0661874
0.0661411
0.0661282
0.0660626
0.0660571
0.0659704
0.0659713
0.0658627
0.06726
0.0672644
0.0672604
0.0672652
0.0672556
0.0672589
0.0672453
0.0672453
0.0672296
0.0672239
0.0672072
0.0671958
0.0671772
0.0671583
0.0671422
0.0671083
0.0670995
0.0670477
0.0670453
0.0669774
0.0669787
0.0668945
0.0668989
0.066796
0.0681815
0.0681854
0.0681821
0.068185
0.0681765
0.0681771
0.0681647
0.0681614
0.0681471
0.0681386
0.0681224
0.0681098
0.0680905
0.0680734
0.0680547
0.0680234
0.0680147
0.0679645
0.0679639
0.0678977
0.0679028
0.0678202
0.0678295
0.0677343
0.0691391
0.0691428
0.0691389
0.0691409
0.0691308
0.0691297
0.0691151
0.0691097
0.0690926
0.0690815
0.0690625
0.0690471
0.069025
0.0690062
0.0689826
0.0689547
0.0689382
0.0688923
0.068889
0.0688225
0.0688296
0.0687454
0.068758
0.0686631
0.0701396
0.070143
0.0701382
0.0701389
0.0701267
0.0701233
0.0701057
0.0700969
0.0700758
0.0700604
0.0700367
0.0700165
0.0699894
0.0699656
0.0699362
0.0699052
0.0698818
0.0698357
0.0698253
0.0697567
0.0697637
0.0696744
0.0696895
0.0695904
0.0711862
0.0711899
0.0711835
0.0711833
0.0711686
0.0711629
0.0711415
0.0711292
0.0711031
0.0710831
0.0710531
0.0710272
0.0709927
0.0709622
0.0709245
0.0708864
0.0708547
0.0708007
0.0707853
0.0707069
0.0707116
0.0706137
0.0706294
0.070522
0.072279
0.0722831
0.0722751
0.0722743
0.0722571
0.0722497
0.0722243
0.0722096
0.0721775
0.0721548
0.0721164
0.0720867
0.0720423
0.0720051
0.071958
0.0719101
0.0718701
0.0718011
0.0717782
0.0716867
0.0716837
0.0715723
0.0715856
0.0714644
0.0734146
0.073418
0.0734108
0.0734077
0.0733903
0.0733798
0.0733536
0.0733342
0.0733011
0.0732713
0.0732317
0.073193
0.0731453
0.0730993
0.0730434
0.0729896
0.0729318
0.0728582
0.0728176
0.0727131
0.0726957
0.0725658
0.0725707
0.0724276
0.0745864
0.0745897
0.0745823
0.0745787
0.0745605
0.074549
0.0745215
0.0745005
0.0744653
0.0744332
0.0743905
0.0743484
0.0742966
0.0742455
0.0741841
0.0741233
0.0740544
0.07398
0.0739118
0.0738094
0.0737654
0.0736179
0.0736064
0.0734301
0.0757866
0.0757897
0.0757824
0.0757787
0.0757603
0.0757486
0.0757206
0.0756991
0.0756632
0.0756302
0.0755866
0.0755431
0.0754897
0.0754366
0.0753725
0.0753087
0.0752357
0.0751573
0.0750787
0.074978
0.0749046
0.0747601
0.0747214
0.0745075
0.0770062
0.0770094
0.0770023
0.0769989
0.0769807
0.0769695
0.0769418
0.0769207
0.0768853
0.0768527
0.0768095
0.0767664
0.0767135
0.0766608
0.0765973
0.0765338
0.076461
0.076383
0.0763035
0.0762044
0.0761251
0.0759887
0.0759325
0.0757069
0.0782367
0.0782402
0.0782334
0.0782306
0.0782129
0.0782026
0.0781756
0.0781558
0.0781213
0.0780902
0.0780485
0.0780072
0.077956
0.0779054
0.077844
0.0777832
0.0777129
0.0776378
0.077564
0.0774655
0.0773984
0.0772603
0.0772207
0.0770223
0.0794702
0.079474
0.0794675
0.0794655
0.0794485
0.0794394
0.0794136
0.0793953
0.0793625
0.0793334
0.0792936
0.0792549
0.0792062
0.0791587
0.0791005
0.0790433
0.0789769
0.0789065
0.0788365
0.0787446
0.078683
0.0785524
0.0785159
0.078332
0.0806994
0.0807036
0.0806976
0.0806964
0.0806802
0.0806725
0.0806479
0.0806316
0.0806005
0.0805739
0.0805364
0.0805007
0.0804549
0.080411
0.0803563
0.0803034
0.080241
0.080176
0.0801109
0.0800255
0.0799682
0.0798476
0.0798133
0.0796432
0.0819184
0.0819232
0.0819173
0.0819173
0.0819017
0.0818957
0.0818723
0.0818582
0.0818289
0.0818051
0.0817698
0.0817376
0.0816945
0.0816548
0.0816036
0.0815552
0.0814974
0.081438
0.0813768
0.0812987
0.0812464
0.0811351
0.0811032
0.0809469
0.0831224
0.0831276
0.0831214
0.0831231
0.0831077
0.083104
0.0830812
0.0830701
0.0830416
0.0830218
0.0829876
0.0829603
0.0829186
0.0828846
0.0828355
0.0827931
0.0827387
0.0826852
0.0826294
0.0825572
0.0825092
0.0824081
0.0823782
0.0822356
0.0843069
0.0843122
0.0843064
0.0843093
0.0842942
0.0842926
0.0842704
0.0842624
0.0842346
0.084219
0.0841855
0.0841636
0.0841227
0.0840953
0.084047
0.0840123
0.0839597
0.0839129
0.0838618
0.0837957
0.083752
0.0836607
0.0836331
0.0835039
0.0854683
0.0854736
0.0854687
0.0854715
0.0854586
0.0854568
0.0854379
0.0854298
0.0854063
0.0853908
0.0853624
0.0853412
0.0853057
0.0852801
0.0852371
0.0852058
0.0851579
0.0851171
0.0850689
0.0850103
0.0849708
0.0848892
0.0848634
0.0847472
0.0866038
0.0866092
0.0866049
0.0866081
0.0865965
0.0865956
0.0865786
0.0865717
0.0865511
0.0865368
0.0865124
0.0864925
0.086462
0.0864379
0.0864007
0.0863718
0.0863294
0.0862933
0.086248
0.0861992
0.0861619
0.0860895
0.0860658
0.0859621
0.087711
0.0877166
0.0877128
0.0877166
0.087706
0.0877062
0.0876907
0.0876854
0.0876669
0.0876546
0.0876332
0.0876154
0.0875888
0.0875672
0.0875345
0.0875088
0.0874711
0.0874392
0.0873989
0.087358
0.0873215
0.0872588
0.0872373
0.0871457
0.0887884
0.0887939
0.0887906
0.0887949
0.0887852
0.0887865
0.0887724
0.0887686
0.0887522
0.0887418
0.088723
0.0887077
0.0886844
0.0886656
0.0886368
0.0886146
0.0885812
0.0885543
0.0885175
0.0884829
0.0884489
0.0883954
0.0883763
0.0882961
0.0898342
0.0898397
0.0898367
0.0898417
0.0898326
0.0898351
0.0898222
0.0898201
0.0898054
0.0897969
0.0897806
0.0897676
0.0897474
0.0897314
0.0897062
0.0896873
0.0896581
0.0896349
0.0896028
0.0895738
0.0895423
0.0894977
0.0894807
0.0894113
0.0908474
0.0908528
0.0908503
0.0908554
0.0908476
0.0908505
0.0908393
0.0908382
0.0908256
0.0908188
0.0908048
0.090794
0.0907766
0.0907633
0.0907415
0.0907259
0.0907004
0.0906814
0.0906531
0.090629
0.090601
0.0905652
0.0905483
0.09049
0.0918271
0.0918326
0.09183
0.0918363
0.0918281
0.0918332
0.091822
0.0918232
0.0918114
0.0918068
0.0917947
0.0917861
0.0917714
0.0917606
0.091742
0.0917294
0.0917075
0.0916919
0.0916677
0.0916483
0.0916236
0.0915953
0.0915799
0.0915311
0.092773
0.0927781
0.0927765
0.092782
0.0927761
0.0927801
0.0927718
0.0927726
0.0927635
0.0927598
0.0927501
0.0927433
0.0927311
0.0927227
0.092707
0.0926973
0.0926788
0.0926668
0.092646
0.0926306
0.0926099
0.0925877
0.0925741
0.0925339
0.0936844
0.09369
0.0936875
0.093695
0.0936876
0.0936948
0.093685
0.0936891
0.0936797
0.0936787
0.0936702
0.0936656
0.0936555
0.0936494
0.0936365
0.0936294
0.0936139
0.0936051
0.0935878
0.0935767
0.0935591
0.0935422
0.09353
0.0934986
0.0945619
0.0945667
0.0945655
0.094572
0.0945667
0.0945728
0.0945657
0.0945692
0.0945626
0.0945618
0.0945557
0.0945524
0.0945447
0.0945406
0.0945301
0.0945255
0.094513
0.0945072
0.094493
0.0944853
0.0944712
0.0944592
0.0944482
0.0944251
0.0954047
0.09541
0.0954087
0.095415
0.0954112
0.0954167
0.0954115
0.0954155
0.09541
0.0954109
0.0954059
0.0954045
0.0953986
0.0953964
0.0953883
0.0953861
0.095376
0.095373
0.0953615
0.0953576
0.095346
0.095338
0.0953298
0.0953136
0.0962143
0.096219
0.0962175
0.0962258
0.0962194
0.0962291
0.0962211
0.0962287
0.0962225
0.0962255
0.0962217
0.0962218
0.0962176
0.0962173
0.0962113
0.0962111
0.0962036
0.0962032
0.0961945
0.0961932
0.0961844
0.0961806
0.096174
0.0961647
0.0969896
0.0969943
0.0969947
0.0969987
0.0969996
0.0970017
0.0970025
0.097004
0.0970038
0.0970049
0.0970038
0.0970047
0.0970023
0.0970036
0.0969996
0.0970014
0.096996
0.0969979
0.0969915
0.0969936
0.096987
0.0969869
0.0969827
0.0969786
0.0977329
0.0977375
0.0977357
0.0977452
0.0977382
0.0977507
0.097742
0.097753
0.0977469
0.0977534
0.097751
0.0977544
0.097753
0.0977559
0.0977536
0.0977572
0.0977539
0.097758
0.0977539
0.0977582
0.0977542
0.0977577
0.097755
0.0977561
0.098443
0.0984471
0.0984488
0.0984514
0.098455
0.0984554
0.0984603
0.09846
0.0984643
0.0984651
0.0984676
0.0984701
0.0984709
0.0984749
0.0984743
0.0984795
0.0984779
0.0984839
0.0984817
0.0984889
0.0984865
0.0984931
0.0984922
0.0984977
0.0991224
0.0991267
0.0991256
0.0991342
0.0991294
0.0991409
0.0991345
0.099146
0.0991416
0.0991501
0.0991492
0.0991551
0.0991558
0.0991615
0.0991622
0.0991688
0.0991689
0.0991768
0.0991763
0.0991854
0.0991848
0.0991946
0.0991945
0.0992042
0.0997706
0.099774
0.0997762
0.0997789
0.0997825
0.0997843
0.0997895
0.0997904
0.0997963
0.0997982
0.0998028
0.099807
0.0998101
0.0998163
0.0998185
0.0998263
0.0998278
0.0998372
0.0998382
0.0998494
0.0998502
0.0998622
0.0998637
0.0998767
0.100389
0.100393
0.100393
0.1004
0.100398
0.100407
0.100405
0.100414
0.100413
0.100421
0.100423
0.10043
0.100433
0.100441
0.100444
0.100453
0.100456
0.100466
0.100469
0.100482
0.100483
0.100498
0.1005
0.100516
0.100979
0.100982
0.100984
0.100987
0.10099
0.100994
0.100998
0.101002
0.101007
0.101011
0.101016
0.101023
0.101027
0.101035
0.101039
0.101049
0.101053
0.101065
0.101069
0.101083
0.101086
0.101103
0.101106
0.101125
0.101541
0.101544
0.101545
0.10155
0.101551
0.101557
0.101559
0.101565
0.101569
0.101576
0.10158
0.101587
0.101592
0.101601
0.101606
0.101617
0.101622
0.101635
0.101639
0.101655
0.101659
0.101678
0.101681
0.101703
0.102076
0.102078
0.102081
0.102083
0.102087
0.102091
0.102095
0.102101
0.102105
0.102112
0.102117
0.102125
0.10213
0.10214
0.102146
0.102157
0.102163
0.102177
0.102182
0.102199
0.102204
0.102224
0.102228
0.102251
0.102585
0.102587
0.102589
0.102594
0.102595
0.102601
0.102604
0.10261
0.102615
0.102622
0.102627
0.102636
0.102642
0.102652
0.102658
0.102671
0.102677
0.102692
0.102698
0.102716
0.102721
0.102742
0.102746
0.102773
0.103069
0.103071
0.103074
0.103075
0.103082
0.103083
0.10309
0.103094
0.1031
0.103107
0.103113
0.103121
0.103128
0.103139
0.103146
0.103158
0.103165
0.103181
0.103188
0.103206
0.103213
0.103235
0.10324
0.103267
0.103529
0.103532
0.103532
0.103538
0.103538
0.103547
0.103547
0.103556
0.103559
0.103568
0.103573
0.103583
0.10359
0.103601
0.103608
0.103622
0.103629
0.103645
0.103653
0.103672
0.103679
0.103702
0.103707
0.103737
0.103966
0.103968
0.103971
0.103972
0.103979
0.103979
0.103988
0.10399
0.103999
0.104004
0.104012
0.104021
0.104029
0.10404
0.104048
0.104062
0.104069
0.104086
0.104094
0.104114
0.104121
0.104146
0.104151
0.104181
0.104382
0.104384
0.104385
0.10439
0.10439
0.104399
0.104399
0.10441
0.104412
0.104422
0.104427
0.104438
0.104445
0.104457
0.104465
0.104479
0.104487
0.104504
0.104513
0.104534
0.104541
0.104566
0.104572
0.104603
0.104776
0.104777
0.104781
0.104782
0.104788
0.104789
0.104798
0.1048
0.10481
0.104815
0.104823
0.104832
0.10484
0.104852
0.104861
0.104875
0.104884
0.104901
0.104909
0.104931
0.104939
0.104964
0.104971
0.105002
0.10515
0.105153
0.105153
0.105158
0.10516
0.105167
0.105168
0.105178
0.105181
0.105191
0.105197
0.105208
0.105215
0.105227
0.105236
0.105251
0.105259
0.105277
0.105286
0.105308
0.105316
0.105342
0.105348
0.105381
0.105506
0.105507
0.10551
0.105511
0.105517
0.105519
0.105526
0.10553
0.105538
0.105545
0.105553
0.105563
0.105571
0.105583
0.105592
0.105607
0.105615
0.105634
0.105642
0.105664
0.105673
0.105699
0.105706
0.105738
0.105843
0.105845
0.105845
0.105851
0.105851
0.105859
0.105861
0.105869
0.105874
0.105883
0.105889
0.1059
0.105908
0.10592
0.105929
0.105944
0.105953
0.105971