/*--------------------------------*- C++ -*----------------------------------*\
  =========                 |
  \\      /  F ield         | OpenFOAM: The Open Source CFD Toolbox
   \\    /   O peration     | Website:  https://openfoam.org
    \\  /    A nd           | Version:  10
     \\/     M anipulation  |
\*---------------------------------------------------------------------------*/
FoamFile
{
    format      ascii;
    class       volScalarField;
    location    "0.41";
    object      T;
}
// * * * * * * * * * * * * * * * * * * * * * * * * * * * * * * * * * * * * * //

dimensions      [0 0 0 1 0 0 0];

internalField   nonuniform List<scalar> 
4176
(
180.347
180.351
180.372
180.383
180.426
180.445
180.506
180.538
180.613
180.66
180.75
180.809
180.913
180.985
181.1
181.192
181.307
181.43
181.534
181.703
181.778
182.01
182.026
182.325
180.356
180.361
180.382
180.393
180.436
180.457
180.518
180.552
180.628
180.677
180.767
180.829
180.935
181.01
181.127
181.221
181.339
181.464
181.571
181.743
181.819
182.061
182.081
182.41
180.384
180.389
180.409
180.42
180.462
180.483
180.542
180.576
180.649
180.698
180.785
180.846
180.95
181.022
181.138
181.229
181.346
181.468
181.572
181.74
181.811
182.049
182.068
182.408
180.436
180.44
180.461
180.472
180.514
180.534
180.594
180.627
180.7
180.749
180.837
180.897
181.002
181.073
181.19
181.28
181.399
181.522
181.622
181.794
181.863
182.097
182.114
182.438
180.511
180.515
180.536
180.546
180.588
180.608
180.667
180.7
180.772
180.82
180.907
180.966
181.07
181.14
181.257
181.344
181.465
181.586
181.683
181.857
181.924
182.156
182.174
182.486
180.61
180.614
180.635
180.645
180.686
180.706
180.765
180.797
180.869
180.917
181.002
181.062
181.164
181.234
181.35
181.436
181.558
181.673
181.777
181.945
182.014
182.244
182.264
182.577
180.733
180.737
180.757
180.768
180.808
180.828
180.886
180.918
180.988
181.037
181.121
181.18
181.281
181.35
181.465
181.549
181.671
181.781
181.889
182.051
182.123
182.35
182.372
182.683
180.88
180.884
180.904
180.914
180.955
180.974
181.031
181.063
181.132
181.18
181.263
181.321
181.421
181.489
181.603
181.686
181.808
181.914
182.024
182.181
182.255
182.478
182.501
182.808
181.051
181.055
181.074
181.084
181.124
181.144
181.2
181.231
181.3
181.347
181.429
181.486
181.585
181.652
181.764
181.845
181.967
182.069
182.181
182.332
182.409
182.627
182.652
182.954
181.245
181.249
181.269
181.278
181.318
181.337
181.392
181.423
181.491
181.537
181.618
181.674
181.772
181.837
181.949
182.028
182.149
182.248
182.361
182.506
182.585
182.797
182.824
183.121
181.463
181.467
181.487
181.496
181.535
181.554
181.608
181.639
181.705
181.751
181.83
181.886
181.982
182.046
182.156
182.233
182.353
182.449
182.562
182.703
182.784
182.989
183.017
183.309
181.705
181.709
181.728
181.737
181.776
181.794
181.848
181.878
181.943
181.988
182.066
182.12
182.215
182.278
182.386
182.461
182.58
182.673
182.787
182.922
183.003
183.205
183.233
183.519
181.971
181.975
181.994
182.002
182.041
182.058
182.111
182.14
182.205
182.248
182.325
182.378
182.471
182.533
182.639
182.713
182.83
182.919
183.033
183.164
183.246
183.44
183.469
183.75
182.26
182.264
182.283
182.291
182.329
182.346
182.398
182.426
182.49
182.532
182.608
182.66
182.751
182.811
182.916
182.987
183.102
183.189
183.302
183.428
183.51
183.699
183.728
184.003
182.573
182.577
182.596
182.603
182.641
182.657
182.709
182.736
182.798
182.839
182.914
182.964
183.054
183.112
183.215
183.284
183.397
183.481
183.593
183.714
183.796
183.98
184.008
184.277
182.91
182.914
182.932
182.94
182.976
182.992
183.043
183.069
183.13
183.17
183.243
183.291
183.379
183.435
183.536
183.603
183.715
183.795
183.906
184.022
184.105
184.282
184.31
184.573
183.271
183.274
183.292
183.299
183.336
183.35
183.4
183.425
183.485
183.524
183.595
183.642
183.728
183.782
183.881
183.945
184.055
184.133
184.242
184.353
184.435
184.606
184.635
184.891
183.655
183.659
183.676
183.683
183.718
183.732
183.781
183.805
183.864
183.901
183.97
184.016
184.099
184.152
184.248
184.31
184.418
184.492
184.6
184.705
184.788
184.952
184.981
185.23
184.063
184.067
184.084
184.09
184.125
184.138
184.186
184.208
184.266
184.301
184.369
184.413
184.494
184.544
184.639
184.698
184.803
184.874
184.98
185.08
185.162
185.32
185.349
185.591
184.495
184.498
184.515
184.521
184.555
184.567
184.614
184.635
184.691
184.725
184.791
184.833
184.912
184.96
185.051
185.108
185.21
185.279
185.382
185.478
185.559
185.71
185.739
185.973
184.95
184.954
184.97
184.975
185.009
185.019
185.065
185.085
185.14
185.172
185.236
185.276
185.352
185.398
185.487
185.541
185.64
185.705
185.806
185.897
185.978
186.122
186.151
186.377
185.429
185.433
185.449
185.453
185.486
185.496
185.54
185.559
185.612
185.642
185.704
185.742
185.816
185.859
185.945
185.996
186.093
186.154
186.252
186.339
186.417
186.556
186.585
186.802
185.932
185.935
185.951
185.955
185.986
185.995
186.039
186.056
186.107
186.135
186.195
186.231
186.303
186.343
186.427
186.475
186.568
186.626
186.721
186.802
186.88
187.01
187.04
187.25
186.458
186.461
186.477
186.48
186.511
186.518
186.56
186.576
186.625
186.652
186.709
186.743
186.812
186.85
186.93
186.975
187.066
187.12
187.211
187.289
187.364
187.488
187.516
187.719
187.008
187.011
187.026
187.028
187.058
187.065
187.105
187.119
187.167
187.192
187.247
187.278
187.344
187.38
187.457
187.499
187.586
187.636
187.724
187.797
187.871
187.987
188.014
188.209
187.581
187.584
187.598
187.6
187.629
187.634
187.674
187.686
187.732
187.754
187.807
187.836
187.9
187.932
188.006
188.045
188.128
188.175
188.26
188.328
188.399
188.509
188.534
188.722
188.177
188.179
188.194
188.194
188.223
188.227
188.265
188.276
188.319
188.34
188.39
188.416
188.477
188.507
188.578
188.613
188.693
188.737
188.818
188.881
188.95
189.052
189.076
189.256
188.796
188.798
188.812
188.812
188.84
188.842
188.879
188.888
188.93
188.948
188.996
189.02
189.078
189.105
189.172
189.204
189.281
189.32
189.398
189.456
189.522
189.618
189.64
189.812
189.438
189.44
189.453
189.453
189.479
189.481
189.516
189.523
189.563
189.579
189.625
189.646
189.701
189.725
189.789
189.818
189.891
189.926
190
190.053
190.116
190.205
190.227
190.389
190.102
190.104
190.117
190.116
190.142
190.142
190.176
190.181
190.219
190.233
190.276
190.295
190.347
190.368
190.429
190.453
190.523
190.554
190.624
190.673
190.733
190.814
190.835
190.988
190.789
190.791
190.803
190.801
190.826
190.825
190.858
190.862
190.898
190.909
190.95
190.966
191.015
191.033
191.091
191.111
191.177
191.204
191.271
191.315
191.371
191.446
191.464
191.609
191.498
191.5
191.512
191.509
191.533
191.531
191.562
191.564
191.598
191.608
191.646
191.659
191.706
191.72
191.775
191.792
191.854
191.877
191.94
191.978
192.031
192.099
192.116
192.252
192.23
192.231
192.243
192.239
192.262
192.259
192.289
192.289
192.321
192.329
192.365
192.375
192.419
192.43
192.482
192.495
192.553
192.572
192.631
192.664
192.714
192.775
192.791
192.917
192.983
192.984
192.995
192.991
193.013
193.009
193.037
193.036
193.066
193.071
193.105
193.113
193.153
193.162
193.21
193.219
193.275
193.289
193.344
193.373
193.417
193.473
193.486
193.604
193.758
193.759
193.77
193.765
193.786
193.78
193.807
193.804
193.833
193.836
193.867
193.872
193.91
193.915
193.961
193.966
194.018
194.028
194.079
194.103
194.144
194.193
194.204
194.313
194.554
194.555
194.565
194.56
194.58
194.573
194.599
194.594
194.621
194.622
194.651
194.653
194.689
194.691
194.733
194.735
194.783
194.789
194.836
194.855
194.892
194.936
194.944
195.043
195.371
195.372
195.382
195.376
195.396
195.388
195.412
195.406
195.431
195.429
195.456
195.456
195.489
195.488
195.527
195.525
195.57
195.572
195.615
195.63
195.663
195.7
195.705
195.795
196.21
196.211
196.22
196.214
196.232
196.223
196.246
196.238
196.261
196.258
196.283
196.28
196.31
196.306
196.342
196.336
196.379
196.376
196.416
196.425
196.454
196.486
196.489
196.569
197.069
197.07
197.079
197.072
197.09
197.079
197.101
197.092
197.113
197.108
197.13
197.125
197.153
197.145
197.179
197.169
197.208
197.201
197.238
197.242
197.268
197.293
197.293
197.365
197.949
197.95
197.959
197.951
197.968
197.956
197.977
197.966
197.986
197.979
197.999
197.991
198.016
198.006
198.037
198.023
198.059
198.048
198.081
198.08
198.102
198.122
198.119
198.182
198.849
198.85
198.859
198.85
198.867
198.854
198.874
198.861
198.879
198.87
198.888
198.878
198.901
198.888
198.916
198.898
198.931
198.915
198.945
198.939
198.958
198.972
198.966
199.021
199.77
199.771
199.779
199.77
199.785
199.772
199.79
199.776
199.793
199.782
199.798
199.786
199.806
199.79
199.815
199.794
199.824
199.803
199.831
199.818
199.835
199.842
199.833
199.882
200.711
200.711
200.719
200.71
200.724
200.71
200.727
200.712
200.727
200.714
200.728
200.713
200.731
200.712
200.735
200.71
200.737
200.712
200.737
200.719
200.734
200.734
200.722
200.762
201.672
201.672
201.679
201.669
201.683
201.668
201.684
201.667
201.68
201.666
201.678
201.661
201.676
201.654
201.674
201.646
201.671
201.641
201.664
201.639
201.652
201.646
201.631
201.663
202.652
202.652
202.659
202.648
202.662
202.645
202.66
202.642
202.654
202.637
202.647
202.628
202.641
202.616
202.634
202.602
202.624
202.59
202.611
202.581
202.592
202.579
202.561
202.586
203.652
203.652
203.658
203.647
203.66
203.642
203.656
203.636
203.646
203.628
203.636
203.615
203.625
203.598
203.613
203.578
203.597
203.558
203.577
203.542
203.55
203.531
203.512
203.528
204.67
204.67
204.676
204.664
204.676
204.658
204.67
204.649
204.658
204.638
204.644
204.62
204.629
204.598
204.611
204.573
204.589
204.546
204.563
204.522
204.528
204.502
204.484
204.49
205.707
205.707
205.713
205.701
205.712
205.692
205.704
205.681
205.688
205.667
205.671
205.645
205.651
205.618
205.628
205.586
205.601
205.553
205.568
205.522
205.526
205.492
205.475
205.471
206.763
206.763
206.768
206.755
206.765
206.745
206.755
206.731
206.737
206.714
206.716
206.688
206.692
206.656
206.664
206.619
206.631
206.58
206.591
206.54
206.542
206.501
206.485
206.472
207.836
207.836
207.841
207.827
207.837
207.816
207.825
207.8
207.804
207.779
207.779
207.749
207.751
207.712
207.718
207.669
207.679
207.624
207.633
207.576
207.579
207.53
207.513
207.492
208.926
208.926
208.931
208.917
208.926
208.903
208.912
208.885
208.888
208.861
208.86
208.827
208.827
208.786
208.789
208.737
208.746
208.686
208.694
208.63
208.634
208.576
208.559
208.53
210.033
210.033
210.038
210.023
210.031
210.008
210.015
209.988
209.989
209.961
209.957
209.923
209.921
209.877
209.878
209.823
209.83
209.765
209.773
209.701
209.708
209.64
209.624
209.587
211.156
211.156
211.161
211.145
211.153
211.129
211.135
211.106
211.107
211.077
211.072
211.035
211.032
210.985
210.985
210.925
210.932
210.861
210.87
210.792
210.796
210.724
210.706
210.662
212.295
212.295
212.299
212.283
212.29
212.266
212.271
212.241
212.24
212.208
212.202
212.163
212.159
212.109
212.108
212.043
212.05
211.973
211.984
211.898
211.903
211.824
211.806
211.754
213.449
213.448
213.452
213.436
213.442
213.417
213.421
213.391
213.388
213.355
213.348
213.307
213.302
213.248
213.248
213.178
213.185
213.104
213.111
213.022
213.025
212.942
212.922
212.863
214.616
214.615
214.619
214.603
214.609
214.583
214.586
214.555
214.551
214.517
214.509
214.465
214.46
214.401
214.403
214.328
214.335
214.248
214.256
214.163
214.164
214.076
214.055
213.99
215.797
215.796
215.8
215.783
215.788
215.762
215.765
215.732
215.728
215.692
215.684
215.637
215.633
215.569
215.572
215.492
215.5
215.409
215.415
215.319
215.318
215.226
215.204
215.133
216.99
216.989
216.993
216.976
216.981
216.954
216.956
216.922
216.919
216.88
216.873
216.822
216.818
216.753
216.754
216.673
216.678
216.586
216.589
216.49
216.488
216.391
216.368
216.291
218.195
218.195
218.197
218.182
218.185
218.159
218.16
218.125
218.121
218.081
218.073
218.022
218.016
217.95
217.949
217.867
217.87
217.775
217.778
217.676
217.671
217.571
217.548
217.465
219.412
219.411
219.414
219.398
219.401
219.374
219.374
219.34
219.335
219.294
219.286
219.233
219.226
219.16
219.157
219.074
219.075
218.979
218.979
218.875
218.87
218.766
218.741
218.653
220.639
220.638
220.641
220.624
220.628
220.601
220.6
220.566
220.559
220.52
220.509
220.456
220.448
220.381
220.376
220.293
220.292
220.195
220.194
220.087
220.08
219.973
219.949
219.856
221.875
221.875
221.878
221.861
221.864
221.837
221.836
221.803
221.794
221.756
221.742
221.69
221.681
221.613
221.607
221.524
221.521
221.422
221.421
221.311
221.304
221.194
221.169
221.071
223.122
223.121
223.124
223.107
223.11
223.083
223.082
223.049
223.038
223.001
222.986
222.935
222.924
222.856
222.849
222.765
222.761
222.663
222.658
222.548
222.539
222.426
222.401
222.299
224.377
224.376
224.379
224.362
224.366
224.338
224.337
224.304
224.293
224.256
224.239
224.19
224.176
224.109
224.1
224.016
224.01
223.911
223.907
223.794
223.785
223.67
223.644
223.539
225.641
225.64
225.643
225.626
225.63
225.602
225.6
225.568
225.556
225.52
225.501
225.453
225.437
225.372
225.362
225.276
225.269
225.171
225.164
225.051
225.04
224.923
224.898
224.788
226.913
226.913
226.916
226.899
226.902
226.874
226.872
226.839
226.827
226.792
226.772
226.725
226.707
226.642
226.631
226.544
226.537
226.437
226.43
226.316
226.305
226.186
226.16
226.048
228.193
228.193
228.196
228.179
228.182
228.155
228.152
228.119
228.106
228.071
228.05
228.004
227.985
227.919
227.908
227.82
227.813
227.712
227.703
227.59
227.577
227.457
227.431
227.316
229.481
229.481
229.484
229.467
229.47
229.442
229.44
229.407
229.393
229.358
229.335
229.29
229.269
229.204
229.191
229.104
229.096
228.993
228.984
228.87
228.857
228.735
228.709
228.592
230.777
230.777
230.78
230.762
230.765
230.737
230.734
230.7
230.686
230.651
230.627
230.582
230.56
230.494
230.48
230.393
230.385
230.28
230.27
230.157
230.142
230.02
229.994
229.875
232.079
232.079
232.082
232.064
232.066
232.038
232.034
232
231.985
231.95
231.924
231.879
231.855
231.791
231.773
231.688
231.678
231.573
231.563
231.448
231.434
231.311
231.284
231.164
233.386
233.387
233.389
233.371
233.373
233.344
233.34
233.305
233.289
233.253
233.226
233.182
233.154
233.092
233.072
232.987
232.976
232.872
232.861
232.744
232.729
232.607
232.581
232.459
234.697
234.697
234.699
234.681
234.683
234.653
234.648
234.613
234.596
234.56
234.531
234.487
234.458
234.397
234.375
234.291
234.276
234.175
234.164
234.044
234.031
233.908
233.881
233.76
236.008
236.008
236.011
235.992
235.994
235.963
235.958
235.922
235.905
235.868
235.839
235.796
235.764
235.705
235.679
235.599
235.58
235.482
235.469
235.351
235.336
235.214
235.188
235.066
237.317
237.317
237.319
237.301
237.303
237.272
237.268
237.232
237.215
237.178
237.149
237.106
237.073
237.015
236.987
236.91
236.89
236.79
236.778
236.662
236.647
236.524
236.499
236.377
238.619
238.619
238.622
238.604
238.607
238.577
238.574
238.538
238.522
238.487
238.458
238.417
238.384
238.328
238.299
238.224
238.201
238.107
238.09
237.978
237.962
237.84
237.816
237.694
239.914
239.914
239.918
239.9
239.905
239.876
239.874
239.841
239.826
239.793
239.766
239.727
239.695
239.642
239.612
239.542
239.517
239.426
239.408
239.299
239.283
239.162
239.138
239.017
241.2
241.201
241.206
241.189
241.195
241.168
241.169
241.138
241.126
241.096
241.071
241.036
241.006
240.957
240.929
240.862
240.838
240.75
240.733
240.624
240.609
240.489
240.467
240.346
242.481
242.482
242.488
242.473
242.48
242.456
242.459
242.43
242.422
242.395
242.374
242.342
242.316
242.271
242.246
242.184
242.161
242.079
242.061
241.957
241.944
241.823
241.802
241.681
243.762
243.764
243.77
243.757
243.766
243.743
243.748
243.722
243.716
243.693
243.675
243.647
243.624
243.584
243.563
243.505
243.487
243.409
243.394
243.294
243.284
243.165
243.145
243.023
245.053
245.055
245.061
245.049
245.058
245.038
245.042
245.02
245.014
244.994
244.978
244.954
244.933
244.896
244.881
244.823
244.815
244.735
244.731
244.63
244.628
244.511
244.496
244.376
246.364
246.367
246.373
246.361
246.369
246.349
246.354
246.331
246.326
246.306
246.29
246.267
246.247
246.213
246.199
246.143
246.14
246.06
246.064
245.964
245.969
245.856
245.847
245.736
247.708
247.71
247.717
247.702
247.711
247.688
247.692
247.666
247.66
247.637
247.62
247.595
247.574
247.54
247.523
247.47
247.465
247.386
247.393
247.294
247.304
247.192
247.189
247.084
249.094
249.096
249.101
249.085
249.092
249.066
249.067
249.038
249.028
249.001
248.979
248.95
248.923
248.887
248.862
248.81
248.795
248.72
248.725
248.622
248.635
248.519
248.521
248.415
250.529
250.53
250.535
250.517
250.521
250.491
250.489
250.454
250.439
250.406
250.377
250.341
250.307
250.263
250.229
250.173
250.148
250.07
250.063
249.957
249.968
249.844
249.849
249.736
252.014
252.015
252.018
251.999
252
251.967
251.96
251.922
251.899
251.861
251.823
251.781
251.736
251.684
251.638
251.572
251.535
251.443
251.43
251.308
251.315
251.177
251.182
251.054
253.546
253.548
253.549
253.528
253.527
253.492
253.481
253.438
253.411
253.367
253.322
253.272
253.218
253.156
253.099
253.022
252.969
252.865
252.836
252.698
252.691
252.533
252.533
252.382
255.119
255.12
255.122
255.099
255.097
255.059
255.047
255
254.97
254.921
254.872
254.815
254.755
254.685
254.617
254.533
254.461
254.353
254.295
254.149
254.117
253.937
253.922
253.736
256.721
256.722
256.724
256.7
256.699
256.659
256.646
256.598
256.566
256.514
256.463
256.403
256.339
256.264
256.19
256.1
256.017
255.907
255.823
255.68
255.613
255.421
255.382
255.149
258.342
258.343
258.345
258.321
258.319
258.28
258.267
258.219
258.187
258.135
258.083
258.023
257.958
257.883
257.806
257.715
257.627
257.516
257.424
257.284
257.191
257.005
256.938
256.67
259.968
259.969
259.972
259.949
259.948
259.909
259.897
259.85
259.819
259.768
259.718
259.659
259.595
259.523
259.448
259.359
259.273
259.165
259.071
258.937
258.844
258.662
258.593
258.327
261.589
261.591
261.594
261.572
261.572
261.534
261.523
261.478
261.449
261.402
261.353
261.298
261.237
261.168
261.096
261.013
260.929
260.828
260.741
260.61
260.528
260.353
260.294
260.052
263.196
263.197
263.201
263.18
263.181
263.145
263.136
263.093
263.067
263.022
262.977
262.926
262.868
262.804
262.736
262.659
262.581
262.488
262.405
262.285
262.21
262.046
261.993
261.771
264.779
264.781
264.785
264.765
264.768
264.734
264.727
264.687
264.662
264.622
264.579
264.533
264.479
264.421
264.357
264.287
264.214
264.129
264.054
263.94
263.873
263.723
263.673
263.471
266.333
266.335
266.34
266.321
266.325
266.293
266.287
266.25
266.228
266.192
266.152
266.111
266.06
266.009
265.949
265.887
265.819
265.743
265.671
265.57
265.508
265.371
265.325
265.142
267.851
267.854
267.859
267.842
267.846
267.817
267.813
267.779
267.759
267.728
267.689
267.655
267.605
267.563
267.505
267.452
267.387
267.32
267.254
267.164
267.106
266.984
266.94
266.775
269.331
269.334
269.339
269.323
269.329
269.301
269.299
269.268
269.251
269.223
269.188
269.159
269.112
269.076
269.021
268.977
268.915
268.858
268.796
268.717
268.662
268.554
268.514
268.366
270.768
270.771
270.778
270.762
270.77
270.742
270.744
270.714
270.701
270.674
270.644
270.617
270.577
270.544
270.496
270.456
270.4
270.35
270.294
270.224
270.173
270.08
270.041
269.91
272.162
272.164
272.172
272.156
272.166
272.139
272.143
272.115
272.105
272.081
272.055
272.031
271.995
271.966
271.924
271.889
271.838
271.796
271.741
271.684
271.638
271.556
271.519
271.405
273.508
273.511
273.519
273.504
273.515
273.49
273.496
273.47
273.462
273.441
273.419
273.397
273.366
273.341
273.303
273.273
273.228
273.191
273.143
273.096
273.05
272.982
272.946
272.848
274.808
274.811
274.82
274.804
274.818
274.793
274.802
274.776
274.772
274.752
274.734
274.715
274.688
274.667
274.634
274.608
274.568
274.539
274.493
274.455
274.411
274.356
274.321
274.239
276.06
276.063
276.072
276.058
276.07
276.05
276.057
276.036
276.032
276.016
276
275.985
275.961
275.943
275.914
275.893
275.858
275.833
275.793
275.763
275.721
275.677
275.646
275.576
277.264
277.267
277.278
277.261
277.28
277.253
277.269
277.243
277.246
277.229
277.218
277.205
277.184
277.17
277.145
277.128
277.097
277.078
277.041
277.017
276.98
276.946
276.916
276.859
278.42
278.424
278.431
278.423
278.43
278.42
278.422
278.411
278.407
278.397
278.385
278.376
278.358
278.347
278.325
278.312
278.285
278.271
278.239
278.222
278.186
278.163
278.133
278.088
279.529
279.531
279.545
279.524
279.552
279.518
279.546
279.516
279.528
279.511
279.506
279.497
279.483
279.475
279.457
279.447
279.423
279.414
279.385
279.373
279.342
279.327
279.298
279.265
280.591
280.595
280.601
280.597
280.601
280.597
280.597
280.593
280.588
280.586
280.575
280.573
280.559
280.555
280.539
280.533
280.512
280.507
280.482
280.476
280.447
280.438
280.412
280.388
281.607
281.608
281.622
281.605
281.629
281.603
281.628
281.603
281.618
281.603
281.603
281.598
281.589
281.586
281.573
281.57
281.553
281.551
281.53
281.527
281.503
281.5
281.475
281.46
282.577
282.581
282.588
282.583
282.592
282.585
282.591
282.587
282.585
282.586
282.579
282.58
282.572
282.572
282.561
282.561
282.546
282.548
282.529
282.532
282.509
282.511
282.49
282.482
283.505
283.506
283.516
283.508
283.522
283.51
283.524
283.511
283.521
283.514
283.516
283.515
283.51
283.511
283.503
283.505
283.494
283.498
283.482
283.488
283.469
283.476
283.457
283.456
284.388
284.391
284.399
284.392
284.406
284.396
284.408
284.401
284.406
284.406
284.404
284.407
284.403
284.407
284.401
284.405
284.396
284.403
284.39
284.4
284.383
284.393
284.377
284.382
285.231
285.233
285.24
285.237
285.245
285.242
285.249
285.247
285.251
285.252
285.252
285.257
285.254
285.259
285.255
285.262
285.255
285.265
285.253
285.266
285.252
285.267
285.252
285.262
286.032
286.035
286.041
286.039
286.049
286.043
286.054
286.05
286.057
286.057
286.06
286.064
286.064
286.071
286.068
286.077
286.071
286.083
286.074
286.09
286.077
286.095
286.083
286.098
286.796
286.798
286.804
286.802
286.812
286.808
286.816
286.818
286.82
286.826
286.826
286.834
286.833
286.842
286.84
286.851
286.847
286.861
286.854
286.872
286.861
286.883
286.87
286.891
287.521
287.525
287.528
287.531
287.533
287.538
287.541
287.545
287.549
287.553
287.557
287.563
287.566
287.575
287.575
287.587
287.584
287.6
287.594
287.614
287.605
287.629
287.618
287.643
288.211
288.213
288.22
288.217
288.228
288.223
288.235
288.235
288.241
288.246
288.249
288.258
288.26
288.271
288.271
288.285
288.284
288.301
288.296
288.319
288.31
288.338
288.327
288.355
288.866
288.87
288.871
288.877
288.877
288.886
288.885
288.895
288.895
288.905
288.907
288.917
288.92
288.931
288.933
288.947
288.947
288.966
288.963
288.986
288.979
289.009
288.999
289.029
289.489
289.491
289.495
289.497
289.503
289.504
289.512
289.514
289.522
289.526
289.533
289.541
289.546
289.557
289.56
289.576
289.577
289.596
289.594
289.619
289.612
289.644
289.635
289.669
290.079
290.082
290.085
290.087
290.093
290.096
290.101
290.107
290.111
290.12
290.124
290.135
290.139
290.152
290.155
290.172
290.173
290.194
290.193
290.218
290.214
290.247
290.239
290.272
290.639
290.643
290.643
290.651
290.648
290.661
290.658
290.669
290.672
290.681
290.686
290.696
290.702
290.715
290.719
290.736
290.739
290.76
290.76
290.787
290.782
290.817
290.809
290.846
291.171
291.172
291.178
291.175
291.188
291.183
291.198
291.195
291.207
291.212
291.22
291.229
291.235
291.249
291.254
291.271
291.275
291.296
291.297
291.324
291.322
291.356
291.349
291.387
291.674
291.678
291.677
291.688
291.681
291.699
291.69
291.709
291.704
291.721
291.722
291.735
291.74
291.755
291.76
291.778
291.782
291.804
291.806
291.834
291.831
291.867
291.859
291.901
292.153
292.154
292.159
292.157
292.169
292.164
292.18
292.175
292.191
292.192
292.204
292.212
292.22
292.234
292.24
292.258
292.263
292.285
292.287
292.316
292.314
292.35
292.344
292.385
292.605
292.608
292.607
292.616
292.612
292.627
292.621
292.639
292.635
292.652
292.653
292.668
292.673
292.688
292.694
292.712
292.718
292.74
292.744
292.772
292.771
292.807
292.801
292.845
293.034
293.035
293.04
293.039
293.048
293.047
293.06
293.058
293.072
293.075
293.086
293.095
293.103
293.117
293.124
293.143
293.149
293.172
293.174
293.204
293.203
293.24
293.235
293.277
293.44
293.444
293.442
293.451
293.448
293.461
293.458
293.472
293.472
293.486
293.49
293.503
293.51
293.525
293.531
293.55
293.556
293.579
293.583
293.612
293.611
293.648
293.643
293.688
293.826
293.826
293.832
293.829
293.84
293.838
293.849
293.851
293.861
293.868
293.876
293.887
293.895
293.91
293.916
293.935
293.942
293.965
293.968
293.998
293.998
294.035
294.031
294.073
294.189
294.193
294.191
294.2
294.196
294.21
294.207
294.22
294.222
294.234
294.24
294.252
294.259
294.274
294.281
294.3
294.306
294.329
294.334
294.363
294.363
294.4
294.395
294.439
294.535
294.536
294.54
294.539
294.548
294.548
294.558
294.561
294.57
294.577
294.585
294.596
294.604
294.619
294.626
294.645
294.652
294.675
294.679
294.708
294.709
294.745
294.741
294.784
294.862
294.864
294.865
294.87
294.871
294.879
294.881
294.89
294.894
294.905
294.911
294.923
294.931
294.946
294.952
294.971
294.978
295.001
295.006
295.035
295.036
295.071
295.068
295.11
295.172
295.173
295.175
295.178
295.181
295.187
295.192
295.198
295.205
295.213
295.221
295.232
295.24
295.255
295.262
295.28
295.287
295.31
295.314
295.343
295.345
295.379
295.376
295.419
295.465
295.466
295.468
295.47
295.475
295.478
295.485
295.49
295.497
295.506
295.513
295.525
295.532
295.547
295.554
295.573
295.58
295.602
295.607
295.636
295.638
295.671
295.669
295.71
295.742
295.743
295.745
295.748
295.752
295.757
295.761
295.768
295.774
295.783
295.79
295.802
295.809
295.824
295.831
295.849
295.856
295.879
295.884
295.911
295.914
295.947
295.944
295.987
296.005
296.006
296.008
296.011
296.014
296.02
296.024
296.03
296.037
296.045
296.052
296.063
296.071
296.085
296.093
296.111
296.118
296.14
296.145
296.173
296.175
296.208
296.206
296.246
296.254
296.254
296.257
296.258
296.264
296.266
296.273
296.278
296.285
296.293
296.3
296.311
296.319
296.333
296.341
296.359
296.365
296.387
296.393
296.419
296.421
296.456
296.452
296.494
296.489
296.49
296.492
296.495
296.498
296.503
296.507
296.514
296.519
296.529
296.535
296.546
296.554
296.567
296.575
296.593
296.6
296.621
296.626
296.654
296.657
296.687
296.686
296.726
296.712
296.713
296.714
296.718
296.72
296.726
296.729
296.736
296.742
296.75
296.757
296.768
296.776
296.789
296.797
296.815
296.821
296.842
296.848
296.874
296.876
296.91
296.906
296.947
296.923
296.924
296.926
296.927
296.933
296.934
296.942
296.946
296.953
296.961
296.968
296.978
296.986
296.999
297.007
297.024
297.03
297.052
297.057
297.083
297.086
297.117
297.116
297.153
297.123
297.123
297.125
297.128
297.13
297.136
297.139
297.147
297.151
297.161
297.166
297.178
297.184
297.198
297.205
297.222
297.228
297.25
297.255
297.281
297.281
297.317
297.312
297.351
297.312
297.312
297.314
297.317
297.319
297.325
297.328
297.335
297.34
297.348
297.355
297.365
297.372
297.386
297.393
297.41
297.415
297.437
297.441
297.467
297.47
297.5
297.498
297.535
297.49
297.491
297.493
297.494
297.5
297.501
297.508
297.511
297.519
297.526
297.533
297.543
297.55
297.564
297.571
297.587
297.592
297.614
297.617
297.645
297.644
297.679
297.674
297.711
297.659
297.661
297.66
297.666
297.664
297.674
297.672
297.684
297.685
297.697
297.7
297.712
297.718
297.732
297.738
297.755
297.76
297.782
297.785
297.81
297.813
297.843
297.841
297.876
297.819
297.819
297.823
297.821
297.83
297.827
297.839
297.838
297.849
297.853
297.861
297.871
297.877
297.891
297.897
297.914
297.918
297.94
297.942
297.969
297.969
298.001
297.997
298.034
297.97
297.973
297.97
297.979
297.973
297.987
297.981
297.996
297.994
298.007
298.009
298.022
298.027
298.041
298.047
298.063
298.067
298.09
298.092
298.117
298.118
298.15
298.146
298.18
298.114
298.113
298.118
298.114
298.125
298.12
298.133
298.131
298.143
298.146
298.154
298.164
298.169
298.183
298.188
298.206
298.21
298.23
298.232
298.259
298.26
298.289
298.286
298.321
298.249
298.251
298.248
298.257
298.251
298.265
298.259
298.274
298.271
298.285
298.286
298.299
298.303
298.317
298.323
298.339
298.342
298.365
298.367
298.391
298.392
298.422
298.42
298.452
298.377
298.376
298.381
298.378
298.387
298.384
298.395
298.394
298.404
298.409
298.415
298.425
298.43
298.444
298.449
298.466
298.469
298.49
298.492
298.518
298.518
298.545
298.545
298.577
298.497
298.499
298.497
298.505
298.5
298.512
298.508
298.521
298.519
298.532
298.533
298.547
298.55
298.564
298.568
298.585
298.587
298.611
298.611
298.636
298.635
298.665
298.663
298.694
298.611
298.611
298.614
298.614
298.619
298.62
298.626
298.63
298.636
298.643
298.648
298.659
298.663
298.677
298.681
298.699
298.701
298.721
298.723
298.747
298.749
298.774
298.775
298.805
298.719
298.72
298.72
298.724
298.724
298.73
298.731
298.739
298.741
298.752
298.754
298.766
298.769
298.783
298.787
298.804
298.806
298.828
298.828
298.853
298.853
298.881
298.879
298.91
298.82
298.821
298.821
298.826
298.824
298.833
298.831
298.842
298.841
298.853
298.855
298.867
298.869
298.885
298.887
298.905
298.907
298.927
298.929
298.952
298.954
298.979
298.979
299.007
298.916
298.916
298.919
298.918
298.925
298.923
298.932
298.932
298.94
298.946
298.951
298.962
298.965
298.979
298.982
298.999
299.001
299.021
299.022
299.047
299.045
299.073
299.071
299.101
299.005
299.008
299.004
299.015
299.005
299.023
299.012
299.031
299.023
299.039
299.038
299.052
299.053
299.068
299.071
299.088
299.089
299.11
299.112
299.133
299.136
299.159
299.16
299.187
299.091
299.089
299.096
299.088
299.104
299.092
299.111
299.102
299.117
299.117
299.126
299.134
299.138
299.152
299.154
299.171
299.174
299.192
299.193
299.217
299.216
299.243
299.242
299.27
299.169
299.173
299.166
299.181
299.166
299.19
299.172
299.197
299.185
299.204
299.2
299.215
299.216
299.231
299.233
299.249
299.251
299.272
299.272
299.294
299.296
299.319
299.32
299.346
299.245
299.242
299.252
299.24
299.26
299.243
299.267
299.254
299.272
299.27
299.279
299.286
299.291
299.305
299.306
299.323
299.326
299.343
299.345
299.368
299.367
299.393
299.392
299.419
299.314
299.318
299.31
299.326
299.31
299.334
299.316
299.341
299.329
299.348
299.344
299.359
299.359
299.373
299.376
299.391
299.394
299.414
299.414
299.435
299.437
299.459
299.46
299.485