/*--------------------------------*- C++ -*----------------------------------*\
  =========                 |
  \\      /  F ield         | OpenFOAM: The Open Source CFD Toolbox
   \\    /   O peration     | Website:  https://openfoam.org
    \\  /    A nd           | Version:  10
     \\/     M anipulation  |
\*---------------------------------------------------------------------------*/
FoamFile
{
    format      ascii;
    class       volVectorField;
    location    "0.41";
    object      U;
}
// * * * * * * * * * * * * * * * * * * * * * * * * * * * * * * * * * * * * * //

dimensions      [0 1 -1 0 0 0 0];

internalField   nonuniform List<vector> 
4176
(
(497.488 -0.0141135 -6.46837e-09)
(497.474 0.0636456 1.92653e-09)
(497.449 0.00144536 -6.24684e-10)
(497.4 0.0903129 -5.41208e-13)
(497.346 0.051041 -1.55506e-10)
(497.272 0.0894946 -6.01624e-10)
(497.18 0.125893 -3.86876e-10)
(497.088 0.0604665 2.9026e-10)
(496.954 0.225231 6.88446e-10)
(496.849 0.00478889 6.86284e-10)
(496.672 0.344351 4.63035e-10)
(496.55 -0.0690377 3.59013e-10)
(496.339 0.469799 1.16756e-10)
(496.191 -0.139388 -2.60821e-10)
(495.956 0.56779 -4.12931e-10)
(495.773 -0.135532 -2.71758e-10)
(495.536 0.528486 -2.07925e-10)
(495.286 0.0237722 -1.27547e-11)
(495.073 0.334693 3.04132e-10)
(494.73 0.323025 1.67642e-10)
(494.575 -0.0169937 -1.40449e-10)
(494.097 0.771913 -1.5584e-10)
(494.068 -0.516448 1.3232e-10)
(493.444 1.44243 2.60571e-10)
(497.47 0.00496539 -6.46807e-09)
(497.456 0.114465 1.92697e-09)
(497.43 0.0765049 -6.24766e-10)
(497.38 0.203218 -1.32725e-12)
(497.325 0.1863 -1.55496e-10)
(497.247 0.264216 -6.01309e-10)
(497.156 0.321796 -3.87519e-10)
(497.059 0.295562 2.90366e-10)
(496.924 0.48219 6.89096e-10)
(496.814 0.297913 6.86398e-10)
(496.636 0.662857 4.6253e-10)
(496.508 0.278777 3.58881e-10)
(496.293 0.850366 1.15139e-10)
(496.142 0.258488 -2.6067e-10)
(495.9 1.01248 -4.12701e-10)
(495.714 0.302154 -2.71234e-10)
(495.47 1.04226 -2.09094e-10)
(495.216 0.510823 -1.28795e-11)
(494.996 0.914249 3.03108e-10)
(494.646 0.855171 1.67244e-10)
(494.491 0.6285 -1.40386e-10)
(493.992 1.33104 -1.58174e-10)
(493.957 0.124986 1.33098e-10)
(493.269 1.99262 2.60196e-10)
(497.413 0.0233143 -6.47108e-09)
(497.399 0.161121 1.92616e-09)
(497.375 0.147682 -6.26764e-10)
(497.324 0.307559 -3.58035e-13)
(497.272 0.313902 -1.55717e-10)
(497.195 0.426404 -6.02034e-10)
(497.108 0.505919 -3.84783e-10)
(497.011 0.514793 2.92245e-10)
(496.882 0.722911 6.91131e-10)
(496.772 0.572573 6.86587e-10)
(496.599 0.960633 4.61522e-10)
(496.474 0.606172 3.57992e-10)
(496.263 1.20615 1.16707e-10)
(496.116 0.634067 -2.60525e-10)
(495.877 1.42868 -4.12885e-10)
(495.698 0.713911 -2.69983e-10)
(495.454 1.52277 -2.11816e-10)
(495.209 0.96607 -1.44995e-11)
(494.993 1.45707 3.0375e-10)
(494.653 1.3438 1.66809e-10)
(494.506 1.24775 -1.41333e-10)
(494.016 1.8823 -1.55498e-10)
(493.982 0.838602 1.33427e-10)
(493.271 2.60873 2.61157e-10)
(497.309 0.0420486 -6.46883e-09)
(497.295 0.208625 1.9302e-09)
(497.271 0.220179 -6.27774e-10)
(497.22 0.413875 2.6776e-12)
(497.168 0.44387 -1.56541e-10)
(497.091 0.591758 -6.06309e-10)
(497.004 0.693477 -3.84668e-10)
(496.907 0.738425 2.89838e-10)
(496.777 0.968127 6.84438e-10)
(496.668 0.852884 6.90001e-10)
(496.494 1.26396 4.62383e-10)
(496.37 0.940522 3.56189e-10)
(496.158 1.56882 1.18181e-10)
(496.013 1.01826 -2.6203e-10)
(495.77 1.85356 -4.19977e-10)
(495.593 1.1354 -2.71168e-10)
(495.346 2.01721 -2.09394e-10)
(495.097 1.42659 -1.4873e-11)
(494.891 2.00924 3.0601e-10)
(494.54 1.84064 1.66186e-10)
(494.398 1.85841 -1.44147e-10)
(493.915 2.42019 -1.56295e-10)
(493.887 1.52557 1.31704e-10)
(493.205 3.20554 2.51694e-10)
(497.157 0.0603792 -6.47053e-09)
(497.143 0.255146 1.9367e-09)
(497.119 0.291097 -6.24082e-10)
(497.069 0.518057 2.69146e-12)
(497.018 0.571003 -1.53347e-10)
(496.941 0.753922 -6.00985e-10)
(496.855 0.876949 -3.86457e-10)
(496.76 0.957973 2.92135e-10)
(496.631 1.20801 6.90058e-10)
(496.524 1.12837 6.87941e-10)
(496.351 1.56076 4.62525e-10)
(496.229 1.26932 3.58998e-10)
(496.018 1.92408 1.14692e-10)
(495.876 1.396 -2.63001e-10)
(495.633 2.27126 -4.18032e-10)
(495.461 1.5501 -2.73669e-10)
(495.21 2.51254 -2.10492e-10)
(494.966 1.86974 -1.41019e-11)
(494.763 2.55434 3.00528e-10)
(494.411 2.33852 1.71956e-10)
(494.271 2.45293 -1.36414e-10)
(493.793 2.94605 -1.53329e-10)
(493.764 2.16818 1.35337e-10)
(493.102 3.76347 2.62526e-10)
(496.957 0.0787019 -6.4831e-09)
(496.942 0.301371 1.93477e-09)
(496.919 0.361861 -6.22776e-10)
(496.869 0.621653 -2.08332e-12)
(496.819 0.69783 -1.64633e-10)
(496.742 0.91523 -6.05984e-10)
(496.657 1.05999 -3.83943e-10)
(496.562 1.17647 2.88401e-10)
(496.435 1.44731 6.9083e-10)
(496.327 1.40278 6.93468e-10)
(496.157 1.85666 4.62784e-10)
(496.035 1.59728 3.53174e-10)
(495.825 2.27772 1.11909e-10)
(495.684 1.77364 -2.60616e-10)
(495.442 2.68568 -4.21073e-10)
(495.274 1.96905 -2.71083e-10)
(495.018 3.00315 -1.99968e-10)
(494.787 2.31261 -1.12447e-11)
(494.57 3.10392 3.1034e-10)
(494.229 2.83532 1.74086e-10)
(494.084 3.04918 -1.40668e-10)
(493.611 3.47407 -1.64047e-10)
(493.576 2.81511 1.32145e-10)
(492.913 4.32046 2.62825e-10)
(496.708 0.0968471 -6.48331e-09)
(496.694 0.346931 1.93235e-09)
(496.671 0.431834 -6.39068e-10)
(496.621 0.723809 -2.08991e-12)
(496.572 0.8232 -1.50096e-10)
(496.495 1.07432 -6.05174e-10)
(496.412 1.24092 -3.95253e-10)
(496.317 1.39203 2.93216e-10)
(496.192 1.68386 6.97634e-10)
(496.084 1.67368 6.8878e-10)
(495.916 2.14913 4.60003e-10)
(495.795 1.92145 3.64069e-10)
(495.588 2.62698 1.27563e-10)
(495.448 2.14764 -2.5879e-10)
(495.208 3.09401 -4.1668e-10)
(495.043 2.38634 -2.67787e-10)
(494.785 3.48275 -2.0942e-10)
(494.565 2.75727 -1.68848e-11)
(494.337 3.65136 3.04823e-10)
(494.01 3.32026 1.71606e-10)
(493.859 3.64428 -1.42112e-10)
(493.392 4.00162 -1.6412e-10)
(493.354 3.47178 1.34519e-10)
(492.692 4.88275 2.6795e-10)
(496.411 0.114855 -6.49963e-09)
(496.396 0.392023 1.94296e-09)
(496.374 0.501183 -6.18967e-10)
(496.324 0.824943 1.27988e-12)
(496.276 0.9474 -1.63135e-10)
(496.2 1.23181 -6.02371e-10)
(496.117 1.42011 -3.78644e-10)
(496.023 1.60544 2.92291e-10)
(495.899 1.91808 6.79714e-10)
(495.793 1.94198 6.86434e-10)
(495.626 2.43866 4.70872e-10)
(495.506 2.24273 3.58273e-10)
(495.301 2.97264 1.01825e-10)
(495.164 2.51867 -2.67552e-10)
(494.924 3.49784 -4.09693e-10)
(494.763 2.80114 -2.7587e-10)
(494.503 3.95497 -2.058e-10)
(494.292 3.19956 -3.22097e-13)
(494.058 4.1941 3.08666e-10)
(493.743 3.80076 1.5687e-10)
(493.585 4.23753 -1.42323e-10)
(493.127 4.52433 -1.47997e-10)
(493.084 4.12315 1.32081e-10)
(492.43 5.43776 2.44845e-10)
(496.065 0.13268 -6.51236e-09)
(496.051 0.43656 1.92986e-09)
(496.028 0.569747 -6.41064e-10)
(495.979 0.924847 -1.10329e-11)
(495.931 1.07014 -1.63468e-10)
(495.856 1.38737 -6.10865e-10)
(495.775 1.59711 -3.9386e-10)
(495.681 1.8162 2.89518e-10)
(495.559 2.14938 6.86706e-10)
(495.454 2.20698 6.83566e-10)
(495.289 2.72452 4.59083e-10)
(495.171 2.56024 3.56661e-10)
(494.967 3.31382 1.1004e-10)
(494.832 2.8857 -2.66427e-10)
(494.593 3.89623 -4.16477e-10)
(494.436 3.21211 -2.728e-10)
(494.177 4.41872 -2.10074e-10)
(493.973 3.63891 -1.13442e-11)
(493.734 4.72999 3.05224e-10)
(493.43 4.27461 1.63703e-10)
(493.267 4.82821 -1.44348e-10)
(492.818 5.0423 -1.59069e-10)
(492.772 4.77009 1.33932e-10)
(492.126 5.98607 2.61318e-10)
(495.671 0.150322 -6.49722e-09)
(495.657 0.480549 1.95884e-09)
(495.635 0.637523 -6.2232e-10)
(495.586 1.02354 1.19926e-11)
(495.538 1.19142 -1.45142e-10)
(495.464 1.54102 -5.94051e-10)
(495.383 1.77194 -3.76783e-10)
(495.291 2.02434 3.07319e-10)
(495.17 2.37772 7.0562e-10)
(495.066 2.46866 7.00543e-10)
(494.903 3.00661 4.77434e-10)
(494.787 2.87385 3.72413e-10)
(494.585 3.65042 1.2837e-10)
(494.453 3.24849 -2.53945e-10)
(494.215 4.28909 -4.02939e-10)
(494.062 3.61894 -2.62051e-10)
(493.802 4.87435 -1.9623e-10)
(493.607 4.07452 -3.65541e-13)
(493.364 5.25839 3.19114e-10)
(493.071 4.74226 1.75233e-10)
(492.902 5.41418 -1.32281e-10)
(492.464 5.55355 -1.46904e-10)
(492.414 5.41083 1.43476e-10)
(491.778 6.52604 2.70611e-10)
(495.228 0.167752 -6.51905e-09)
(495.214 0.523937 1.94828e-09)
(495.192 0.704413 -6.32399e-10)
(495.144 1.12092 4.39782e-12)
(495.097 1.31108 -1.5229e-10)
(495.023 1.6926 -6.02355e-10)
(494.944 1.94438 -3.8175e-10)
(494.852 2.22964 3.06085e-10)
(494.733 2.60285 7.04486e-10)
(494.631 2.72673 6.99168e-10)
(494.47 3.28459 4.77802e-10)
(494.355 3.18314 3.74812e-10)
(494.155 3.98196 1.3076e-10)
(494.026 3.60645 -2.52444e-10)
(493.79 4.67593 -3.9842e-10)
(493.641 4.02092 -2.56043e-10)
(493.382 5.32173 -1.88702e-10)
(493.194 4.50584 5.89003e-12)
(492.947 5.77848 3.2958e-10)
(492.666 5.20363 1.8593e-10)
(492.492 5.99335 -1.44042e-10)
(492.065 6.0566 -1.80793e-10)
(492.011 6.04535 1.14413e-10)
(491.386 7.05727 2.39623e-10)
(494.737 0.18495 -6.52855e-09)
(494.723 0.56668 1.95195e-09)
(494.702 0.770342 -6.36133e-10)
(494.654 1.21687 -1.12032e-12)
(494.608 1.42901 -1.57714e-10)
(494.534 1.842 -6.08657e-10)
(494.457 2.1143 -3.8972e-10)
(494.366 2.43197 2.96775e-10)
(494.248 2.82461 6.95241e-10)
(494.147 2.98102 6.90108e-10)
(493.988 3.55825 4.67366e-10)
(493.876 3.48786 3.65471e-10)
(493.678 4.30817 1.19503e-10)
(493.551 3.95919 -2.62409e-10)
(493.318 5.05636 -4.1317e-10)
(493.173 4.41743 -2.69742e-10)
(492.914 5.7609 -2.05761e-10)
(492.733 4.93246 -7.41059e-12)
(492.483 6.28955 3.11143e-10)
(492.214 5.65796 1.67403e-10)
(492.035 6.56469 -1.39198e-10)
(491.62 6.55064 -1.51471e-10)
(491.563 6.67241 1.40544e-10)
(490.949 7.57913 2.66299e-10)
(494.197 0.201886 -6.5387e-09)
(494.183 0.60872 1.95263e-09)
(494.162 0.83521 -6.42927e-10)
(494.114 1.31129 -7.0645e-12)
(494.07 1.54505 -1.66393e-10)
(493.997 1.98904 -6.21384e-10)
(493.92 2.28149 -4.04127e-10)
(493.831 2.63113 2.80878e-10)
(493.715 3.04276 6.79237e-10)
(493.616 3.2313 6.71853e-10)
(493.459 3.82735 4.41183e-10)
(493.348 3.7877 3.39241e-10)
(493.152 4.62872 8.62526e-11)
(493.029 4.30626 -2.68273e-10)
(492.797 5.42994 -3.8948e-10)
(492.657 4.80779 -2.52397e-10)
(492.4 6.19172 -1.87579e-10)
(492.225 5.35404 5.05316e-12)
(491.973 6.79101 3.23723e-10)
(491.716 6.10458 1.77657e-10)
(491.532 7.12719 -1.31154e-10)
(491.13 7.03468 -1.46269e-10)
(491.069 7.29083 1.46085e-10)
(490.467 8.0911 2.69672e-10)
(493.608 0.218538 -6.54217e-09)
(493.594 0.650006 1.97823e-09)
(493.574 0.898925 -6.44593e-10)
(493.527 1.40404 -2.64755e-11)
(493.483 1.65902 -1.69782e-10)
(493.411 2.13352 -6.1301e-10)
(493.336 2.44573 -3.82928e-10)
(493.247 2.82686 3.19025e-10)
(493.133 3.25706 6.99634e-10)
(493.036 3.4773 6.72924e-10)
(492.881 4.09162 4.54388e-10)
(492.772 4.08241 3.62584e-10)
(492.579 4.94334 1.28183e-10)
(492.459 4.64733 -2.4943e-10)
(492.23 5.79631 -4.22853e-10)
(492.094 5.19149 -2.93293e-10)
(491.838 6.61379 -2.23879e-10)
(491.67 5.76998 -1.34774e-11)
(491.416 7.28236 3.18038e-10)
(491.17 6.54293 1.83264e-10)
(490.983 7.68033 -1.43633e-10)
(490.594 7.50782 -1.75063e-10)
(490.53 7.89916 1.29475e-10)
(489.941 8.59262 2.67159e-10)
(492.97 0.234881 -6.56942e-09)
(492.956 0.690487 1.9411e-09)
(492.936 0.961401 -6.36701e-10)
(492.89 1.49501 3.01022e-11)
(492.847 1.77077 -1.44513e-10)
(492.776 2.27525 -6.10788e-10)
(492.702 2.60676 -4.02923e-10)
(492.615 3.01891 2.74068e-10)
(492.503 3.4672 6.98047e-10)
(492.407 3.71872 7.15693e-10)
(492.255 4.35075 4.75403e-10)
(492.149 4.37164 3.5672e-10)
(491.958 5.25172 9.34086e-11)
(491.841 4.98204 -2.71418e-10)
(491.614 6.15515 -3.99029e-10)
(491.483 5.56807 -2.64142e-10)
(491.229 7.02665 -2.13553e-10)
(491.068 6.17956 -2.47302e-11)
(490.813 7.76301 2.77452e-10)
(490.579 6.97273 1.54042e-10)
(490.387 8.22371 -1.30805e-10)
(490.011 7.96919 -1.50769e-10)
(489.946 8.49616 1.29898e-10)
(489.369 9.08318 2.42111e-10)
(492.283 0.250896 -6.56657e-09)
(492.269 0.730118 1.99391e-09)
(492.25 1.02256 -6.44713e-10)
(492.204 1.58408 -2.96686e-11)
(492.162 1.88013 -1.72365e-10)
(492.092 2.41403 -6.12057e-10)
(492.02 2.76435 -3.74925e-10)
(491.934 3.20698 3.28438e-10)
(491.824 3.67285 7.03433e-10)
(491.731 3.9552 6.75752e-10)
(491.58 4.60438 4.61432e-10)
(491.477 4.65503 3.70503e-10)
(491.289 5.55352 1.37462e-10)
(491.175 5.31004 -2.75423e-10)
(490.951 6.50613 -4.55798e-10)
(490.824 5.93708 -2.89524e-10)
(490.573 7.42996 -2.13804e-10)
(490.419 6.58197 3.03651e-13)
(490.163 8.23217 3.33543e-10)
(489.941 7.39372 1.60454e-10)
(489.745 8.75664 -1.69924e-10)
(489.384 8.41848 -1.6395e-10)
(489.314 9.08127 1.43577e-10)
(488.752 9.56206 2.7997e-10)
(491.546 0.26656 -6.59445e-09)
(491.533 0.768854 1.96004e-09)
(491.514 1.08232 -6.64224e-10)
(491.468 1.67115 -3.35644e-11)
(491.427 1.98696 -1.62173e-10)
(491.359 2.54966 -5.86383e-10)
(491.288 2.91824 -3.71313e-10)
(491.204 3.39077 3.11089e-10)
(491.097 3.87367 7.01648e-10)
(491.005 4.18633 6.88018e-10)
(490.858 4.85207 4.50551e-10)
(490.757 4.93214 3.38933e-10)
(490.572 5.84831 1.17662e-10)
(490.462 5.63089 -2.45294e-10)
(490.241 6.8489 -4.05544e-10)
(490.118 6.29814 -2.66163e-10)
(489.87 7.82345 -2.10105e-10)
(489.722 6.97635 -1.59644e-11)
(489.467 8.68904 2.91524e-10)
(489.256 7.80555 1.372e-10)
(489.057 9.2776 -1.81698e-10)
(488.71 8.85637 -1.60692e-10)
(488.636 9.65492 1.61805e-10)
(488.09 10.028 2.77038e-10)
(490.76 0.281848 -6.60077e-09)
(490.747 0.806642 1.98844e-09)
(490.728 1.14059 -6.31797e-10)
(490.683 1.75608 2.09376e-11)
(490.643 2.09108 -1.39312e-10)
(490.576 2.68194 -5.91806e-10)
(490.507 3.06819 -3.63692e-10)
(490.425 3.57 3.3644e-10)
(490.32 4.0693 7.43737e-10)
(490.231 4.41174 7.01004e-10)
(490.086 5.0934 4.34887e-10)
(489.988 5.20247 3.35506e-10)
(489.807 6.13561 8.4474e-11)
(489.7 5.9441 -2.97598e-10)
(489.482 7.18303 -4.48085e-10)
(489.365 6.65083 -2.91439e-10)
(489.119 8.20687 -2.27083e-10)
(488.978 7.36196 -1.92549e-11)
(488.724 9.13295 3.04854e-10)
(488.524 8.20794 1.65507e-10)
(488.322 9.78617 -1.38334e-10)
(487.99 9.2824 -1.46353e-10)
(487.912 10.2163 1.50987e-10)
(487.381 10.4804 2.81442e-10)
(489.924 0.296733 -6.6224e-09)
(489.91 0.843417 1.97928e-09)
(489.892 1.19727 -6.5383e-10)
(489.848 1.83874 -5.43715e-12)
(489.81 2.19233 -1.72539e-10)
(489.744 2.81066 -6.36112e-10)
(489.677 3.21394 -4.09786e-10)
(489.597 3.74437 2.87638e-10)
(489.494 4.25942 6.86807e-10)
(489.407 4.63104 6.77882e-10)
(489.265 5.32792 4.48302e-10)
(489.171 5.46555 3.39943e-10)
(488.993 6.4149 7.99155e-11)
(488.89 6.2491 -3.06413e-10)
(488.676 7.50798 -4.66631e-10)
(488.563 6.99458 -3.14419e-10)
(488.32 8.57979 -2.14389e-10)
(488.186 7.7383 2.18073e-11)
(487.934 9.56345 3.45026e-10)
(487.745 8.60047 1.91724e-10)
(487.54 10.2819 -1.17723e-10)
(487.224 9.69625 -1.35111e-10)
(487.141 10.7648 1.59543e-10)
(486.627 10.919 2.86045e-10)
(489.037 0.311179 -6.65404e-09)
(489.024 0.879102 1.99503e-09)
(489.007 1.25223 -6.26237e-10)
(488.963 1.91897 -6.50678e-13)
(488.926 2.29049 -1.47242e-10)
(488.861 2.93559 -5.88027e-10)
(488.796 3.35522 -3.88342e-10)
(488.718 3.9136 2.84781e-10)
(488.618 4.44369 7.06509e-10)
(488.534 4.84386 7.18114e-10)
(488.395 5.55523 4.62471e-10)
(488.305 5.7209 3.69829e-10)
(488.13 6.68567 1.29603e-10)
(488.031 6.54531 -2.87083e-10)
(487.821 7.82319 -4.22077e-10)
(487.714 7.32877 -2.54873e-10)
(487.474 8.94165 -2.19333e-10)
(487.347 8.10481 -4.04334e-11)
(487.096 9.98014 2.95743e-10)
(486.919 8.98273 1.64682e-10)
(486.712 10.7641 -1.713e-10)
(486.411 10.0976 -1.63188e-10)
(486.324 11.2998 1.47501e-10)
(485.827 11.3432 2.49827e-10)
(488.101 0.325147 -6.65029e-09)
(488.087 0.913607 2.01149e-09)
(488.071 1.30534 -6.28286e-10)
(488.028 1.99658 3.37307e-11)
(487.992 2.38535 -1.29535e-10)
(487.929 3.05648 -6.27324e-10)
(487.866 3.49177 -4.34585e-10)
(487.79 4.07738 2.77116e-10)
(487.693 4.62178 6.90125e-10)
(487.611 5.04985 6.88231e-10)
(487.476 5.77493 4.63216e-10)
(487.389 5.96808 3.6591e-10)
(487.218 6.94743 1.20043e-10)
(487.124 6.83216 -2.62469e-10)
(486.918 8.12806 -4.04194e-10)
(486.816 7.65273 -2.50925e-10)
(486.58 9.29187 -1.81264e-10)
(486.46 8.46078 -1.56962e-11)
(486.212 10.3827 2.67978e-10)
(486.046 9.35433 1.3224e-10)
(485.836 11.2323 -1.71865e-10)
(485.551 10.4861 -1.75893e-10)
(485.46 11.8207 1.21427e-10)
(484.98 11.7526 2.59072e-10)
(487.113 0.338597 -6.68674e-09)
(487.1 0.946841 1.96926e-09)
(487.084 1.35644 -6.53582e-10)
(487.043 2.07136 3.40286e-11)
(487.008 2.47665 -1.53519e-10)
(486.947 3.17305 -6.29014e-10)
(486.886 3.62326 -4.11316e-10)
(486.812 4.23541 3.22102e-10)
(486.717 4.79336 7.5521e-10)
(486.639 5.24867 7.27671e-10)
(486.508 5.98666 4.78668e-10)
(486.424 6.2067 3.52699e-10)
(486.257 7.19974 7.55301e-11)
(486.168 7.10915 -2.86046e-10)
(485.966 8.42204 -4.10255e-10)
(485.87 7.9658 -2.73069e-10)
(485.638 9.62981 -2.26418e-10)
(485.525 8.80541 -3.70014e-11)
(485.28 10.7707 3.13584e-10)
(485.125 9.71492 1.87728e-10)
(484.914 11.6856 -1.38406e-10)
(484.644 10.8614 -1.67519e-10)
(484.549 12.3271 1.08004e-10)
(484.088 12.1469 2.64244e-10)
(486.075 0.351491 -6.70842e-09)
(486.062 0.978718 1.9758e-09)
(486.047 1.4054 -6.55871e-10)
(486.006 2.14315 3.95961e-11)
(485.973 2.56416 -1.44106e-10)
(485.913 3.28502 -6.25379e-10)
(485.855 3.7494 -4.11826e-10)
(485.784 4.38733 2.73652e-10)
(485.692 4.95808 7.07564e-10)
(485.617 5.43995 7.34425e-10)
(485.489 6.19003 4.89693e-10)
(485.409 6.43638 3.62876e-10)
(485.247 7.4422 8.55451e-11)
(485.162 7.37584 -2.77936e-10)
(484.965 8.70464 -4.00993e-10)
(484.875 8.26736 -2.68777e-10)
(484.648 9.95483 -2.2156e-10)
(484.542 9.13784 -2.78591e-11)
(484.3 11.1438 3.2476e-10)
(484.156 10.0641 1.96885e-10)
(483.944 12.123 -1.28742e-10)
(483.69 11.2229 -1.58842e-10)
(483.592 12.8184 1.23158e-10)
(483.149 12.5256 2.37491e-10)
(484.985 0.363797 -6.73568e-09)
(484.973 1.00916 2.02274e-09)
(484.958 1.4521 -6.3302e-10)
(484.919 2.21175 -3.8273e-12)
(484.887 2.64768 -2.00508e-10)
(484.83 3.39214 -6.4324e-10)
(484.774 3.86987 -3.86661e-10)
(484.705 4.53282 2.91015e-10)
(484.617 5.11556 7.15054e-10)
(484.545 5.62333 7.26218e-10)
(484.421 6.38468 4.64469e-10)
(484.345 6.65674 3.78429e-10)
(484.187 7.67442 1.43729e-10)
(484.107 7.63182 -2.84006e-10)
(483.914 8.97543 -4.7149e-10)
(483.83 8.55694 -2.92926e-10)
(483.608 10.2664 -2.0576e-10)
(483.51 9.45735 -2.29889e-11)
(483.273 11.5016 3.20289e-10)
(483.139 10.4013 1.83359e-10)
(482.926 12.5435 -1.55537e-10)
(482.689 11.5697 -1.45125e-10)
(482.587 13.2935 1.7459e-10)
(482.163 12.8881 2.71466e-10)
(483.845 0.375493 -6.72509e-09)
(483.833 1.03813 2.05338e-09)
(483.819 1.49645 -6.1978e-10)
(483.781 2.27706 7.52651e-12)
(483.751 2.72701 -1.95978e-10)
(483.695 3.49417 -6.45385e-10)
(483.642 3.9844 -3.92467e-10)
(483.576 4.67155 3.35983e-10)
(483.491 5.26545 7.55298e-10)
(483.422 5.79841 7.07323e-10)
(483.302 6.57018 4.38182e-10)
(483.231 6.86737 3.48097e-10)
(483.077 7.89599 1.05314e-10)
(483.003 7.8767 -2.75231e-10)
(482.815 9.23403 -4.12076e-10)
(482.737 8.83411 -2.4394e-10)
(482.52 10.5641 -2.16954e-10)
(482.43 9.76343 -4.20664e-11)
(482.196 11.8435 2.9354e-10)
(482.073 10.7257 1.5504e-10)
(481.861 12.9465 -1.39775e-10)
(481.64 11.9011 -1.35668e-10)
(481.535 13.7512 1.80641e-10)
(481.131 13.2339 2.72207e-10)
(482.654 0.386563 -6.74105e-09)
(482.641 1.06557 2.02991e-09)
(482.629 1.53837 -6.81432e-10)
(482.591 2.33896 1.94466e-11)
(482.563 2.80202 -1.69753e-10)
(482.509 3.59094 -6.53133e-10)
(482.459 4.09275 -3.76563e-10)
(482.396 4.80325 3.15699e-10)
(482.314 5.40741 6.97019e-10)
(482.249 5.96481 7.25794e-10)
(482.133 6.74613 4.78278e-10)
(482.066 7.06785 3.4876e-10)
(481.917 8.10649 1.27692e-10)
(481.848 8.11006 -2.86887e-10)
(481.665 9.48002 -4.64781e-10)
(481.594 9.09847 -2.74819e-10)
(481.382 10.8475 -2.28469e-10)
(481.3 10.0556 -3.18988e-11)
(481.071 12.1689 3.23329e-10)
(480.958 11.0368 1.50302e-10)
(480.747 13.3314 -1.8011e-10)
(480.543 12.2163 -1.55676e-10)
(480.435 14.1901 1.21317e-10)
(480.051 13.5623 2.37717e-10)
(481.411 0.396996 -6.82163e-09)
(481.399 1.09147 2.01204e-09)
(481.387 1.57784 -6.8407e-10)
(481.351 2.39739 -1.00744e-11)
(481.324 2.87262 -1.70218e-10)
(481.273 3.68231 -6.32066e-10)
(481.224 4.19474 -3.88352e-10)
(481.164 4.92767 3.3498e-10)
(481.086 5.54114 7.45365e-10)
(481.025 6.1222 7.39235e-10)
(480.914 6.91212 5.14018e-10)
(480.851 7.25776 3.55022e-10)
(480.707 8.30547 9.84411e-11)
(480.644 8.33148 -2.93732e-10)
(480.466 9.71301 -4.42942e-10)
(480.401 9.34961 -2.80418e-10)
(480.194 11.1163 -2.1122e-10)
(480.121 10.3334 4.45171e-12)
(479.896 12.4777 3.36305e-10)
(479.794 11.3338 1.80879e-10)
(479.585 13.6975 -1.80872e-10)
(479.397 12.5149 -1.81342e-10)
(479.287 14.6099 1.22203e-10)
(478.923 13.8732 2.5413e-10)
(480.117 0.406782 -6.80321e-09)
(480.105 1.1158 2.07208e-09)
(480.094 1.61481 -6.29655e-10)
(480.059 2.4523 2.47842e-12)
(480.034 2.93873 -2.05166e-10)
(479.985 3.76819 -6.64323e-10)
(479.939 4.29025 -4.06216e-10)
(479.882 5.04466 3.30941e-10)
(479.807 5.66642 7.48088e-10)
(479.75 6.2703 7.53026e-10)
(479.643 7.06782 4.79806e-10)
(479.586 7.43669 3.32959e-10)
(479.446 8.49249 8.6257e-11)
(479.389 8.54048 -3.00675e-10)
(479.217 9.93253 -4.38524e-10)
(479.159 9.5871 -2.64589e-10)
(478.957 11.3701 -1.81511e-10)
(478.892 10.5964 4.19566e-11)
(478.672 12.7696 3.25744e-10)
(478.581 11.6158 1.28887e-10)
(478.374 14.0434 -1.69482e-10)
(478.203 12.7972 -1.60631e-10)
(478.09 15.0115 1.58028e-10)
(477.747 14.167 3.02861e-10)
(478.772 0.415906 -6.81363e-09)
(478.76 1.13852 2.04685e-09)
(478.75 1.64923 -7.08035e-10)
(478.716 2.50362 -3.80344e-12)
(478.693 3.00028 -1.35275e-10)
(478.645 3.84849 -6.29459e-10)
(478.603 4.37917 -4.18793e-10)
(478.549 5.15409 3.32985e-10)
(478.478 5.7831 7.15008e-10)
(478.425 6.4089 6.77985e-10)
(478.322 7.21295 4.80919e-10)
(478.269 7.60433 4.03618e-10)
(478.135 8.66714 1.10687e-10)
(478.084 8.73662 -3.13535e-10)
(477.917 10.1381 -4.33913e-10)
(477.866 9.81045 -2.42612e-10)
(477.67 11.6084 -2.06488e-10)
(477.613 10.8443 -2.31529e-11)
(477.399 13.0442 3.3979e-10)
(477.318 11.8821 1.55842e-10)
(477.114 14.3683 -1.88854e-10)
(476.96 13.0632 -1.66268e-10)
(476.845 15.3936 1.70761e-10)
(476.522 14.442 2.76609e-10)
(477.375 0.424353 -6.89802e-09)
(477.364 1.15961 2.02758e-09)
(477.354 1.68105 -6.98678e-10)
(477.321 2.55129 -1.65593e-11)
(477.3 3.05719 -1.83923e-10)
(477.255 3.92312 -6.56873e-10)
(477.215 4.46142 -4.07459e-10)
(477.164 5.25586 3.22605e-10)
(477.096 5.89106 7.30304e-10)
(477.047 6.53788 7.16675e-10)
(476.949 7.34734 4.88255e-10)
(476.902 7.76045 3.86611e-10)
(476.773 8.82912 1.23266e-10)
(476.727 8.91952 -2.79964e-10)
(476.566 10.3293 -4.2901e-10)
(476.523 10.0192 -2.65792e-10)
(476.333 11.8309 -2.00213e-10)
(476.284 11.0766 1.08618e-11)
(476.075 13.3013 3.47768e-10)
(476.005 12.1322 1.8918e-10)
(475.805 14.6716 -1.1981e-10)
(475.668 13.3119 -1.88578e-10)
(475.55 15.7555 1.09455e-10)
(475.249 14.6985 2.496e-10)
(475.926 0.432107 -6.8478e-09)
(475.915 1.17903 2.09901e-09)
(475.907 1.71022 -6.59207e-10)
(475.875 2.59522 2.33202e-11)
(475.856 3.10938 -1.5384e-10)
(475.813 3.99201 -6.33352e-10)
(475.776 4.5369 -3.89487e-10)
(475.728 5.3499 3.37423e-10)
(475.664 5.99022 7.39702e-10)
(475.619 6.65716 7.1901e-10)
(475.525 7.47089 4.83098e-10)
(475.483 7.90491 3.6911e-10)
(475.359 8.97822 9.76035e-11)
(475.32 9.0889 -3.05438e-10)
(475.165 10.5057 -4.69244e-10)
(475.128 10.2128 -3.13139e-10)
(474.945 12.0369 -2.52741e-10)
(474.905 11.2926 2.27783e-11)
(474.702 13.5403 3.49696e-10)
(474.642 12.3658 1.78447e-10)
(474.446 14.9529 -1.33031e-10)
(474.325 13.543 -1.49755e-10)
(474.205 16.0963 1.48287e-10)
(473.926 14.9357 2.78911e-10)
(474.426 0.439152 -6.89082e-09)
(474.416 1.19674 2.07918e-09)
(474.408 1.73669 -6.99417e-10)
(474.378 2.63537 2.32006e-11)
(474.36 3.15677 -1.66896e-10)
(474.319 4.05505 -6.6223e-10)
(474.285 4.60552 -3.77506e-10)
(474.24 5.43612 3.33202e-10)
(474.18 6.08051 7.2348e-10)
(474.139 6.76668 7.47008e-10)
(474.05 7.58352 4.90807e-10)
(474.012 8.03767 3.63695e-10)
(473.894 9.11432 1.36515e-10)
(473.861 9.24465 -2.88495e-10)
(473.712 10.667 -4.64499e-10)
(473.683 10.3909 -2.65758e-10)
(473.506 12.226 -2.20177e-10)
(473.474 11.4919 -2.36697e-11)
(473.278 13.7608 3.51365e-10)
(473.229 12.5822 1.6721e-10)
(473.037 15.2126 -1.73478e-10)
(472.932 13.757 -1.38446e-10)
(472.81 16.4147 1.49477e-10)
(472.554 15.1526 2.56929e-10)
(472.875 0.445482 -6.96879e-09)
(472.864 1.21273 2.08744e-09)
(472.857 1.76042 -6.64399e-10)
(472.828 2.67167 -1.74746e-11)
(472.813 3.1993 -1.61211e-10)
(472.774 4.11218 -6.17426e-10)
(472.742 4.66721 -4.16936e-10)
(472.701 5.51443 3.41958e-10)
(472.645 6.16183 7.72256e-10)
(472.607 6.86637 7.10588e-10)
(472.523 7.68519 4.98571e-10)
(472.491 8.15871 4.15541e-10)
(472.377 9.23741 1.0333e-10)
(472.351 9.38673 -2.83758e-10)
(472.207 10.8132 -4.12492e-10)
(472.186 10.5535 -2.96765e-10)
(472.015 12.3979 -2.13987e-10)
(471.993 11.6738 2.45441e-11)
(471.802 13.9621 3.19061e-10)
(471.765 12.7805 1.73391e-10)
(471.578 15.4506 -1.20097e-10)
(471.488 13.9542 -1.67884e-10)
(471.365 16.71 1.57011e-10)
(471.131 15.3488 3.04974e-10)
(471.271 0.451095 -6.95798e-09)
(471.261 1.227 2.13338e-09)
(471.255 1.78143 -6.35111e-10)
(471.227 2.70413 1.76992e-11)
(471.214 3.23695 -2.00605e-10)
(471.177 4.16336 -6.60839e-10)
(471.148 4.72191 -3.84912e-10)
(471.109 5.58476 3.71044e-10)
(471.057 6.23411 8.02126e-10)
(471.024 6.95616 7.46269e-10)
(470.944 7.77581 4.59574e-10)
(470.917 8.26798 3.71351e-10)
(470.809 9.34745 1.30245e-10)
(470.789 9.51518 -2.59758e-10)
(470.651 10.9443 -3.93592e-10)
(470.637 10.7004 -2.78757e-10)
(470.472 12.5524 -2.62914e-10)
(470.459 11.8381 -1.77714e-11)
(470.275 14.1438 3.34487e-10)
(470.249 12.9598 1.85916e-10)
(470.068 15.6667 -9.999e-11)
(469.992 14.1347 -1.56682e-10)
(469.868 16.9815 1.03167e-10)
(469.658 15.5239 2.58196e-10)
(469.616 0.456 -7.04536e-09)
(469.606 1.23956 2.06749e-09)
(469.6 1.79973 -7.2274e-10)
(469.574 2.73277 -3.14533e-11)
(469.563 3.26975 -2.01441e-10)
(469.528 4.2086 -6.84242e-10)
(469.502 4.7696 -4.32295e-10)
(469.466 5.64709 3.04953e-10)
(469.418 6.2973 7.18039e-10)
(469.389 7.03595 7.01729e-10)
(469.314 7.8553 4.60827e-10)
(469.292 8.36539 3.52509e-10)
(469.189 9.44438 8.23136e-11)
(469.175 9.62999 -3.25994e-10)
(469.043 11.0602 -4.85095e-10)
(469.037 10.8318 -3.17422e-10)
(468.878 12.6895 -2.56592e-10)
(468.874 11.9849 -3.60484e-11)
(468.696 14.3057 2.94178e-10)
(468.681 13.1198 1.31538e-10)
(468.506 15.8602 -1.91679e-10)
(468.445 14.2979 -1.93401e-10)
(468.321 17.2288 1.1087e-10)
(468.134 15.6775 2.47166e-10)
(467.909 0.460208 -7.00847e-09)
(467.899 1.25045 2.11523e-09)
(467.894 1.81537 -7.12993e-10)
(467.869 2.75763 3.30787e-11)
(467.859 3.29775 -1.62083e-10)
(467.827 4.24796 -6.65791e-10)
(467.804 4.81035 -3.65589e-10)
(467.771 5.70143 3.5574e-10)
(467.727 6.35137 7.48518e-10)
(467.702 7.10572 7.79309e-10)
(467.631 7.92357 5.17413e-10)
(467.614 8.45085 3.80281e-10)
(467.517 9.52807 1.58672e-10)
(467.509 9.73106 -2.75095e-10)
(467.383 11.1609 -4.51768e-10)
(467.384 10.9478 -3.05174e-10)
(467.232 12.8094 -2.64341e-10)
(467.237 12.1142 2.08912e-12)
(467.065 14.4479 3.17445e-10)
(467.061 13.2603 1.31961e-10)
(466.892 16.0307 -1.42613e-10)
(466.846 14.4426 -1.69442e-10)
(466.723 17.4508 1.11663e-10)
(466.559 15.8095 2.91413e-10)
(466.15 0.463733 -7.03072e-09)
(466.14 1.25968 2.13243e-09)
(466.136 1.82839 -7.09799e-10)
(466.112 2.77879 4.06576e-11)
(466.104 3.32103 -1.56005e-10)
(466.074 4.28152 -6.61457e-10)
(466.054 4.84421 -3.59438e-10)
(466.024 5.74786 3.65185e-10)
(465.983 6.39638 7.58496e-10)
(465.962 7.16548 7.20004e-10)
(465.897 7.98059 4.56188e-10)
(465.884 8.52428 3.94925e-10)
(465.793 9.5984 1.02531e-10)
(465.791 9.81826 -3.29818e-10)
(465.671 11.2463 -4.3949e-10)
(465.68 11.0482 -2.92874e-10)
(465.533 12.9121 -2.51058e-10)
(465.547 12.2263 1.53586e-11)
(465.382 14.5708 3.33935e-10)
(465.389 13.3815 1.44912e-10)
(465.225 16.1788 -1.2921e-10)
(465.193 14.5674 -1.57824e-10)
(465.073 17.6459 1.33607e-10)
(464.932 15.92 3.11435e-10)
(464.338 0.466584 -7.07929e-09)
(464.329 1.2673 2.18875e-09)
(464.326 1.83884 -6.85871e-10)
(464.303 2.79629 -1.78653e-11)
(464.297 3.33966 -1.56878e-10)
(464.269 4.30935 -6.06377e-10)
(464.251 4.87129 -3.87719e-10)
(464.225 5.78646 3.17931e-10)
(464.187 6.43241 7.68756e-10)
(464.17 7.21529 7.85634e-10)
(464.109 8.02639 5.06957e-10)
(464.102 8.58568 3.61655e-10)
(464.016 9.65529 1.23792e-10)
(464.02 9.89145 -2.57309e-10)
(463.907 11.3161 -4.55337e-10)
(463.923 11.1328 -3.19994e-10)
(463.783 12.9973 -2.22951e-10)
(463.806 12.3212 2.88278e-11)
(463.647 14.6744 3.36141e-10)
(463.665 13.4838 1.32661e-10)
(463.506 16.3052 -1.59371e-10)
(463.488 14.6716 -1.39506e-10)
(463.372 17.8125 1.41812e-10)
(463.254 16.0089 2.43671e-10)
(462.475 0.468767 -7.13738e-09)
(462.465 1.2733 2.12789e-09)
(462.463 1.84675 -7.22882e-10)
(462.442 2.81016 -3.29089e-11)
(462.437 3.3537 -2.19707e-10)
(462.411 4.33152 -7.18141e-10)
(462.396 4.89167 -3.95651e-10)
(462.372 5.81733 4.13485e-10)
(462.339 6.45956 8.21558e-10)
(462.326 7.25526 7.95661e-10)
(462.269 8.06106 5.37014e-10)
(462.267 8.63511 4.11275e-10)
(462.186 9.69873 1.31063e-10)
(462.197 9.95059 -2.9275e-10)
(462.089 11.3703 -4.64269e-10)
(462.113 11.2015 -3.07395e-10)
(461.98 13.0647 -2.52906e-10)
(462.012 12.3984 -3.62504e-11)
(461.859 14.7584 2.8649e-10)
(461.888 13.5673 1.13692e-10)
(461.736 16.41 -1.53251e-10)
(461.731 14.7557 -1.0799e-10)
(461.618 17.9508 2.0195e-10)
(461.522 16.0753 3.20815e-10)
(460.558 0.470285 -7.19634e-09)
(460.549 1.2777 2.1455e-09)
(460.548 1.85213 -6.91941e-10)
(460.528 2.82043 -4.0306e-11)
(460.525 3.36315 -2.00142e-10)
(460.5 4.34806 -6.69373e-10)
(460.488 4.90538 -3.89602e-10)
(460.468 5.84053 3.80015e-10)
(460.438 6.47792 7.40077e-10)
(460.429 7.28549 7.41576e-10)
(460.377 8.08471 5.17247e-10)
(460.38 8.67269 3.49435e-10)
(460.304 9.72881 9.47915e-11)
(460.321 9.99572 -3.01156e-10)
(460.219 11.4086 -4.44271e-10)
(460.251 11.254 -2.60928e-10)
(460.124 13.114 -2.46169e-10)
(460.166 12.4577 -2.9139e-12)
(460.019 14.8224 3.55176e-10)
(460.059 13.6314 1.26836e-10)
(459.912 16.4932 -1.8455e-10)
(459.922 14.8202 -1.66048e-10)
(459.812 18.0615 1.65488e-10)
(459.737 16.1199 3.09122e-10)
(458.589 0.471133 -7.15762e-09)
(458.581 1.28049 2.17932e-09)
(458.58 1.85496 -7.15847e-10)
(458.561 2.82709 -2.54697e-11)
(458.56 3.36803 -2.15035e-10)
(458.537 4.35897 -6.49871e-10)