/*--------------------------------*- C++ -*----------------------------------*\
  =========                 |
  \\      /  F ield         | OpenFOAM: The Open Source CFD Toolbox
   \\    /   O peration     | Website:  https://openfoam.org
    \\  /    A nd           | Version:  10
     \\/     M anipulation  |
\*---------------------------------------------------------------------------*/
FoamFile
{
    format      ascii;
    class       surfaceScalarField;
    location    "0.44";
    object      phi;
}
// * * * * * * * * * * * * * * * * * * * * * * * * * * * * * * * * * * * * * //

dimensions      [1 0 -1 0 0 0 0];

internalField   nonuniform List<scalar> 
8154
(
-5.85451e-09
-2.22526e-08
-5.71257e-08
-9.23832e-08
-1.7195e-07
-2.26104e-07
-3.69627e-07
-4.53012e-07
-6.73571e-07
-8.1337e-07
-1.10478e-06
-1.33815e-06
-1.66839e-06
-2.02705e-06
-2.36069e-06
-2.86603e-06
-3.25538e-06
-3.98583e-06
-4.56435e-06
-5.50758e-06
-6.82553e-06
-7.25201e-06
-6.85275e-06
-0.000277438
-0.000832367
2.39938e-08
-0.00138746
9.61253e-08
-0.00194288
2.13005e-07
-0.00249867
3.77678e-07
-0.00305503
5.76797e-07
-0.00361202
8.23485e-07
-0.00416972
1.08882e-06
-0.00472845
1.39881e-06
-0.0052879
1.71197e-06
-0.00584878
2.05671e-06
-0.00641056
2.40218e-06
-0.00697376
2.74734e-06
-0.00753865
3.11985e-06
-0.00810415
3.43659e-06
-0.00867308
3.85042e-06
-0.00924024
4.12666e-06
-0.00981489
4.57394e-06
-0.0103833
4.92557e-06
-0.0109645
5.14029e-06
-0.0115338
5.2804e-06
-0.0121235
5.11526e-06
-0.0126947
4.03134e-06
-0.013293
2.44835e-06
-0.000277462
-0.00083244
2.6307e-08
-0.00138758
1.04673e-07
-0.00194305
2.3441e-07
-0.00249887
4.09811e-07
-0.00305527
6.34759e-07
-0.00361229
8.89583e-07
-0.00417003
1.19505e-06
-0.00472876
1.50216e-06
-0.00528825
1.86778e-06
-0.00584913
2.19121e-06
-0.0064109
2.59265e-06
-0.00697414
2.89197e-06
-0.00753897
3.29857e-06
-0.00810456
3.53975e-06
-0.00867336
3.90471e-06
-0.00924069
4.10544e-06
-0.00981524
4.39046e-06
-0.0103835
5.00295e-06
-0.0109647
4.66807e-06
-0.0115337
5.23368e-06
-0.0121224
5.32911e-06
-0.0126931
5.04355e-06
-0.0132906
4.22886e-06
-0.000277489
-0.000832518
2.12468e-08
-0.00138771
8.47989e-08
-0.00194322
1.87768e-07
-0.0024991
3.30198e-07
-0.00305553
5.01468e-07
-0.00361259
7.07377e-07
-0.00417034
9.23042e-07
-0.00472913
1.16741e-06
-0.00528857
1.39479e-06
-0.00584953
1.64228e-06
-0.0064112
1.84561e-06
-0.00697454
2.04901e-06
-0.00753921
2.19705e-06
-0.00810493
2.2845e-06
-0.00867356
2.35442e-06
-0.00924097
2.2073e-06
-0.00981585
2.34402e-06
-0.0103832
1.90059e-06
-0.0109653
1.78591e-06
-0.0115338
1.39374e-06
-0.0121221
1.15174e-06
-0.0126923
7.2041e-07
-0.0132864
5.19067e-07
-0.00027751
-0.000832582
2.54851e-08
-0.00138781
1.01772e-07
-0.00194336
2.25769e-07
-0.00249927
3.97526e-07
-0.00305573
6.05257e-07
-0.00361281
8.55727e-07
-0.00417058
1.11985e-06
-0.00472936
1.42149e-06
-0.00528882
1.70305e-06
-0.00584973
2.0172e-06
-0.00641141
2.27139e-06
-0.00697469
2.5476e-06
-0.0075393
2.7335e-06
-0.008105
2.89591e-06
-0.00867341
2.98614e-06
-0.00924111
2.89844e-06
-0.00981541
2.97505e-06
-0.010383
2.28516e-06
-0.0109649
2.52306e-06
-0.0115335
1.7269e-06
-0.0121217
1.20021e-06
-0.0126921
3.80697e-07
-0.0132858
-1.65968e-07
-0.000277535
-0.000832658
3.36042e-08
-0.00138794
1.34154e-07
-0.00194354
2.98958e-07
-0.00249947
5.26236e-07
-0.00305598
8.07658e-07
-0.00361307
1.1418e-06
-0.00417088
1.51232e-06
-0.00472964
1.91998e-06
-0.00528913
2.33946e-06
-0.00584999
2.77352e-06
-0.00641168
3.19342e-06
-0.00697487
3.59525e-06
-0.00753946
3.96418e-06
-0.00810509
4.25972e-06
-0.00867332
4.52299e-06
-0.00924118
4.61564e-06
-0.00981472
4.73123e-06
-0.0103833
4.4025e-06
-0.0109641
4.37169e-06
-0.011533
3.67447e-06
-0.0121209
3.2045e-06
-0.0126915
2.27151e-06
-0.013286
1.35672e-06
-0.000277569
-0.000832758
3.75336e-08
-0.0013881
1.49845e-07
-0.00194376
3.34211e-07
-0.00249976
5.88337e-07
-0.00305632
9.04174e-07
-0.00361344
1.27855e-06
-0.00417129
1.69654e-06
-0.00473006
2.1547e-06
-0.00528957
2.63127e-06
-0.00585041
3.12106e-06
-0.00641209
3.60167e-06
-0.00697524
4.05751e-06
-0.00753976
4.48188e-06
-0.00810536
4.82272e-06
-0.00867341
5.12502e-06
-0.0092413
5.25014e-06
-0.00981439
5.36988e-06
-0.0103832
5.08385e-06
-0.0109634
4.97233e-06
-0.0115325
4.21784e-06
-0.0121199
3.67067e-06
-0.0126906
2.64081e-06
-0.0132846
1.62157e-06
-0.000277606
-0.000832871
4.13754e-08
-0.00138829
1.6519e-07
-0.00194402
3.68554e-07
-0.00250007
6.489e-07
-0.00305669
9.97743e-07
-0.00361386
1.41148e-06
-0.00417175
1.8744e-06
-0.00473054
2.38258e-06
-0.00529006
2.9126e-06
-0.00585089
3.45904e-06
-0.00641254
3.99581e-06
-0.00697567
4.50843e-06
-0.0075401
4.98283e-06
-0.00810566
5.37222e-06
-0.00867354
5.70849e-06
-0.00924142
5.86308e-06
-0.0098141
5.99755e-06
-0.0103831
5.71963e-06
-0.0109626
5.60093e-06
-0.011532
4.81155e-06
-0.0121189
4.19941e-06
-0.0126896
2.99078e-06
-0.013283
1.80239e-06
-0.000277648
-0.000832995
4.508e-08
-0.00138849
1.79966e-07
-0.0019443
4.01581e-07
-0.00250042
7.06935e-07
-0.00305711
1.08724e-06
-0.00361433
1.53803e-06
-0.00417226
2.04348e-06
-0.00473107
2.59816e-06
-0.0052906
3.17893e-06
-0.00585142
3.77768e-06
-0.00641306
4.36863e-06
-0.00697614
4.93345e-06
-0.00754049
5.45713e-06
-0.008106
5.89031e-06
-0.0086737
6.25965e-06
-0.00924155
6.44229e-06
-0.00981382
6.58174e-06
-0.010383
6.32949e-06
-0.0109619
6.17684e-06
-0.0115313
5.37591e-06
-0.0121177
4.82724e-06
-0.0126884
3.3623e-06
-0.0132812
2.01859e-06
-0.000277693
-0.000833129
4.87352e-08
-0.00138871
1.94533e-07
-0.0019446
4.34086e-07
-0.0025008
7.63952e-07
-0.00305756
1.17489e-06
-0.00361483
1.66161e-06
-0.00417281
2.20791e-06
-0.00473165
2.80718e-06
-0.0052912
3.43605e-06
-0.00585201
4.08477e-06
-0.00641362
4.72695e-06
-0.00697666
5.3421e-06
-0.00754092
5.91294e-06
-0.00810637
6.38882e-06
-0.00867388
6.78984e-06
-0.00924169
6.99794e-06
-0.00981357
7.1377e-06
-0.0103828
6.90418e-06
-0.010961
6.72583e-06
-0.0115307
5.89267e-06
-0.0121163
4.8744e-06
-0.0126871
3.69253e-06
-0.0132792
2.20718e-06
-0.000277742
-0.000833275
5.23391e-08
-0.00138895
2.08892e-07
-0.00194493
4.66106e-07
-0.00250121
8.20066e-07
-0.00305804
1.26099e-06
-0.00361538
1.78276e-06
-0.00417341
2.36858e-06
-0.00473228
3.01068e-06
-0.00529185
3.68526e-06
-0.00585266
4.38119e-06
-0.00641424
5.07143e-06
-0.00697723
5.73394e-06
-0.00754139
6.34939e-06
-0.00810677
6.8662e-06
-0.00867409
7.29819e-06
-0.00924183
7.52968e-06
-0.00981333
7.66834e-06
-0.0103827
7.44857e-06
-0.0109602
7.24729e-06
-0.0115301
6.39953e-06
-0.0121148
5.59718e-06
-0.0126856
4.0329e-06
-0.013277
2.39838e-06
-0.000277794
-0.000833432
5.5906e-08
-0.00138921
2.23106e-07
-0.00194529
4.97817e-07
-0.00250165
8.75663e-07
-0.00305856
1.3463e-06
-0.00361596
1.90273e-06
-0.00417405
2.52739e-06
-0.00473296
3.21135e-06
-0.00529255
3.93004e-06
-0.00585335
4.67107e-06
-0.0064149
5.40651e-06
-0.00697785
6.11332e-06
-0.00754191
6.7702e-06
-0.0081072
7.32559e-06
-0.00867432
7.78768e-06
-0.00924197
8.04367e-06
-0.00981312
8.18827e-06
-0.0103825
7.97091e-06
-0.0109594
7.74294e-06
-0.0115293
6.86298e-06
-0.0121132
6.01004e-06
-0.0126839
4.35428e-06
-0.0132746
2.58365e-06
-0.00027785
-0.000833599
5.94281e-08
-0.00138948
2.3715e-07
-0.00194566
5.29178e-07
-0.00250212
9.30722e-07
-0.00305912
1.43088e-06
-0.00361659
2.02178e-06
-0.00417474
2.68501e-06
-0.00473367
3.41035e-06
-0.00529329
4.17222e-06
-0.00585408
4.95688e-06
-0.00641561
5.73521e-06
-0.0069785
6.48334e-06
-0.00754247
7.17805e-06
-0.00810766
7.76845e-06
-0.00867458
8.25773e-06
-0.00924211
8.53663e-06
-0.0098129
8.68792e-06
-0.0103822
8.46837e-06
-0.0109585
8.20573e-06
-0.0115284
7.28813e-06
-0.0121116
6.37693e-06
-0.0126822
4.64914e-06
-0.013272
2.75346e-06
-0.000277909
-0.000833777
6.29047e-08
-0.00138978
2.51019e-07
-0.00194607
5.6018e-07
-0.00250262
9.85227e-07
-0.00305971
1.51473e-06
-0.00361725
2.14001e-06
-0.00417546
2.84173e-06
-0.00473444
3.60838e-06
-0.00529407
4.41313e-06
-0.00585486
5.24075e-06
-0.00641635
6.06056e-06
-0.00697919
6.84778e-06
-0.00754306
7.5771e-06
-0.00810815
8.19875e-06
-0.00867486
8.71146e-06
-0.00924226
9.01008e-06
-0.00981268
9.16553e-06
-0.010382
8.94665e-06
-0.0109576
8.64444e-06
-0.0115275
7.68125e-06
-0.0121099
6.70923e-06
-0.0126803
4.89294e-06
-0.0132692
2.90046e-06
-0.000277972
-0.000833965
6.63379e-08
-0.00139008
2.64713e-07
-0.00194649
5.90803e-07
-0.00250315
1.03911e-06
-0.00306034
1.5977e-06
-0.00361795
2.25714e-06
-0.00417623
2.99721e-06
-0.00473524
3.80511e-06
-0.0052949
4.65272e-06
-0.00585568
5.52314e-06
-0.00641714
6.38392e-06
-0.00697992
7.20902e-06
-0.00754368
7.97072e-06
-0.00810867
8.62024e-06
-0.00867516
9.15229e-06
-0.00924242
9.46661e-06
-0.00981246
9.62468e-06
-0.0103817
9.40842e-06
-0.0109566
9.06438e-06
-0.0115265
8.05594e-06
-0.0121081
7.01398e-06
-0.0126783
5.05228e-06
-0.0132663
3.02651e-06
-0.000278038
-0.000834163
6.97345e-08
-0.00139041
2.78256e-07
-0.00194694
6.21067e-07
-0.00250371
1.09233e-06
-0.003061
1.67962e-06
-0.00361869
2.3728e-06
-0.00417704
3.1508e-06
-0.00473609
3.99966e-06
-0.00529577
4.88996e-06
-0.00585654
5.8032e-06
-0.00641797
6.70498e-06
-0.00698068
7.56775e-06
-0.00754432
8.36102e-06
-0.0081092
9.03644e-06
-0.00867547
9.58438e-06
-0.00924258
9.90953e-06
-0.00981224
1.00663e-05
-0.0103813
9.85012e-06
-0.0109556
9.46527e-06
-0.0115255
8.41786e-06
-0.0121061
7.3125e-06
-0.0126763
5.27244e-06
-0.0132633
3.15933e-06
-0.000278108
-0.000834372
7.30976e-08
-0.00139075
2.91656e-07
-0.00194741
6.50973e-07
-0.0025043
1.14483e-06
-0.00306169
1.76029e-06
-0.00361947
2.48653e-06
-0.00417789
3.30167e-06
-0.00473698
4.19072e-06
-0.00529668
5.12308e-06
-0.00585744
6.0788e-06
-0.00641883
7.02164e-06
-0.00698148
7.92238e-06
-0.007545
8.74762e-06
-0.00810975
9.4488e-06
-0.0086758
1.00115e-05
-0.00924274
1.03442e-05
-0.00981203
1.04931e-05
-0.010381
1.02643e-05
-0.0109545
9.8454e-06
-0.0115243
8.75969e-06
-0.0121041
7.59283e-06
-0.0126742
5.49123e-06
-0.0132601
3.28374e-06
-0.000278181
-0.00083459
7.64179e-08
-0.00139111
3.04873e-07
-0.0019479
6.80417e-07
-0.00250491
1.1964e-06
-0.00306242
1.83933e-06
-0.00362029
2.59766e-06
-0.00417877
3.44875e-06
-0.00473791
4.37668e-06
-0.00529764
5.34982e-06
-0.00585838
6.347e-06
-0.00641973
7.33034e-06
-0.0069823
8.26914e-06
-0.0075457
9.12713e-06
-0.00811031
9.85515e-06
-0.00867613
1.04339e-05
-0.00924289
1.07745e-05
-0.0098118
1.09145e-05
-0.0103805
1.06693e-05
-0.0109535
1.02152e-05
-0.0115232
9.09194e-06
-0.012102
7.86258e-06
-0.012672
5.69234e-06
-0.0132568
3.40083e-06
-0.000278258
-0.000834819
7.96695e-08
-0.00139149
3.17803e-07
-0.00194842
7.09182e-07
-0.00250556
1.24669e-06
-0.00306317
1.9162e-06
-0.00362114
2.70545e-06
-0.0041797
3.59099e-06
-0.00473889
4.55604e-06
-0.00529864
5.56806e-06
-0.00585936
6.6049e-06
-0.00642067
7.62735e-06
-0.00698316
8.60346e-06
-0.00754643
9.4945e-06
-0.00811089
1.02505e-05
-0.00867647
1.08475e-05
-0.00924303
1.11983e-05
-0.00981155
1.13316e-05
-0.0103801
1.10721e-05
-0.0109523
1.05785e-05
-0.011522
9.42066e-06
-0.0120998
8.12874e-06
-0.0126697
5.88763e-06
-0.0132534
3.51297e-06
-0.000278337
-0.000835057
8.27949e-08
-0.00139188
3.30227e-07
-0.00194896
7.36808e-07
-0.00250623
1.29494e-06
-0.00306396
1.98988e-06
-0.00362202
2.80859e-06
-0.00418067
3.72679e-06
-0.0047399
4.72685e-06
-0.00529967
5.77534e-06
-0.00586039
6.84933e-06
-0.00642165
7.90851e-06
-0.00698405
8.92007e-06
-0.00754718
9.84327e-06
-0.00811149
1.06277e-05
-0.00867682
1.1245e-05
-0.00924316
1.16091e-05
-0.00981129
1.17397e-05
-0.0103796
1.14686e-05
-0.0109512
1.09352e-05
-0.0115207
9.74939e-06
-0.0120976
8.3975e-06
-0.0126673
6.08234e-06
-0.0132499
3.62257e-06
-0.00027842
-0.000835304
8.57174e-08
-0.00139229
3.41849e-07
-0.00194951
7.62675e-07
-0.00250692
1.34017e-06
-0.00306478
2.059e-06
-0.00362294
2.90538e-06
-0.00418167
3.85417e-06
-0.00474095
4.88686e-06
-0.00530075
5.96912e-06
-0.00586145
7.07728e-06
-0.00642266
8.17007e-06
-0.00698497
9.21411e-06
-0.00754797
1.01671e-05
-0.00811211
1.09786e-05
-0.00867719
1.16169e-05
-0.00924329
1.19969e-05
-0.00981102
1.213e-05
-0.0103791
1.18519e-05
-0.01095
1.1283e-05
-0.0115193
1.00778e-05
-0.0120953
8.67143e-06
-0.0126649
6.28255e-06
-0.0132462
3.73276e-06
-0.000278506
-0.000835561
8.83484e-08
-0.00139271
3.52326e-07
-0.00195009
7.86048e-07
-0.00250764
1.38116e-06
-0.00306563
2.12184e-06
-0.00362389
2.99362e-06
-0.0041827
3.97054e-06
-0.00474203
5.03321e-06
-0.00530186
6.14632e-06
-0.00586254
7.28539e-06
-0.0064237
8.40826e-06
-0.00698592
9.48108e-06
-0.00754878
1.04604e-05
-0.00811275
1.12959e-05
-0.00867757
1.19537e-05
-0.00924342
1.23498e-05
-0.00981074
1.24893e-05
-0.0103785
1.22118e-05
-0.0109488
1.16221e-05
-0.0115179
1.03984e-05
-0.0120929
8.94281e-06
-0.0126623
6.4891e-06
-0.0132425
3.84521e-06
-0.000278594
-0.000835825
9.06026e-08
-0.00139314
3.6132e-07
-0.00195069
8.06182e-07
-0.00250838
1.41663e-06
-0.0030665
2.1765e-06
-0.00362486
3.0708e-06
-0.00418376
4.07284e-06
-0.00474314
5.16237e-06
-0.005303
6.30309e-06
-0.00586366
7.46967e-06
-0.00642477
8.61892e-06
-0.0069869
9.71647e-06
-0.00754961
1.07178e-05
-0.0081134
1.15732e-05
-0.00867797
1.22467e-05
-0.00924356
1.26564e-05
-0.00981046
1.28022e-05
-0.0103779
1.2529e-05
-0.0109476
1.19301e-05
-0.0115164
1.06899e-05
-0.0120904
9.19347e-06
-0.0126597
6.69176e-06
-0.0132386
3.95541e-06
-0.000278685
-0.000836096
9.24098e-08
-0.00139359
3.68547e-07
-0.0019513
8.22432e-07
-0.00250914
1.44543e-06
-0.00306739
2.22118e-06
-0.00362587
3.13434e-06
-0.00418485
4.15769e-06
-0.00474428
5.27025e-06
-0.00530416
6.43483e-06
-0.00586481
7.62515e-06
-0.00642587
8.79693e-06
-0.0069879
9.91512e-06
-0.00755047
1.09342e-05
-0.00811408
1.18046e-05
-0.00867838
1.24892e-05
-0.0092437
1.29079e-05
-0.00981019
1.30567e-05
-0.0103773
1.27856e-05
-0.0109463
1.21772e-05
-0.0115149
1.09288e-05
-0.0120879
9.39786e-06
-0.012657
6.86485e-06
-0.0132347
4.04656e-06
-0.000278777
-0.000836372
9.37228e-08
-0.00139404
3.7381e-07
-0.00195192
8.34318e-07
-0.00250992
1.46661e-06
-0.00306831
2.25429e-06
-0.00362689
3.18185e-06
-0.00418597
4.22175e-06
-0.00474545
5.35252e-06
-0.00530535
6.53626e-06
-0.00586598
7.7459e-06
-0.00642699
8.93595e-06
-0.00698892
1.00706e-05
-0.00755134
1.1103e-05
-0.00811476
1.19839e-05
-0.00867879
1.26746e-05
-0.00924385
1.30969e-05
-0.00980991
1.32441e-05
-0.0103767
1.29714e-05
-0.0109451
1.2352e-05
-0.0115134
1.10993e-05
-0.0120854
9.5298e-06
-0.0126541
6.96478e-06
-0.0132306
4.08616e-06
-0.000278871
-0.000836652
9.45302e-08
-0.0013945
3.77053e-07
-0.00195255
8.41675e-07
-0.0025107
1.47981e-06
-0.00306923
2.27508e-06
-0.00362793
3.212e-06
-0.0041871
4.26288e-06
-0.00474663
5.40617e-06
-0.00530656
6.60338e-06
-0.00586717
7.8272e-06
-0.00642813
9.03067e-06
-0.00698996
1.01778e-05
-0.00755222
1.12194e-05
-0.00811546
1.21073e-05
-0.00867922
1.27993e-05
-0.009244
1.32215e-05
-0.00980964
1.3361e-05
-0.0103761
1.30828e-05
-0.0109438
1.24501e-05
-0.0115118
1.11959e-05
-0.0120828
9.57788e-06
-0.0126513
6.95554e-06
-0.0132265
4.0523e-06
-0.000278966
-0.000836935
9.52131e-08
-0.00139496
3.7979e-07
-0.00195319
8.47876e-07
-0.0025115
1.49092e-06
-0.00307017
2.29261e-06
-0.00362898
3.23754e-06
-0.00418824
4.29808e-06
-0.00474783
5.45281e-06
-0.00530779
6.66315e-06
-0.00586837
7.90172e-06
-0.00642928
9.12084e-06
-0.006991
1.0284e-05
-0.00755311
1.13405e-05
-0.00811615
1.22418e-05
-0.00867964
1.29434e-05
-0.00924414
1.33727e-05
-0.00980937
1.35134e-05
-0.0103754
1.32366e-05
-0.0109426
1.25983e-05
-0.0115102
1.13475e-05
-0.0120802
9.70152e-06
-0.0126484
7.04852e-06
-0.0132225
4.15468e-06
-0.000279061
-0.00083722
9.55039e-08
-0.00139543
3.80955e-07
-0.00195383
8.50515e-07
-0.0025123
1.49565e-06
-0.00307111
2.30011e-06
-0.00363004
3.24858e-06
-0.00418939
4.31364e-06
-0.00474904
5.47413e-06
-0.00530903
6.69177e-06
-0.00586959
7.93947e-06
-0.00643044
9.16947e-06
-0.00699206
1.03449e-05
-0.00755401
1.14146e-05
-0.00811685
1.23287e-05
-0.00868007
1.30413e-05
-0.00924428
1.34789e-05
-0.00980909
1.36232e-05
-0.0103748
1.33482e-05
-0.0109413
1.2704e-05
-0.0115086
1.14527e-05
-0.0120776
9.79519e-06
-0.0126454
7.13917e-06
-0.0132183
4.33505e-06
-0.000279157
-0.000837506
9.52929e-08
-0.0013959
3.80109e-07
-0.00195448
8.48627e-07
-0.0025131
1.49232e-06
-0.00307206
2.29498e-06
-0.0036311
3.24141e-06
-0.00419056
4.30438e-06
-0.00475026
5.46314e-06
-0.00531027
6.67985e-06
-0.00587082
7.92809e-06
-0.00643162
9.16049e-06
-0.00699313
1.03406e-05
-0.00755492
1.14172e-05
-0.00811756
1.23396e-05
-0.0086805
1.30608e-05
-0.00924442
1.35059e-05
-0.00980881
1.36536e-05
-0.0103741
1.33801e-05
-0.0109401
1.27288e-05
-0.0115069
1.14769e-05
-0.012075
9.81417e-06
-0.0126425
7.15788e-06
-0.0132141
3.9684e-06
-0.000279252
-0.000837791
9.46171e-08
-0.00139637
3.77411e-07
-0.00195512
8.42598e-07
-0.00251391
1.48169e-06
-0.00307301
2.27855e-06
-0.00363217
3.2181e-06
-0.00419171
4.2733e-06
-0.00475147
5.42383e-06
-0.00531152
6.63231e-06
-0.00587205
7.87317e-06
-0.0064328
9.09975e-06
-0.0069942
1.02766e-05
-0.00755585
1.1353e-05
-0.00811829
1.22789e-05
-0.00868095
1.30062e-05
-0.00924457
1.3459e-05
-0.00980854
1.36129e-05
-0.0103735
1.3344e-05
-0.0109388
1.26884e-05
-0.0115053
1.14325e-05
-0.0120723
9.75651e-06
-0.0126397
7.14174e-06
-0.0132098
3.94491e-06
-0.000279347
-0.000838074
9.35031e-08
-0.00139684
3.72975e-07
-0.00195576
8.32719e-07
-0.0025147
1.46435e-06
-0.00307395
2.25187e-06
-0.00363322
3.18041e-06
-0.00419287
4.22313e-06
-0.00475268
5.36012e-06
-0.00531276
6.55439e-06
-0.00587328
7.78123e-06
-0.00643397
8.9947e-06
-0.00699528
1.01607e-05
-0.00755677
1.12295e-05
-0.00811901
1.21525e-05
-0.0086814
1.28818e-05
-0.00924472
1.33417e-05
-0.00980827
1.35057e-05
-0.0103728
1.32485e-05
-0.0109375
1.25988e-05
-0.0115036
1.13459e-05
-0.0120697
9.64782e-06
-0.0126368
7.09266e-06
-0.0132055
4.19883e-06
-0.00027944
-0.000838354
9.19781e-08
-0.0013973
3.66913e-07
-0.00195639
8.19252e-07
-0.00251549
1.44081e-06
-0.00307488
2.21584e-06
-0.00363426
3.12981e-06
-0.004194
4.15617e-06
-0.00475387
5.27544e-06
-0.00531399
6.45097e-06
-0.00587449
7.65877e-06
-0.00643514
8.8535e-06
-0.00699635
1.00024e-05
-0.00755769
1.10566e-05
-0.00811974
1.19697e-05
-0.00868186
1.26949e-05
-0.00924488
1.31582e-05
-0.009808
1.33333e-05
-0.0103722
1.30945e-05
-0.0109363
1.24652e-05
-0.0115019
1.12351e-05
-0.0120672
9.54565e-06
-0.0126338
7.01612e-06
-0.0132014
4.16729e-06
-0.000279532
-0.000838629
9.00816e-08
-0.00139775
3.5938e-07
-0.00195702
8.02538e-07
-0.00251627
1.41165e-06
-0.00307579
2.17138e-06
-0.00363529
3.06763e-06
-0.00419512
4.07435e-06
-0.00475505
5.17258e-06
-0.0053152
6.32602e-06
-0.00587569
7.51141e-06
-0.00643629
8.68373e-06
-0.0069974
9.81123e-06
-0.0075586
1.08457e-05
-0.00812047
1.17427e-05
-0.00868233
1.24569e-05
-0.00924506
1.29173e-05
-0.00980776
1.30997e-05
-0.0103715
1.28799e-05
-0.0109351
1.22797e-05
-0.0115002
1.10888e-05
-0.0120646
9.43541e-06
-0.012631
6.93712e-06
-0.0131973
4.12143e-06
-0.000279623
-0.000838899
8.78718e-08
-0.00139819
3.50602e-07
-0.00195762
7.83052e-07
-0.00251702
1.37767e-06
-0.00307669
2.1196e-06
-0.0036363
2.99536e-06
-0.00419622
3.97954e-06
-0.0047562
5.0539e-06
-0.00531638
6.18268e-06
-0.00587686
7.34337e-06
-0.00643742
8.49126e-06
-0.00699844
9.5953e-06
-0.0075595
1.06073e-05
-0.00812119
1.14846e-05
-0.00868279
1.21822e-05
-0.00924524
1.26332e-05
-0.00980754
1.28156e-05
-0.010371
1.26097e-05
-0.0109339
1.20391e-05
-0.0114986
1.08951e-05
-0.0120621
9.2922e-06
-0.0126282
6.85637e-06
-0.0131931
4.06708e-06
-0.000279711
-0.000839162
8.54227e-08
-0.00139862
3.40865e-07
-0.00195822
7.61407e-07
-0.00251777
1.33986e-06
-0.00307756
2.06193e-06
-0.00363728
2.91479e-06
-0.0041973
3.87385e-06
-0.00475733
4.92173e-06
-0.00531754
6.02355e-06
-0.005878
7.15768e-06
-0.00643852
8.27996e-06
-0.00699945
9.35993e-06
-0.00756038
1.03491e-05
-0.00812188
1.12059e-05
-0.00868324
1.18849e-05
-0.00924542
1.23223e-05
-0.00980733
1.2498e-05
-0.0103704
1.22975e-05
-0.0109327
1.17488e-05
-0.011497
1.06495e-05
-0.0120597
9.10987e-06
-0.0126254
6.77422e-06
-0.0131891
4.00739e-06
-0.000279796
-0.000839417
8.28159e-08
-0.00139904
3.30488e-07
-0.0019588
7.38292e-07
-0.00251849
1.29938e-06
-0.00307841
2e-06
-0.00363824
2.82804e-06
-0.00419834
3.75974e-06
-0.00475843
4.77876e-06
-0.00531868
5.85127e-06
-0.00587913
6.95687e-06
-0.0064396
8.05226e-06
-0.00700044
9.10777e-06
-0.00756123
1.00748e-05
-0.00812256
1.09124e-05
-0.00868368
1.15746e-05
-0.0092456
1.1999e-05
-0.00980713
1.21654e-05
-0.0103698
1.19639e-05
-0.0109316
1.14252e-05
-0.0114954
1.03563e-05
-0.0120574
8.87579e-06
-0.0126226
6.64763e-06
-0.0131851
3.9305e-06
-0.000279879
-0.000839665
8.01264e-08
-0.00139945
3.19769e-07
-0.00195936
7.14362e-07
-0.00251919
1.25735e-06
-0.00307924
1.9355e-06
-0.00363917
2.73734e-06
-0.00419936
3.63993e-06
-0.00475951
4.62796e-06
-0.00531978
5.66882e-06
-0.00588022
6.74357e-06
-0.00644066
7.81012e-06
-0.0070014
8.83998e-06
-0.00756207
9.78484e-06
-0.00812323
1.0605e-05
-0.00868411
1.12538e-05
-0.00924576
1.16695e-05
-0.00980693
1.18307e-05
-0.0103693
1.16291e-05
-0.0109305
1.10946e-05
-0.0114939
1.0042e-05
-0.0120551
8.59291e-06
-0.0126199
6.41969e-06
-0.0131811
3.82008e-06
-0.000279959
-0.000839905
7.74106e-08
-0.00139985
3.08932e-07
-0.0019599
6.90123e-07
-0.00251987
1.21468e-06
-0.00308004
1.86981e-06
-0.00364007
2.64463e-06
-0.00420035
3.51691e-06
-0.00476055
4.47233e-06
-0.00532086
5.47943e-06
-0.00588129
6.52084e-06
-0.00644168
7.55593e-06
-0.00700235
8.55759e-06
-0.00756289
9.47861e-06
-0.00812387
1.0281e-05
-0.00868453
1.09189e-05
-0.00924592
1.13306e-05
-0.00980673
1.14941e-05
-0.0103688
1.13002e-05
-0.0109295
1.07763e-05
-0.0114925
9.74028e-06
-0.0120529
8.3142e-06
-0.0126173
6.18751e-06
-0.0131773
3.67706e-06
-0.000280037
-0.000840136
7.4698e-08
-0.00140023
2.98098e-07
-0.00196043
6.65863e-07
-0.00252052
1.1719e-06
-0.00308082
1.80381e-06
-0.00364095
2.5512e-06
-0.00420131
3.39248e-06
-0.00476156
4.31418e-06
-0.0053219
5.2859e-06
-0.00588232
6.29168e-06
-0.00644269
7.29237e-06
-0.00700327
8.26241e-06
-0.00756369
9.15597e-06
-0.00812451
9.93771e-06
-0.00868495
1.05636e-05
-0.00924608
1.09729e-05
-0.00980654
1.11447e-05
-0.0103682
1.09674e-05
-0.0109285
1.04679e-05
-0.0114911
9.45833e-06
-0.0120508
8.05975e-06
-0.0126148
5.97135e-06
-0.0131736
3.49115e-06
-0.000280111
-0.000840359
7.19858e-08
-0.0014006
2.87262e-07
-0.00196093
6.41581e-07
-0.00252115
1.12904e-06
-0.00308157
1.73761e-06
-0.00364179
2.45734e-06
-0.00420223
3.26719e-06
-0.00476253
4.15441e-06
-0.00532291
5.08958e-06
-0.00588332
6.05787e-06
-0.00644365
7.02142e-06
-0.00700416
7.9561e-06
-0.00756447
8.81764e-06
-0.00812514
9.57369e-06
-0.00868536
1.01829e-05
-0.00924625
1.05863e-05
-0.00980636
1.07663e-05
-0.0103677
1.06091e-05
-0.0109274
1.01478e-05
-0.0114897
9.18147e-06
-0.0120487
7.83792e-06
-0.0126123
5.79272e-06
-0.0131702
3.31803e-06
-0.000280183
-0.000840575
6.92502e-08
-0.00140095
2.76331e-07
-0.00196142
6.17087e-07
-0.00252176
1.08579e-06
-0.00308229
1.67077e-06
-0.0036426
2.3625e-06
-0.00420312
3.14045e-06
-0.00476347
3.99248e-06
-0.00532387
4.89014e-06
-0.00588428
5.81941e-06
-0.00644459
6.74355e-06
-0.00700502
7.63954e-06
-0.00756523
8.46464e-06
-0.00812575
9.18918e-06
-0.00868576
9.77505e-06
-0.00924643
1.01644e-05
-0.0098062
1.03455e-05
-0.0103673
1.02024e-05
-0.0109265
9.78246e-06
-0.0114883
8.86777e-06
-0.0120467
7.61117e-06
-0.0126098
5.64963e-06
-0.0131668
3.2937e-06
-0.000280252
-0.000840782
6.64407e-08
-0.00140129
2.65109e-07
-0.00196189
5.91944e-07
-0.00252234
1.04139e-06
-0.00308298
1.60212e-06
-0.00364338
2.26505e-06
-0.00420397
3.01017e-06
-0.00476436
3.82593e-06
-0.0053248
4.68478e-06
-0.0058852
5.57335e-06
-0.00644548
6.45596e-06
-0.00700585
7.31031e-06
-0.00756595
8.09527e-06
-0.00812634
8.78298e-06
-0.00868615
9.33857e-06
-0.00924661
9.70464e-06
-0.00980605
9.87546e-06
-0.0103669
9.73322e-06
-0.0109255
9.34435e-06
-0.0114871
8.47204e-06
-0.0120447
7.30763e-06
-0.0126075
5.44156e-06
-0.0131635
3.22882e-06
-0.000280319
-0.00084098
6.34896e-08
-0.00140162
2.53314e-07
-0.00196234
5.65524e-07
-0.0025229
9.94711e-07
-0.00308364
1.52995e-06
-0.00364412
2.16255e-06
-0.00420479
2.87308e-06
-0.00476522
3.65063e-06
-0.00532569
4.46843e-06
-0.00588608
5.31401e-06
-0.00644634
6.15207e-06
-0.00700663
6.96212e-06
-0.00756664
7.70276e-06
-0.0081269
8.35015e-06
-0.00868652
8.86796e-06
-0.00924678
9.20444e-06
-0.00980591
9.35056e-06
-0.0103665
9.19883e-06
-0.0109247
8.81775e-06
-0.0114859
7.97656e-06
-0.0120428
6.88027e-06
-0.0126053
5.11115e-06
-0.0131603
3.04655e-06
-0.000280382
-0.00084117
6.0653e-08
-0.00140193
2.41966e-07
-0.00196276
5.40111e-07
-0.00252344
9.49848e-07
-0.00308427
1.46062e-06
-0.00364483
2.06421e-06
-0.00420557
2.74171e-06
-0.00476604
3.48308e-06
-0.00532654
4.26202e-06
-0.00588692
5.06743e-06
-0.00644715
5.86378e-06
-0.00700738
6.63358e-06
-0.00756729
7.33365e-06
-0.00812742
7.94615e-06
-0.00868686
8.42937e-06
-0.00924693
8.74178e-06
-0.00980575
8.86292e-06
-0.0103661
8.70554e-06
-0.0109238
8.32112e-06
-0.0114848
7.51062e-06
-0.0120411
6.45652e-06
-0.0126032
4.7724e-06
-0.0131573
2.81958e-06
-0.000280443
-0.000841351
5.81425e-08
-0.00140223
2.31932e-07
-0.00196317
5.17675e-07
-0.00252395
9.10288e-07
-0.00308488
1.39962e-06
-0.00364551
1.97791e-06
-0.00420631
2.62695e-06
-0.00476682
3.33733e-06
-0.00532734
4.08376e-06
-0.00588771
4.85562e-06
-0.00644792
5.61882e-06
-0.00700808
6.35653e-06
-0.0075679
7.02797e-06
-0.00812791
7.61515e-06
-0.00868717
8.07966e-06
-0.00924705
8.37762e-06
-0.0098056
8.49544e-06
-0.0103657
8.3403e-06
-0.010923
7.9738e-06
-0.0114838
7.19234e-06
-0.0120394
6.19641e-06
-0.0126012
4.56876e-06
-0.0131545
2.74221e-06
-0.000280501
-0.000841524
5.54283e-08
-0.00140251
2.21088e-07
-0.00196357
4.93433e-07
-0.00252444
8.67557e-07
-0.00308546
1.33372e-06
-0.00364616
1.8847e-06
-0.00420702
2.503e-06
-0.00476757
3.1799e-06
-0.00532811
3.89114e-06
-0.00588847
4.62656e-06
-0.00644865
5.35375e-06
-0.00700875
6.05651e-06
-0.00756848
6.69704e-06
-0.00812838
7.2563e-06
-0.00868747
7.70045e-06
-0.00924717
7.98221e-06
-0.00980544
8.09953e-06
-0.0103653
7.94891e-06
-0.0109222
7.60223e-06
-0.0114828
6.84828e-06
-0.0120378
5.89595e-06
-0.0125994
4.31315e-06
-0.0131517
2.65923e-06
-0.000280556
-0.00084169
5.2483e-08
-0.00140278
2.09322e-07
-0.00196394
4.67152e-07
-0.00252491
8.21252e-07
-0.00308601
1.26236e-06
-0.00364678
1.78382e-06
-0.0042077
2.36896e-06
-0.00476828
3.0097e-06
-0.00532885
3.68288e-06
-0.0058892
4.37881e-06
-0.00644935
5.06703e-06
-0.0070094
5.73192e-06
-0.00756904
6.33897e-06
-0.00812882
6.86758e-06
-0.00868776
7.28858e-06
-0.00924729
7.55181e-06
-0.00980529
7.67057e-06
-0.010365
7.52889e-06
-0.0109215
7.21046e-06
-0.0114818
6.48971e-06
-0.0120362
5.57122e-06
-0.0125977
4.0142e-06
-0.0131491
2.45643e-06
-0.000280609
-0.000841846
4.92821e-08
-0.00140304
1.96543e-07
-0.0019643
4.38627e-07
-0.00252535
7.7105e-07
-0.00308653
1.18507e-06
-0.00364736
1.67468e-06
-0.00420834
2.2241e-06
-0.00476895
2.82591e-06
-0.00532954
3.45809e-06
-0.00588988
4.11136e-06
-0.00645002
4.75775e-06
-0.00701001
5.38194e-06
-0.00756957
5.95337e-06
-0.00812924
6.44855e-06
-0.00868803
6.8439e-06
-0.00924741
7.08515e-06
-0.00980515
7.2056e-06
-0.0103647
7.07348e-06
-0.0109208
6.79165e-06
-0.0114809
6.1087e-06
-0.0120346
5.2764e-06
-0.0125962
4.01283e-06
-0.0131466
2.30626e-06
-0.000280658
-0.000841993
4.58052e-08
-0.00140328
1.82667e-07
-0.00196463
4.07678e-07
-0.00252576
7.16629e-07
-0.00308702
1.10137e-06
-0.00364791
1.55666e-06
-0.00420894
2.06766e-06
-0.00476958
2.6276e-06
-0.00533019
3.21569e-06
-0.00589053
3.82297e-06
-0.00645064
4.42466e-06
-0.00701058
5.0053e-06
-0.00757006
5.53936e-06
-0.00812964
5.99875e-06
-0.00868828
6.36689e-06
-0.00924753
6.58349e-06
-0.00980502
6.70599e-06
-0.0103644
6.57987e-06
-0.0109201
6.32788e-06
-0.01148
5.66877e-06
-0.0120331
4.9652e-06
-0.0125948
3.61625e-06
-0.0131443
2.15609e-06
-0.000280703
-0.00084213
4.20436e-08
-0.00140351
1.67654e-07
-0.00196494
3.74187e-07
-0.00252614
6.57777e-07
-0.00308748
1.01094e-06
-0.00364843
1.42929e-06
-0.0042095
1.89899e-06
-0.00477017
2.41393e-06
-0.0053308
2.95469e-06
-0.00589113
3.51242e-06
-0.00645122
4.06647e-06
-0.00701111
4.60044e-06
-0.00757052
5.09569e-06
-0.00813
5.51684e-06
-0.00868851
5.85721e-06
-0.00924765
6.04783e-06
-0.0098049
6.17626e-06
-0.0103641
6.05183e-06
-0.0109194
5.8208e-06
-0.0114793
5.16259e-06
-0.0120317
4.6009e-06
-0.0125933
3.32336e-06
-0.0131421
1.98018e-06
-0.000280745
-0.000842256
3.80097e-08
-0.00140371
1.51523e-07
-0.00196522
3.38161e-07
-0.0025265
5.94443e-07
-0.00308789
9.13642e-07
-0.00364889
1.29236e-06
-0.00421002
1.71774e-06
-0.00477071
2.18442e-06
-0.00533136
2.6745e-06
-0.00589168
3.17888e-06
-0.00645175
3.68227e-06
-0.00701161
4.16602e-06
-0.00757094
4.62124e-06
-0.00813035
5.0011e-06
-0.00868872
5.31426e-06
-0.00924777
5.47765e-06
-0.00980478
5.61705e-06
-0.0103639
5.4875e-06
-0.0109188
5.3314e-06
-0.0114788
5.00324e-06
-0.0120305
4.0945e-06
-0.012592
3.02299e-06
-0.0131401
1.79366e-06
-0.000280783
-0.000842369
3.37317e-08
-0.0014039
1.34355e-07
-0.00196548
2.99724e-07
-0.00252682
5.26813e-07
-0.00308827
8.09642e-07
-0.00364932
1.14604e-06
-0.00421048
1.52411e-06
-0.0047712
1.9392e-06
-0.00533186
2.37523e-06
-0.00589219
2.82222e-06
-0.00645223
3.27201e-06
-0.00701206
3.70146e-06
-0.00757132
4.11585e-06
-0.00813066
4.44969e-06
-0.00868889
4.73966e-06
-0.0092479
4.87317e-06
-0.00980465
5.02514e-06
-0.0103637
4.86704e-06
-0.0109181
4.816e-06
-0.0114782
4.34071e-06
-0.0120294
3.66573e-06
-0.0125907
2.72933e-06
-0.0131383
1.61647e-06
-0.000280817
-0.000842469
2.92284e-08
-0.00140406
1.16226e-07
-0.00196571
2.59051e-07
-0.0025271
4.55186e-07
-0.00308861
6.99359e-07
-0.0036497
9.90911e-07
-0.0042109
1.31888e-06
-0.00477164
1.67914e-06
-0.00533231
2.05791e-06
-0.00589264
2.4433e-06
-0.00645266
2.83726e-06
-0.00701247
3.20745e-06
-0.00757165
3.58175e-06
-0.00813096
3.86069e-06
-0.00868904
4.13937e-06
-0.00924804
4.23579e-06
-0.00980446
4.4277e-06
-0.0103637
4.57378e-06
-0.0109175
4.14361e-06
-0.0114776
3.75559e-06
-0.0120285
3.20304e-06
-0.0125896
2.39804e-06
-0.0131367
1.41999e-06
-0.000280846
-0.000842556
2.44637e-08
-0.00140421
9.71438e-08
-0.0019659
2.16309e-07
-0.00252734
3.80019e-07
-0.0030889
5.83583e-07
-0.00365002
8.28051e-07
-0.00421126
1.10335e-06
-0.00477202