/*--------------------------------*- C++ -*----------------------------------*\
  =========                 |
  \\      /  F ield         | OpenFOAM: The Open Source CFD Toolbox
   \\    /   O peration     | Website:  https://openfoam.org
    \\  /    A nd           | Version:  10
     \\/     M anipulation  |
\*---------------------------------------------------------------------------*/
FoamFile
{
    format      ascii;
    class       volScalarField;
    location    "0.44";
    object      rho;
}
// * * * * * * * * * * * * * * * * * * * * * * * * * * * * * * * * * * * * * //

dimensions      [1 -3 0 0 0 0 0];

internalField   nonuniform List<scalar> 
4176
(
0.0308487
0.0308517
0.0308579
0.0308682
0.0308814
0.0308977
0.0309187
0.0309401
0.0309693
0.0309955
0.0310323
0.0310647
0.0311069
0.0311475
0.0311925
0.0312439
0.0312871
0.0313548
0.0313934
0.0314789
0.0315109
0.0316159
0.0316359
0.0317506
0.0308567
0.0308595
0.0308649
0.0308747
0.0308858
0.0309015
0.0309193
0.0309398
0.0309649
0.0309899
0.0310221
0.0310523
0.0310899
0.031127
0.0311681
0.0312141
0.0312542
0.0313144
0.03135
0.0314266
0.031454
0.031554
0.0315745
0.0317039
0.030876
0.0308789
0.0308845
0.0308946
0.0309063
0.0309223
0.030941
0.0309621
0.0309885
0.031014
0.0310478
0.0310787
0.0311182
0.0311562
0.0311995
0.0312467
0.0312891
0.031352
0.0313877
0.031468
0.0314957
0.0315944
0.031613
0.0317346
0.0309047
0.0309075
0.030913
0.0309228
0.0309341
0.0309498
0.030968
0.0309883
0.0310142
0.0310387
0.031072
0.0311015
0.0311408
0.031177
0.03122
0.0312654
0.0313075
0.0313703
0.0314015
0.0314841
0.0315094
0.0316068
0.0316243
0.0317369
0.0309441
0.030947
0.0309524
0.0309623
0.0309735
0.0309893
0.0310073
0.0310279
0.0310535
0.0310783
0.0311113
0.0311412
0.0311801
0.0312165
0.0312596
0.0313044
0.0313484
0.0314082
0.031443
0.0315235
0.0315505
0.0316474
0.0316664
0.0317805
0.0309936
0.0309964
0.0310018
0.0310116
0.0310226
0.0310382
0.0310559
0.0310763
0.0311014
0.0311261
0.0311584
0.0311881
0.0312263
0.0312623
0.031305
0.0313487
0.0313932
0.03145
0.0314881
0.0315647
0.0315925
0.0316883
0.0317081
0.0318238
0.0310535
0.0310563
0.0310616
0.0310714
0.0310822
0.0310978
0.0311152
0.0311355
0.0311603
0.0311848
0.0312168
0.0312462
0.0312842
0.0313198
0.0313623
0.0314053
0.03145
0.0315051
0.0315442
0.0316188
0.0316478
0.0317422
0.0317623
0.0318759
0.0311237
0.0311265
0.0311316
0.0311413
0.031152
0.0311674
0.0311846
0.0312047
0.0312292
0.0312534
0.031285
0.031314
0.0313515
0.0313865
0.0314288
0.0314709
0.0315156
0.0315689
0.0316091
0.0316811
0.0317111
0.031804
0.0318245
0.0319369
0.0312042
0.0312069
0.031212
0.0312217
0.0312322
0.0312475
0.0312644
0.0312843
0.0313085
0.0313324
0.0313636
0.0313922
0.0314293
0.0314638
0.0315057
0.0315469
0.0315916
0.0316432
0.0316843
0.031754
0.0317849
0.0318759
0.0318968
0.0320073
0.031295
0.0312978
0.0313028
0.0313123
0.0313227
0.0313378
0.0313545
0.0313742
0.031398
0.0314215
0.0314523
0.0314805
0.0315172
0.031551
0.0315925
0.0316328
0.0316774
0.0317274
0.0317691
0.0318363
0.0318685
0.0319567
0.0319784
0.0320871
0.0313963
0.031399
0.0314039
0.0314134
0.0314236
0.0314385
0.0314549
0.0314744
0.0314978
0.031521
0.0315514
0.0315791
0.0316153
0.0316484
0.0316895
0.0317289
0.0317732
0.0318218
0.031864
0.0319288
0.0319619
0.0320473
0.0320696
0.0321763
0.031508
0.0315107
0.0315156
0.0315249
0.0315349
0.0315497
0.0315658
0.0315849
0.031608
0.0316308
0.0316607
0.0316879
0.0317236
0.0317561
0.0317967
0.0318351
0.0318791
0.0319262
0.0319688
0.0320312
0.0320647
0.0321481
0.0321704
0.032275
0.0316303
0.031633
0.0316377
0.031647
0.0316568
0.0316713
0.0316871
0.031706
0.0317286
0.0317511
0.0317805
0.0318071
0.0318423
0.031874
0.0319141
0.0319515
0.0319951
0.0320407
0.0320835
0.0321436
0.0321777
0.0322586
0.032281
0.0323833
0.0317632
0.0317659
0.0317705
0.0317796
0.0317892
0.0318035
0.031819
0.0318375
0.0318597
0.0318817
0.0319106
0.0319367
0.0319713
0.0320023
0.0320418
0.0320781
0.0321213
0.0321654
0.0322084
0.032266
0.0323008
0.0323789
0.0324014
0.0325013
0.0319068
0.0319095
0.031914
0.031923
0.0319323
0.0319464
0.0319615
0.0319797
0.0320014
0.0320229
0.0320513
0.0320767
0.0321107
0.0321409
0.0321798
0.0322151
0.0322577
0.0323003
0.0323433
0.0323985
0.0324336
0.0325093
0.0325317
0.0326291
0.0320612
0.0320639
0.0320683
0.0320771
0.0320862
0.0321
0.0321147
0.0321325
0.0321538
0.0321748
0.0322025
0.0322273
0.0322606
0.03229
0.0323282
0.0323624
0.0324044
0.0324455
0.0324883
0.0325411
0.0325768
0.0326492
0.0326723
0.0327668
0.0322265
0.0322291
0.0322334
0.0322421
0.0322509
0.0322644
0.0322787
0.0322961
0.0323169
0.0323373
0.0323644
0.0323885
0.0324211
0.0324496
0.0324871
0.0325201
0.0325615
0.0326011
0.0326435
0.032694
0.0327298
0.0327996
0.0328229
0.0329145
0.0324028
0.0324054
0.0324095
0.032418
0.0324266
0.0324398
0.0324537
0.0324707
0.0324908
0.0325107
0.032537
0.0325604
0.0325923
0.0326198
0.0326565
0.0326884
0.032729
0.0327671
0.0328091
0.0328571
0.0328934
0.0329599
0.0329837
0.0330722
0.0325901
0.0325927
0.0325967
0.0326051
0.0326133
0.0326262
0.0326396
0.0326561
0.0326757
0.0326949
0.0327206
0.0327432
0.0327742
0.0328007
0.0328366
0.0328672
0.0329071
0.0329436
0.032985
0.0330306
0.033067
0.0331307
0.0331548
0.03324
0.0327887
0.0327912
0.0327951
0.0328032
0.0328111
0.0328237
0.0328367
0.0328527
0.0328716
0.0328902
0.0329151
0.0329368
0.0329669
0.0329924
0.0330274
0.0330567
0.0330957
0.0331306
0.0331714
0.0332146
0.0332512
0.0333117
0.0333361
0.0334181
0.0329986
0.0330011
0.0330047
0.0330127
0.0330202
0.0330325
0.0330449
0.0330604
0.0330786
0.0330965
0.0331206
0.0331415
0.0331707
0.0331951
0.0332291
0.0332571
0.0332951
0.0333283
0.0333684
0.0334093
0.0334458
0.0335032
0.0335279
0.0336065
0.0332199
0.0332223
0.0332258
0.0332336
0.0332407
0.0332526
0.0332644
0.0332794
0.0332969
0.0333141
0.0333373
0.0333573
0.0333855
0.0334088
0.0334417
0.0334684
0.0335053
0.0335368
0.0335761
0.0336146
0.033651
0.0337052
0.0337301
0.0338053
0.0334527
0.0334551
0.0334584
0.0334659
0.0334727
0.0334841
0.0334954
0.0335097
0.0335265
0.0335429
0.0335653
0.0335843
0.0336115
0.0336336
0.0336655
0.0336907
0.0337266
0.0337563
0.0337946
0.0338309
0.033867
0.0339178
0.0339429
0.0340145
0.0336971
0.0336994
0.0337025
0.0337098
0.0337162
0.0337272
0.0337379
0.0337516
0.0337676
0.0337832
0.0338046
0.0338226
0.0338488
0.0338697
0.0339005
0.0339242
0.0339589
0.0339869
0.0340241
0.034058
0.0340938
0.0341413
0.0341664
0.0342343
0.0339531
0.0339555
0.0339584
0.0339654
0.0339714
0.0339819
0.033992
0.034005
0.0340203
0.034035
0.0340555
0.0340724
0.0340976
0.0341172
0.0341468
0.034169
0.0342025
0.0342287
0.0342648
0.0342963
0.0343316
0.0343757
0.0344007
0.0344648
0.034221
0.0342233
0.034226
0.0342327
0.0342383
0.0342484
0.0342578
0.0342702
0.0342846
0.0342984
0.0343179
0.0343338
0.0343578
0.0343761
0.0344045
0.0344252
0.0344575
0.0344818
0.0345167
0.0345459
0.0345805
0.0346212
0.034646
0.0347064
0.0345007
0.0345029
0.0345054
0.0345119
0.034517
0.0345267
0.0345354
0.0345472
0.0345607
0.0345736
0.0345921
0.0346068
0.0346297
0.0346467
0.0346738
0.0346929
0.0347239
0.0347463
0.03478
0.0348068
0.0348407
0.0348779
0.0349025
0.0349594
0.0347923
0.0347945
0.0347968
0.034803
0.0348077
0.0348169
0.034825
0.034836
0.0348487
0.0348607
0.0348781
0.0348917
0.0349133
0.034929
0.0349547
0.0349722
0.0350019
0.0350224
0.0350548
0.0350793
0.0351121
0.0351459
0.0351704
0.0352234
0.0350959
0.0350981
0.0351002
0.0351062
0.0351104
0.0351191
0.0351265
0.0351369
0.0351487
0.0351598
0.0351761
0.0351886
0.0352089
0.0352231
0.0352476
0.0352634
0.0352916
0.0353101
0.0353412
0.0353633
0.0353952
0.0354253
0.0354498
0.0354986
0.0354117
0.0354138
0.0354157
0.0354214
0.0354252
0.0354334
0.0354402
0.0354498
0.0354608
0.0354709
0.0354862
0.0354974
0.0355166
0.0355293
0.0355524
0.0355664
0.0355933
0.0356097
0.0356395
0.0356591
0.0356899
0.0357165
0.0357413
0.035785
0.0357397
0.0357417
0.0357434
0.0357489
0.0357522
0.0357599
0.035766
0.035775
0.035785
0.0357942
0.0358084
0.0358185
0.0358364
0.0358476
0.0358693
0.0358816
0.035907
0.0359214
0.0359496
0.0359668
0.0359965
0.0360197
0.036044
0.0360835
0.03608
0.036082
0.0360834
0.0360886
0.0360915
0.0360987
0.0361041
0.0361123
0.0361215
0.0361297
0.0361429
0.0361517
0.0361684
0.0361782
0.0361985
0.0362091
0.0362329
0.0362451
0.0362719
0.0362865
0.036315
0.036335
0.0363587
0.0363941
0.0364327
0.0364346
0.0364358
0.0364408
0.0364431
0.0364499
0.0364546
0.0364621
0.0364703
0.0364777
0.0364897
0.0364974
0.0365128
0.0365212
0.0365401
0.0365489
0.0365712
0.0365813
0.0366066
0.0366186
0.0366457
0.0366623
0.036686
0.0367164
0.0367978
0.0367997
0.0368007
0.0368054
0.0368073
0.0368136
0.0368175
0.0368244
0.0368317
0.0368381
0.036849
0.0368555
0.0368697
0.0368765
0.0368941
0.0369011
0.036922
0.03693
0.0369537
0.0369631
0.0369887
0.0370022
0.0370253
0.0370512
0.0371755
0.0371774
0.0371781
0.0371826
0.037184
0.0371898
0.0371931
0.0371992
0.0372056
0.037211
0.0372209
0.0372262
0.0372391
0.0372445
0.0372607
0.037266
0.0372854
0.0372912
0.0373135
0.0373203
0.0373444
0.0373544
0.0373771
0.0373983
0.0375659
0.0375677
0.0375682
0.0375724
0.0375734
0.0375787
0.0375814
0.0375868
0.0375923
0.0375968
0.0376055
0.0376096
0.0376212
0.0376251
0.03764
0.0376435
0.0376614
0.0376651
0.0376859
0.0376901
0.0377128
0.0377197
0.0377413
0.0377578
0.037969
0.0379707
0.0379711
0.037975
0.0379756
0.0379805
0.0379824
0.0379871
0.0379918
0.0379953
0.038003
0.0380058
0.0380162
0.0380186
0.0380321
0.0380337
0.0380502
0.0380517
0.0380711
0.0380728
0.0380941
0.0380978
0.0381183
0.03813
0.0383849
0.0383866
0.0383868
0.0383905
0.0383906
0.038395
0.0383963
0.0384004
0.0384042
0.0384067
0.0384134
0.038415
0.0384242
0.0384251
0.0384371
0.038437
0.0384519
0.0384513
0.0384692
0.0384682
0.0384882
0.0384888
0.0385083
0.0385151
0.0388138
0.0388155
0.0388155
0.038819
0.0388186
0.0388226
0.0388232
0.0388267
0.0388296
0.0388312
0.0388368
0.0388373
0.0388452
0.0388446
0.0388552
0.0388533
0.0388667
0.0388638
0.0388802
0.0388766
0.0388953
0.0388927
0.0389113
0.0389134
0.0392559
0.0392575
0.0392573
0.0392605
0.0392598
0.0392633
0.0392633
0.039266
0.0392681
0.0392689
0.0392734
0.0392727
0.0392793
0.0392773
0.0392866
0.0392827
0.0392947
0.0392896
0.0393045
0.0392981
0.0393154
0.0393096
0.0393271
0.0393251
0.0397112
0.0397128
0.0397123
0.0397154
0.0397141
0.0397173
0.0397166
0.0397186
0.0397198
0.0397197
0.0397232
0.0397213
0.0397268
0.0397233
0.0397312
0.0397255
0.0397361
0.0397287
0.0397421
0.0397329
0.0397489
0.0397396
0.0397559
0.0397502
0.0401798
0.0401814
0.0401808
0.0401835
0.0401819
0.0401846
0.0401832
0.0401846
0.0401849
0.0401839
0.0401863
0.0401833
0.0401875
0.0401825
0.0401892
0.0401817
0.0401909
0.0401811
0.0401933
0.0401811
0.0401958
0.0401831
0.0401983
0.0401882
0.0406619
0.0406635
0.0406626
0.0406652
0.0406631
0.0406653
0.0406633
0.040664
0.0406635
0.0406615
0.0406629
0.0406587
0.0406617
0.0406553
0.0406606
0.0406512
0.0406591
0.040647
0.040658
0.0406429
0.0406565
0.04064
0.0406544
0.0406396
0.0411577
0.0411592
0.0411581
0.0411604
0.0411578
0.0411596
0.0411569
0.041157
0.0411556
0.0411527
0.041153
0.0411476
0.0411494
0.0411415
0.0411456
0.0411343
0.0411408
0.0411265
0.0411363
0.0411182
0.0411309
0.0411108
0.0411243
0.0411048
0.041667
0.0416685
0.0416672
0.0416693
0.0416663
0.0416676
0.0416642
0.0416636
0.0416613
0.0416575
0.0416568
0.0416502
0.0416508
0.0416413
0.0416441
0.041631
0.0416362
0.0416195
0.0416281
0.0416072
0.0416189
0.0415951
0.041608
0.0415841
0.0421902
0.0421916
0.0421901
0.042192
0.0421885
0.0421894
0.0421853
0.042184
0.0421808
0.0421761
0.0421742
0.0421665
0.0421659
0.0421549
0.0421563
0.0421414
0.0421452
0.0421262
0.0421336
0.0421097
0.0421206
0.0420932
0.0421056
0.0420768
0.0427271
0.0427285
0.0427268
0.0427284
0.0427245
0.042725
0.0427201
0.0427182
0.0427141
0.0427084
0.0427055
0.0426965
0.0426947
0.0426822
0.0426823
0.0426656
0.042668
0.0426466
0.0426528
0.042626
0.0426361
0.0426046
0.0426173
0.0425831
0.0432779
0.0432793
0.0432774
0.0432788
0.0432743
0.0432743
0.0432688
0.0432662
0.0432612
0.0432546
0.0432506
0.0432404
0.0432374
0.0432234
0.0432222
0.0432035
0.0432047
0.0431809
0.043186
0.0431561
0.0431652
0.0431296
0.0431431
0.0431035
0.0438426
0.0438439
0.0438418
0.0438429
0.043838
0.0438376
0.0438313
0.0438281
0.0438222
0.0438146
0.0438096
0.0437982
0.043794
0.0437784
0.0437759
0.0437554
0.0437554
0.043729
0.0437332
0.0437
0.0437086
0.0436683
0.0436826
0.0436379
0.044421
0.0444223
0.04442
0.0444209
0.0444155
0.0444147
0.0444077
0.0444038
0.044397
0.0443885
0.0443825
0.0443698
0.0443644
0.0443473
0.0443436
0.0443211
0.04432
0.0442911
0.0442944
0.0442578
0.0442663
0.0442216
0.0442356
0.0441863
0.0450132
0.0450145
0.045012
0.0450127
0.0450068
0.0450055
0.0449979
0.0449933
0.0449857
0.0449762
0.0449692
0.0449553
0.0449488
0.04493
0.0449252
0.0449006
0.0448987
0.0448671
0.0448696
0.044829
0.0448389
0.0447887
0.0448027
0.0447488
0.0456191
0.0456203
0.0456176
0.0456181
0.0456117
0.0456101
0.0456018
0.0455966
0.0455881
0.0455777
0.0455698
0.0455545
0.0455471
0.0455266
0.0455209
0.045494
0.0454914
0.0454568
0.0454592
0.0454142
0.0454246
0.0453704
0.0453841
0.0453257
0.0462385
0.0462397
0.0462368
0.0462371
0.0462303
0.0462283
0.0462194
0.0462135
0.0462042
0.0461929
0.0461841
0.0461675
0.0461593
0.046137
0.0461305
0.0461012
0.0460984
0.0460599
0.0460637
0.0460141
0.0460238
0.0459664
0.0459793
0.0459168
0.0468713
0.0468726
0.0468695
0.0468696
0.0468623
0.04686
0.0468504
0.0468439
0.0468339
0.0468216
0.0468121
0.0467941
0.0467853
0.0467609
0.0467541
0.0467219
0.0467195
0.0466771
0.0466813
0.0466285
0.046637
0.0465765
0.0465889
0.0465221
0.0475174
0.0475186
0.0475154
0.0475153
0.0475076
0.047505
0.0474948
0.0474877
0.047477
0.0474638
0.0474537
0.0474341
0.0474251
0.0473983
0.0473918
0.0473565
0.0473544
0.0473091
0.0473117
0.0472569
0.0472646
0.047201
0.0472124
0.0471419
0.0481765
0.0481777
0.0481743
0.0481741
0.048166
0.0481631
0.0481523
0.0481447
0.0481335
0.0481191
0.0481089
0.0480873
0.0480788
0.0480489
0.0480435
0.0480049
0.0480022
0.0479551
0.0479566
0.0478997
0.0479058
0.0478396
0.0478503
0.0477759
0.0488484
0.0488497
0.048846
0.0488458
0.0488373
0.0488342
0.0488228
0.0488147
0.0488032
0.0487873
0.0487776
0.0487535
0.0487457
0.0487134
0.0487075
0.0486675
0.0486637
0.0486148
0.0486151
0.0485561
0.0485614
0.0484923
0.0485022
0.0484242
0.0495329
0.0495343
0.0495302
0.0495303
0.0495212
0.0495181
0.0495061
0.0494972
0.049486
0.0494685
0.0494588
0.0494337
0.0494248
0.049392
0.0493844
0.0493437
0.0493386
0.0492885
0.0492871
0.0492266
0.0492304
0.049159
0.0491682
0.0490866
0.0502298
0.0502313
0.0502269
0.0502272
0.0502173
0.0502146
0.0502018
0.0501929
0.0501809
0.0501631
0.0501525
0.0501268
0.050117
0.0500834
0.0500748
0.0500332
0.0500267
0.0499751
0.049973
0.0499105
0.0499135
0.0498396
0.049848
0.0497632
0.0509389
0.0509405
0.050936
0.0509361
0.0509262
0.0509231
0.0509097
0.0509014
0.050888
0.0508703
0.0508589
0.0508326
0.050822
0.0507877
0.0507781
0.0507356
0.0507282
0.0506757
0.0506718
0.0506082
0.0506098
0.0505339
0.0505416
0.0504537
0.05166
0.0516616
0.0516572
0.0516571
0.0516471
0.0516438
0.05163
0.0516219
0.051607
0.0515903
0.0515774
0.051551
0.0515395
0.0515049
0.0514941
0.0514511
0.0514424
0.0513888
0.0513843
0.0513189
0.0513196
0.0512416
0.0512486
0.0511579
0.052393
0.0523946
0.0523902
0.05239
0.0523799
0.0523766
0.0523624
0.0523543
0.0523385
0.0523224
0.0523077
0.0522821
0.0522693
0.0522343
0.0522228
0.0521791
0.0521694
0.0521151
0.0521092
0.0520427
0.0520424
0.0519627
0.0519689
0.0518755
0.0531377
0.0531393
0.0531349
0.0531347
0.0531245
0.0531211
0.0531067
0.0530986
0.053082
0.0530663
0.0530504
0.0530254
0.0530112
0.0529761
0.0529637
0.0529195
0.0529088
0.0528536
0.052847
0.0527792
0.052778
0.0526966
0.0527021
0.0526063
0.0538941
0.0538958
0.0538913
0.0538911
0.0538808
0.0538774
0.0538627
0.0538546
0.0538375
0.0538219
0.0538051
0.0537805
0.053765
0.05373
0.0537168
0.0536718
0.0536603
0.0536045
0.0535968
0.0535281
0.0535259
0.0534431
0.0534479
0.0533499
0.0546621
0.0546639
0.0546594
0.0546593
0.0546487
0.0546453
0.0546304
0.0546222
0.0546047
0.0545893
0.0545716
0.0545471
0.0545304
0.0544959
0.0544815
0.0544358
0.0544236
0.0543671
0.0543586
0.054289
0.0542859
0.0542017
0.0542059
0.0541059
0.0554419
0.0554437
0.0554391
0.055439
0.0554283
0.0554249
0.0554096
0.0554014
0.0553834
0.0553681
0.0553495
0.0553252
0.0553076
0.0552727
0.0552578
0.0552112
0.0551985
0.0551412
0.0551318
0.0550615
0.0550574
0.0549722
0.0549755
0.0548739
0.0562333
0.0562352
0.0562305
0.0562305
0.0562195
0.0562161
0.0562004
0.0561921
0.0561735
0.0561582
0.0561387
0.0561144
0.0560959
0.0560607
0.056045
0.0559978
0.0559844
0.0559263
0.0559161
0.0558452
0.0558402
0.0557539
0.0557566
0.0556534
0.0570364
0.0570384
0.0570335
0.0570335
0.0570222
0.0570186
0.0570025
0.056994
0.0569748
0.0569593
0.0569387
0.0569145
0.0568948
0.0568596
0.056843
0.0567951
0.0567812
0.0567221
0.0567111
0.0566396
0.0566336
0.0565467
0.0565486
0.0564441
0.0578509
0.057853
0.0578479
0.0578478
0.057836
0.0578323
0.0578156
0.0578067
0.0577869
0.0577711
0.0577493
0.0577253
0.0577042
0.0576688
0.057651
0.0576029
0.0575884
0.0575282
0.0575166
0.0574445
0.0574376
0.0573499
0.0573513
0.0572457
0.0586762
0.0586784
0.058673
0.0586727
0.0586606
0.0586564
0.0586392
0.0586298
0.0586092
0.058593
0.05857
0.0585461
0.0585232
0.0584885
0.0584686
0.058421
0.0584056
0.0583443
0.0583322
0.0582594
0.0582518
0.0581638
0.0581643
0.0580579
0.0595114
0.0595135
0.059508
0.0595074
0.059495
0.0594903
0.0594726
0.0594626
0.0594413
0.0594244
0.0594005
0.0593766
0.0593519
0.0593177
0.0592958
0.0592488
0.059232
0.0591704
0.0591577
0.0590845
0.0590761
0.0589877
0.0589877
0.0588807
0.0603547
0.0603568
0.0603513
0.0603504
0.0603377
0.0603327
0.0603145
0.0603041
0.0602822
0.0602648
0.0602401
0.0602161
0.0601897
0.0601564
0.0601324
0.0600862
0.0600669
0.0600067
0.0599935
0.0599192
0.0599104
0.0598221
0.0598213
0.059714
0.0612042
0.0612063
0.0612008
0.0611999
0.0611871
0.061182
0.0611636
0.061153
0.0611308
0.0611132
0.061088
0.061064
0.0610365
0.0610039
0.0609779
0.0609332
0.0609115
0.0608533
0.0608385
0.060764
0.0607548
0.0606666
0.0606655
0.0605582
0.0620576
0.0620598
0.0620544
0.0620537
0.0620412
0.0620364
0.0620183
0.062008
0.061986
0.0619686
0.0619436
0.0619198
0.0618919
0.0618602
0.0618326
0.0617898
0.0617663
0.0617088
0.0616932
0.0616194
0.0616097
0.0615218
0.0615205
0.0614132
0.0629129
0.0629153
0.0629104
0.0629101
0.0628982
0.0628942
0.0628769
0.0628674
0.0628464
0.0628299
0.0628057
0.0627829
0.0627554
0.0627249
0.0626969
0.0626557
0.0626307
0.0625753
0.0625572
0.0624859
0.0624754
0.0623876
0.0623865
0.0622795
0.0637695
0.063772
0.0637676
0.0637682
0.0637572
0.0637544
0.0637384
0.0637305
0.0637109
0.0636962
0.0636735
0.0636525
0.0636262
0.0635977
0.06357
0.0635312
0.0635053
0.0634524
0.063433
0.0633632
0.0633524
0.0632649
0.0632638
0.0631571
0.064628
0.0646309
0.0646271
0.0646287
0.0646188
0.0646175
0.064603
0.064597
0.0645795
0.0645669
0.0645464
0.0645279
0.0645037
0.0644776
0.0644518
0.0644154
0.0643905
0.0643402
0.0643209
0.0642521
0.0642414
0.0641538
0.0641529
0.0640462
0.0654919
0.0654951
0.0654918
0.0654944
0.0654854
0.0654857
0.0654727
0.0654687
0.0654532
0.065443
0.0654248
0.065409
0.0653873
0.0653642
0.0653408
0.0653075
0.0652845
0.0652377
0.0652194
0.065153
0.0651433
0.0650558
0.0650551
0.0649473
0.0663665
0.0663703
0.066367
0.0663707
0.0663621
0.0663638
0.0663515
0.0663493
0.066335
0.066327
0.0663105
0.0662973
0.0662776
0.0662572
0.0662373
0.0662055
0.0661876
0.0661413
0.0661279
0.0660628
0.0660572
0.0659705
0.0659711
0.0658627
0.06726
0.0672645
0.0672603
0.0672654
0.0672555
0.067259
0.0672452
0.0672454
0.0672296
0.067224
0.0672072
0.0671959
0.0671772
0.0671582
0.0671423
0.0671081
0.0670996
0.0670481
0.0670453
0.0669771
0.0669788
0.0668946
0.0668988
0.066796
0.0681814
0.0681854
0.0681821
0.0681852
0.0681764
0.0681772
0.0681646
0.0681616
0.068147
0.0681387
0.0681223
0.0681098
0.0680903
0.0680733
0.0680548
0.0680234
0.0680146
0.0679653
0.0679631
0.067898
0.0679028
0.0678203
0.0678294
0.0677343
0.0691391
0.0691428
0.0691389
0.069141
0.0691307
0.0691298
0.069115
0.0691098
0.0690926
0.0690815
0.0690624
0.0690471
0.069025
0.0690061
0.0689827
0.0689549
0.0689381
0.0688925
0.0688889
0.0688225
0.0688295
0.0687455
0.0687579
0.0686631
0.0701395
0.070143
0.0701382
0.070139
0.0701266
0.0701234
0.0701056
0.070097
0.0700757
0.0700605
0.0700367
0.0700166
0.0699893
0.0699656
0.0699363
0.0699052
0.0698817
0.0698352
0.0698259
0.0697567
0.0697637
0.0696745
0.0696893
0.0695904
0.0711861
0.0711898
0.0711836
0.0711834
0.0711685
0.071163
0.0711414
0.0711294
0.071103
0.0710832
0.0710531
0.0710272
0.0709927
0.0709621
0.0709245
0.0708864
0.0708546
0.070801
0.070785
0.0707071
0.0707117
0.0706139
0.0706292
0.0705219
0.0722789
0.0722831
0.072275
0.0722745
0.0722569
0.0722498
0.0722242
0.0722097
0.0721775
0.0721548
0.0721163
0.0720867
0.0720422
0.0720051
0.0719581
0.0719102
0.0718701
0.0718013
0.0717782
0.0716865
0.0716838
0.0715725
0.0715855
0.0714644
0.0734146
0.0734181
0.0734107
0.0734078
0.0733902
0.0733799
0.0733535
0.0733344
0.0733011
0.0732714
0.0732317
0.0731931
0.0731453
0.0730993
0.0730435
0.0729895
0.0729317
0.072858
0.0728179
0.072713
0.0726958
0.0725658
0.0725706
0.0724275
0.0745864
0.0745897
0.0745823
0.0745788
0.0745604
0.0745491
0.0745213
0.0745006
0.0744652
0.0744332
0.0743904
0.0743485
0.0742965
0.0742456
0.0741841
0.0741234
0.0740542
0.0739803
0.0739115
0.0738093
0.0737655
0.073618
0.0736062
0.0734301
0.0757866
0.0757897
0.0757824
0.0757788
0.0757602
0.0757487
0.0757205
0.0756992
0.0756632
0.0756303
0.0755865
0.0755431
0.0754897
0.0754366
0.0753727
0.0753087
0.0752357
0.0751571
0.0750787
0.0749781
0.0749047
0.0747601
0.0747213
0.0745075
0.0770062
0.0770095
0.0770022
0.076999
0.0769806
0.0769696
0.0769416
0.0769208
0.0768852
0.0768527
0.0768094
0.0767665
0.0767135
0.0766608
0.0765973
0.0765338
0.0764609
0.0763831
0.0763033
0.0762046
0.0761251
0.0759888
0.0759325
0.0757069
0.0782367
0.0782402
0.0782333
0.0782307
0.0782128
0.0782026
0.0781755
0.0781559
0.0781213
0.0780903
0.0780484
0.0780072
0.077956
0.0779055
0.0778441
0.0777832
0.077713
0.0776378
0.0775635
0.0774658
0.0773984
0.0772604
0.0772207
0.0770223
0.0794701
0.079474
0.0794674
0.0794656
0.0794484
0.0794394
0.0794134
0.0793954
0.0793624
0.0793334
0.0792936
0.0792549
0.0792062
0.0791587
0.0791005
0.0790433
0.0789767
0.0789067
0.0788365
0.0787446
0.0786828
0.0785527
0.0785158
0.078332
0.0806995
0.0807036
0.0806975
0.0806965
0.0806801
0.0806725
0.0806478
0.0806317
0.0806005
0.0805739
0.0805364
0.0805007
0.0804549
0.080411
0.0803564
0.0803033
0.080241
0.080176
0.0801109
0.0800253
0.0799682
0.0798478
0.0798133
0.0796432
0.0819185
0.0819231
0.0819173
0.0819173
0.0819017
0.0818957
0.0818722
0.0818583
0.0818288
0.0818051
0.0817697
0.0817377
0.0816945
0.0816548
0.0816036
0.0815551
0.0814973
0.0814381
0.0813775
0.0812978
0.0812463
0.0811353
0.0811032
0.0809469
0.0831224
0.0831275
0.0831214
0.0831232
0.0831076
0.083104
0.083081
0.0830702
0.0830416
0.0830218
0.0829875
0.0829604
0.0829186
0.0828847
0.0828355
0.0827931
0.0827387
0.0826853
0.0826296
0.0825567
0.0825092
0.0824081
0.0823783
0.0822356
0.0843068
0.0843123
0.0843063
0.0843093
0.0842941
0.0842926
0.0842703
0.0842625
0.0842346
0.084219
0.0841855
0.0841637
0.0841227
0.0840954
0.084047
0.0840122
0.0839597
0.0839129
0.0838615
0.0837961
0.0837516
0.0836608
0.0836333
0.0835039
0.0854681
0.0854737
0.0854686
0.0854715
0.0854586
0.0854568
0.0854378
0.0854298
0.0854063
0.0853908
0.0853623
0.0853413
0.0853056
0.0852802
0.0852371
0.0852057
0.0851579
0.0851172
0.0850687
0.0850109
0.0849701
0.0848891
0.0848637
0.0847473
0.0866036
0.0866092
0.0866049
0.0866081
0.0865965
0.0865956
0.0865786
0.0865718
0.0865511
0.0865369
0.0865124
0.0864925
0.086462
0.086438
0.0864007
0.0863717
0.0863294
0.0862933
0.0862486
0.0861992
0.0861611
0.0860895
0.0860661
0.0859621
0.0877112
0.0877166
0.0877128
0.0877166
0.087706
0.0877061
0.0876907
0.0876854
0.087667
0.0876546
0.0876331
0.0876155
0.0875888
0.0875673
0.0875345
0.0875088
0.0874711
0.0874395
0.0873984
0.0873575
0.0873219
0.0872589
0.0872375
0.0871457
0.0887884
0.0887939
0.0887906
0.0887948
0.0887852
0.0887864
0.0887724
0.0887686
0.0887522
0.0887418
0.088723
0.0887077
0.0886843
0.0886657
0.0886368
0.0886145
0.0885813
0.0885541
0.0885176
0.0884826
0.0884486
0.0883962
0.0883761
0.0882961
0.0898342
0.0898398
0.0898368
0.0898415
0.0898327
0.089835
0.0898223
0.0898199
0.0898055
0.0897969
0.0897806
0.0897676
0.0897474
0.0897314
0.0897063
0.0896873
0.0896581
0.0896351
0.0896027
0.089574
0.0895418
0.0894985
0.0894802
0.0894112
0.0908474
0.0908528
0.0908502
0.0908555
0.0908474
0.0908507
0.0908391
0.0908383
0.0908255
0.0908188
0.0908048
0.090794
0.0907766
0.0907634
0.0907416
0.0907258
0.0907005
0.0906814
0.0906532
0.0906289
0.0906006
0.0905651
0.0905488
0.09049
0.0918271
0.0918326
0.0918303
0.0918358
0.0918287
0.0918325
0.0918225
0.0918227
0.0918117
0.0918066
0.0917948
0.0917861
0.0917714
0.0917607
0.091742
0.0917293
0.0917075
0.091692
0.0916675
0.0916482
0.0916233
0.0915953
0.0915803
0.0915311
0.092773
0.0927784
0.092776
0.0927827
0.0927751
0.0927811
0.0927708
0.0927733
0.0927631
0.0927601
0.09275
0.0927434
0.092731
0.0927228
0.0927071
0.0926972
0.0926788
0.0926668
0.092646
0.0926307
0.0926094
0.0925882
0.0925742
0.0925338
0.0936845
0.0936896
0.0936885
0.0936935
0.0936895
0.0936928
0.0936868
0.0936877
0.0936808
0.0936781
0.0936705
0.0936655
0.0936556
0.0936494
0.0936365
0.0936293
0.0936139
0.0936052
0.0935878
0.0935766
0.0935588
0.0935423
0.0935304
0.0934985
0.0945618
0.0945673
0.0945646
0.0945734
0.0945648
0.0945748
0.0945639
0.0945707
0.0945615
0.0945625
0.0945553
0.0945527
0.0945445
0.0945407
0.0945301
0.0945254
0.094513
0.0945073
0.0944929
0.0944855
0.0944708
0.0944594
0.0944486
0.0944249
0.095405
0.0954094
0.09541
0.0954132
0.0954136
0.0954142
0.0954139
0.0954134
0.0954116
0.0954098
0.0954065
0.0954043
0.0953987
0.0953965
0.0953883
0.095386
0.095376
0.095373
0.0953616
0.0953573
0.0953458
0.0953381
0.0953303
0.0953134
0.096214
0.0962195
0.0962167
0.0962268
0.096218
0.0962307
0.0962195
0.0962301
0.0962214
0.0962263
0.0962211
0.0962221
0.0962174
0.0962174
0.0962113
0.096211
0.0962036
0.0962032
0.0961943
0.0961934
0.096184
0.0961807
0.0961747
0.0961642
0.09699
0.0969938
0.0969956
0.0969978
0.0970008
0.0970004
0.0970039
0.0970026
0.097005
0.0970039
0.0970043
0.0970044
0.0970025
0.0970036
0.0969996
0.0970013
0.096996
0.0969979
0.0969915
0.0969934
0.0969869
0.0969871
0.0969834
0.0969781
0.0977325
0.0977377
0.0977357
0.0977451
0.0977385
0.0977505
0.097742
0.0977532
0.0977467
0.0977538
0.0977507
0.0977546
0.0977528
0.097756
0.0977536
0.0977571
0.097754
0.0977579
0.0977538
0.0977585
0.0977539
0.0977577
0.0977559
0.0977555
0.0984435
0.0984468
0.0984489
0.0984517
0.0984545
0.098456
0.0984598
0.0984603
0.0984643
0.0984649
0.0984678
0.09847
0.098471
0.0984749
0.0984743
0.0984794
0.098478
0.098484
0.0984817
0.0984887
0.0984863
0.0984933
0.0984928
0.0984971
0.0991221
0.0991266
0.0991263
0.099133
0.0991311
0.0991389
0.0991364
0.0991445
0.0991427
0.0991494
0.0991494
0.099155
0.0991559
0.0991616
0.0991621
0.0991688
0.099169
0.0991767
0.0991763
0.0991856
0.0991846
0.0991944
0.0991953
0.0992036
0.0997709
0.0997741
0.0997756
0.0997802
0.0997808
0.0997865
0.0997874
0.0997923
0.0997949
0.0997991
0.0998023
0.0998072
0.09981
0.0998164
0.0998184
0.0998263
0.0998279
0.0998373
0.0998381
0.0998494
0.0998501
0.0998624
0.0998641
0.0998763
0.100389
0.100393
0.100394
0.100398
0.100401
0.100404
0.100408
0.100411
0.100415
0.10042
0.100424
0.10043
0.100433
0.100441
0.100444
0.100453
0.100456
0.100466
0.100469
0.100482
0.100484
0.100498
0.100501
0.100516
0.100979
0.100982
0.100983
0.100989
0.100988
0.100997
0.100995
0.101004
0.101005
0.101013
0.101015
0.101023
0.101027
0.101035
0.101039
0.101049
0.101053
0.101065
0.101069
0.101083
0.101086
0.101103
0.101106
0.101125
0.101541
0.101543
0.101546
0.101548
0.101554
0.101554
0.101562
0.101563
0.101571
0.101574
0.101581
0.101587
0.101593
0.101601
0.101606
0.101617
0.101622
0.101635
0.10164
0.101655
0.101659
0.101677
0.101681
0.101703
0.102076
0.102079
0.10208
0.102085
0.102085
0.102093
0.102093
0.102103
0.102103
0.102113
0.102116
0.102125
0.10213
0.10214
0.102145
0.102157
0.102163
0.102177
0.102182
0.102199
0.102204
0.102224
0.102227
0.102252
0.102585
0.102587
0.10259
0.102592
0.102597
0.102599
0.102606
0.102608
0.102616
0.10262
0.102628
0.102635
0.102642
0.102652
0.102658
0.102671
0.102677
0.102692
0.102698
0.102716
0.102721
0.102742
0.102747
0.102772
0.103069
0.103071
0.103073
0.103077
0.103079
0.103085
0.103087
0.103096
0.103098
0.103107
0.103112
0.103122
0.103128
0.103139
0.103145
0.103158
0.103165
0.103181
0.103187
0.103206
0.103212
0.103235
0.10324
0.103266
0.103529
0.103531
0.103534
0.103536
0.103541
0.103543
0.10355
0.103554
0.103561
0.103567
0.103574
0.103583
0.10359
0.103601
0.103608
0.103622
0.103629
0.103645
0.103653
0.103672
0.103679
0.103702
0.103707
0.103736
0.103966
0.103969
0.10397
0.103975
0.103976
0.103983
0.103985
0.103993
0.103998
0.104005
0.104012
0.104021
0.104028
0.10404
0.104048
0.104062
0.104069
0.104086
0.104094
0.104114
0.104121
0.104146
0.104151
0.10418
0.104382
0.104383
0.104387
0.104388
0.104394
0.104395
0.104403
0.104407
0.104414
0.104421
0.104428
0.104437
0.104445
0.104457
0.104465
0.104479
0.104487
0.104504
0.104513
0.104534
0.104541
0.104566
0.104572
0.104603
0.104776
0.104778
0.104779
0.104784
0.104785
0.104792
0.104795
0.104803
0.104808
0.104816
0.104823
0.104832
0.10484
0.104852
0.10486
0.104875
0.104884
0.104901
0.10491
0.104931
0.104939
0.104965
0.10497
0.105002
0.10515
0.105152
0.105155
0.105157
0.105161
0.105165
0.105171
0.105176
0.105183
0.10519
0.105197
0.105207
0.105215
0.105227
0.105236
0.105251
0.105259
0.105277
0.105286
0.105308
0.105316
0.105342
0.105348
0.105381
0.105506
0.105507
0.105509
0.105512
0.105516
0.10552
0.105525
0.105532
0.105537
0.105546
0.105552
0.105563
0.10557
0.105583
0.105592
0.105607
0.105615
0.105634
0.105643
0.105664
0.105673
0.105699
0.105705
0.105739
0.105843
0.105844
0.105846
0.10585
0.105852
0.105858
0.105862
0.105868
0.105874
0.105882
0.10589
0.1059
0.105908
0.10592
0.105929
0.105944
0.105953
0.105972
0.10598