/*--------------------------------*- C++ -*----------------------------------*\
  =========                 |
  \\      /  F ield         | OpenFOAM: The Open Source CFD Toolbox
   \\    /   O peration     | Website:  https://openfoam.org
    \\  /    A nd           | Version:  10
     \\/     M anipulation  |
\*---------------------------------------------------------------------------*/
FoamFile
{
    format      ascii;
    class       volScalarField;
    location    "0.44";
    object      T;
}
// * * * * * * * * * * * * * * * * * * * * * * * * * * * * * * * * * * * * * //

dimensions      [0 0 0 1 0 0 0];

internalField   nonuniform List<scalar> 
4176
(
180.347
180.351
180.372
180.383
180.426
180.445
180.506
180.538
180.613
180.661
180.749
180.809
180.913
180.985
181.101
181.192
181.307
181.43
181.534
181.703
181.777
182.011
182.026
182.325
180.356
180.361
180.382
180.393
180.436
180.457
180.518
180.552
180.628
180.678
180.767
180.83
180.935
181.01
181.128
181.221
181.339
181.465
181.571
181.743
181.818
182.062
182.081
182.41
180.384
180.389
180.409
180.42
180.462
180.483
180.542
180.576
180.649
180.698
180.785
180.847
180.95
181.022
181.139
181.229
181.346
181.468
181.572
181.74
181.81
182.05
182.068
182.407
180.436
180.44
180.461
180.472
180.514
180.534
180.593
180.627
180.7
180.749
180.836
180.898
181.001
181.073
181.191
181.28
181.398
181.522
181.622
181.794
181.862
182.098
182.114
182.438
180.511
180.515
180.535
180.546
180.588
180.608
180.667
180.7
180.772
180.82
180.907
180.967
181.07
181.14
181.257
181.345
181.464
181.586
181.683
181.857
181.924
182.157
182.173
182.486
180.61
180.615
180.634
180.645
180.686
180.706
180.764
180.797
180.869
180.917
181.002
181.062
181.164
181.234
181.35
181.436
181.558
181.673
181.776
181.945
182.014
182.244
182.264
182.577
180.733
180.738
180.757
180.768
180.808
180.828
180.885
180.918
180.988
181.037
181.12
181.18
181.281
181.35
181.465
181.549
181.671
181.781
181.889
182.051
182.123
182.349
182.371
182.683
180.88
180.884
180.904
180.914
180.954
180.974
181.031
181.063
181.132
181.18
181.263
181.322
181.421
181.489
181.603
181.686
181.808
181.914
182.024
182.181
182.255
182.477
182.501
182.808
181.05
181.055
181.074
181.085
181.124
181.143
181.199
181.231
181.3
181.347
181.428
181.486
181.585
181.651
181.765
181.845
181.967
182.069
182.181
182.332
182.409
182.626
182.651
182.954
181.245
181.25
181.269
181.279
181.318
181.337
181.392
181.423
181.491
181.537
181.617
181.675
181.771
181.837
181.949
182.028
182.148
182.248
182.361
182.506
182.585
182.797
182.823
183.122
181.463
181.468
181.486
181.496
181.535
181.553
181.608
181.639
181.705
181.751
181.83
181.886
181.981
182.046
182.156
182.233
182.353
182.449
182.562
182.703
182.782
182.991
183.017
183.31
181.705
181.71
181.728
181.738
181.776
181.794
181.848
181.878
181.943
181.988
182.066
182.121
182.215
182.278
182.386
182.462
182.58
182.673
182.786
182.922
183.004
183.203
183.232
183.52
181.971
181.975
181.994
182.003
182.041
182.058
182.111
182.14
182.205
182.248
182.325
182.379
182.471
182.532
182.64
182.713
182.829
182.919
183.033
183.163
183.246
183.44
183.469
183.751
182.26
182.264
182.283
182.291
182.329
182.346
182.398
182.426
182.49
182.532
182.608
182.66
182.751
182.81
182.916
182.987
183.102
183.189
183.302
183.427
183.51
183.699
183.728
184.004
182.573
182.577
182.595
182.604
182.641
182.657
182.708
182.736
182.798
182.84
182.913
182.964
183.053
183.111
183.215
183.284
183.397
183.481
183.593
183.713
183.797
183.979
184.008
184.278
182.91
182.914
182.932
182.94
182.976
182.992
183.042
183.069
183.13
183.17
183.242
183.292
183.379
183.435
183.537
183.603
183.714
183.795
183.906
184.022
184.104
184.282
184.31
184.574
183.271
183.275
183.292
183.3
183.335
183.35
183.4
183.425
183.485
183.524
183.594
183.642
183.728
183.782
183.881
183.946
184.055
184.132
184.242
184.352
184.436
184.605
184.635
184.891
183.655
183.659
183.676
183.683
183.718
183.732
183.781
183.805
183.864
183.901
183.97
184.016
184.099
184.152
184.249
184.311
184.417
184.492
184.6
184.705
184.788
184.952
184.981
185.23
184.063
184.067
184.083
184.09
184.125
184.138
184.185
184.208
184.265
184.301
184.369
184.413
184.494
184.544
184.639
184.698
184.802
184.874
184.98
185.08
185.163
185.319
185.349
185.591
184.495
184.498
184.515
184.521
184.555
184.567
184.614
184.635
184.691
184.725
184.79
184.833
184.912
184.96
185.052
185.109
185.21
185.278
185.382
185.477
185.559
185.71
185.739
185.974
184.95
184.954
184.97
184.975
185.008
185.02
185.065
185.085
185.139
185.172
185.235
185.276
185.352
185.398
185.487
185.541
185.64
185.705
185.806
185.896
185.978
186.121
186.151
186.378
185.429
185.433
185.448
185.453
185.486
185.496
185.54
185.559
185.611
185.642
185.704
185.742
185.816
185.859
185.946
185.997
186.092
186.154
186.252
186.338
186.418
186.555
186.584
186.804
185.932
185.935
185.951
185.955
185.986
185.995
186.038
186.056
186.107
186.136
186.195
186.231
186.303
186.343
186.427
186.475
186.568
186.626
186.721
186.802
186.88
187.01
187.039
187.251
186.458
186.461
186.476
186.48
186.51
186.518
186.56
186.576
186.625
186.652
186.709
186.743
186.812
186.85
186.931
186.976
187.065
187.12
187.211
187.288
187.365
187.488
187.516
187.72
187.008
187.011
187.025
187.028
187.058
187.065
187.105
187.12
187.167
187.192
187.247
187.278
187.344
187.379
187.457
187.499
187.585
187.636
187.725
187.796
187.871
187.987
188.014
188.21
187.581
187.584
187.598
187.6
187.629
187.634
187.673
187.686
187.731
187.754
187.807
187.836
187.9
187.932
188.006
188.045
188.128
188.175
188.26
188.327
188.399
188.509
188.535
188.722
188.177
188.179
188.193
188.195
188.223
188.227
188.265
188.276
188.319
188.34
188.39
188.416
188.477
188.507
188.578
188.614
188.693
188.736
188.818
188.88
188.949
189.052
189.078
189.255
188.796
188.798
188.812
188.813
188.839
188.843
188.879
188.888
188.93
188.948
188.996
189.02
189.078
189.104
189.173
189.205
189.28
189.32
189.398
189.455
189.522
189.617
189.643
189.81
189.438
189.44
189.453
189.453
189.479
189.481
189.516
189.523
189.563
189.58
189.625
189.646
189.701
189.724
189.789
189.818
189.89
189.926
190
190.053
190.116
190.205
190.229
190.388
190.102
190.104
190.117
190.116
190.141
190.142
190.175
190.181
190.219
190.233
190.276
190.295
190.347
190.367
190.429
190.454
190.522
190.554
190.624
190.673
190.733
190.814
190.834
190.989
190.789
190.791
190.803
190.802
190.826
190.826
190.858
190.862
190.897
190.91
190.95
190.966
191.015
191.032
191.091
191.112
191.177
191.204
191.271
191.314
191.371
191.446
191.465
191.609
191.498
191.5
191.512
191.51
191.533
191.531
191.562
191.564
191.598
191.608
191.646
191.659
191.706
191.72
191.775
191.793
191.854
191.877
191.94
191.978
192.031
192.099
192.118
192.251
192.23
192.231
192.243
192.24
192.262
192.259
192.288
192.289
192.321
192.329
192.365
192.375
192.419
192.43
192.481
192.495
192.553
192.572
192.631
192.664
192.713
192.775
192.792
192.917
192.983
192.984
192.995
192.992
193.013
193.009
193.037
193.036
193.066
193.071
193.105
193.113
193.154
193.161
193.21
193.22
193.274
193.289
193.344
193.372
193.417
193.473
193.488
193.603
193.758
193.759
193.77
193.765
193.786
193.78
193.807
193.804
193.832
193.836
193.867
193.872
193.911
193.915
193.96
193.967
194.018
194.028
194.079
194.103
194.143
194.193
194.206
194.312
194.554
194.555
194.565
194.56
194.58
194.573
194.599
194.594
194.621
194.622
194.651
194.653
194.689
194.69
194.733
194.735
194.783
194.789
194.836
194.855
194.892
194.935
194.946
195.042
195.371
195.373
195.382
195.377
195.395
195.388
195.412
195.406
195.43
195.43
195.456
195.456
195.489
195.487
195.526
195.525
195.57
195.572
195.615
195.629
195.662
195.7
195.707
195.794
196.21
196.211
196.22
196.214
196.232
196.223
196.246
196.238
196.261
196.258
196.283
196.28
196.31
196.305
196.342
196.337
196.378
196.376
196.416
196.425
196.454
196.486
196.49
196.568
197.069
197.07
197.079
197.072
197.089
197.08
197.101
197.092
197.113
197.108
197.131
197.125
197.153
197.145
197.178
197.17
197.208
197.201
197.238
197.242
197.268
197.294
197.295
197.363
197.949
197.95
197.959
197.951
197.968
197.957
197.977
197.966
197.986
197.979
197.999
197.992
198.017
198.006
198.036
198.024
198.059
198.047
198.081
198.08
198.102
198.123
198.12
198.181
198.85
198.85
198.859
198.851
198.866
198.854
198.873
198.861
198.879
198.87
198.888
198.878
198.901
198.887
198.915
198.899
198.931
198.915
198.945
198.939
198.958
198.973
198.967
199.02
199.77
199.771
199.779
199.77
199.785
199.772
199.79
199.776
199.793
199.782
199.798
199.786
199.806
199.789
199.814
199.795
199.824
199.803
199.83
199.819
199.835
199.843
199.835
199.88
200.711
200.711
200.719
200.71
200.724
200.71
200.727
200.712
200.726
200.714
200.728
200.713
200.731
200.712
200.733
200.711
200.737
200.712
200.736
200.72
200.732
200.734
200.723
200.761
201.671
201.672
201.679
201.669
201.683
201.668
201.683
201.667
201.68
201.666
201.678
201.661
201.676
201.654
201.673
201.647
201.67
201.642
201.663
201.641
201.651
201.646
201.633
201.662
202.652
202.652
202.659
202.649
202.661
202.645
202.66
202.642
202.653
202.637
202.647
202.628
202.641
202.616
202.632
202.603
202.624
202.591
202.609
202.582
202.59
202.578
202.564
202.584
203.651
203.651
203.658
203.647
203.659
203.642
203.655
203.636
203.646
203.628
203.636
203.615
203.625
203.598
203.611
203.579
203.597
203.56
203.576
203.543
203.549
203.53
203.515
203.527
204.67
204.67
204.676
204.665
204.676
204.658
204.67
204.649
204.658
204.638
204.644
204.62
204.629
204.599
204.609
204.573
204.589
204.548
204.561
204.523
204.528
204.502
204.487
204.488
205.707
205.707
205.713
205.701
205.711
205.693
205.703
205.681
205.688
205.667
205.671
205.645
205.651
205.618
205.627
205.587
205.6
205.555
205.566
205.522
205.527
205.492
205.477
205.47
206.762
206.762
206.768
206.755
206.765
206.745
206.755
206.732
206.737
206.714
206.716
206.688
206.692
206.656
206.663
206.619
206.63
206.58
206.59
206.539
206.544
206.503
206.485
206.471
207.835
207.835
207.841
207.827
207.837
207.816
207.824
207.8
207.803
207.779
207.779
207.749
207.751
207.712
207.717
207.67
207.679
207.624
207.633
207.576
207.58
207.529
207.515
207.49
208.926
208.925
208.931
208.917
208.926
208.904
208.911
208.885
208.888
208.861
208.86
208.827
208.827
208.786
208.789
208.738
208.745
208.685
208.694
208.631
208.634
208.576
208.561
208.529
210.033
210.032
210.037
210.023
210.031
210.009
210.015
209.988
209.989
209.961
209.957
209.923
209.921
209.877
209.878
209.824
209.829
209.764
209.773
209.704
209.706
209.641
209.625
209.585
211.156
211.155
211.16
211.145
211.153
211.129
211.135
211.107
211.106
211.077
211.072
211.035
211.031
210.985
210.985
210.926
210.931
210.861
210.869
210.792
210.796
210.723
210.708
210.66
212.295
212.294
212.299
212.283
212.29
212.266
212.271
212.241
212.239
212.208
212.202
212.164
212.158
212.108
212.108
212.045
212.049
211.975
211.981
211.899
211.903
211.824
211.807
211.753
213.448
213.447
213.452
213.436
213.442
213.418
213.421
213.391
213.388
213.355
213.348
213.307
213.301
213.248
213.248
213.179
213.185
213.102
213.112
213.024
213.024
212.941
212.924
212.862
214.616
214.615
214.619
214.603
214.609
214.583
214.586
214.554
214.551
214.517
214.509
214.465
214.459
214.402
214.402
214.327
214.336
214.248
214.255
214.163
214.164
214.076
214.056
213.989
215.796
215.796
215.799
215.783
215.788
215.762
215.765
215.732
215.728
215.692
215.684
215.637
215.632
215.571
215.571
215.494
215.499
215.41
215.415
215.32
215.317
215.225
215.206
215.131
216.99
216.989
216.992
216.976
216.981
216.955
216.956
216.922
216.918
216.88
216.873
216.822
216.818
216.754
216.754
216.673
216.678
216.585
216.59
216.49
216.488
216.391
216.37
216.29
218.195
218.194
218.197
218.181
218.185
218.159
218.159
218.125
218.121
218.081
218.073
218.022
218.016
217.951
217.949
217.867
217.87
217.776
217.777
217.676
217.671
217.571
217.55
217.464
219.411
219.411
219.414
219.397
219.401
219.375
219.374
219.34
219.335
219.294
219.286
219.233
219.227
219.16
219.157
219.074
219.074
218.978
218.98
218.875
218.87
218.765
218.743
218.652
220.638
220.638
220.64
220.624
220.627
220.601
220.6
220.567
220.559
220.519
220.509
220.457
220.449
220.381
220.377
220.292
220.292
220.195
220.193
220.088
220.08
219.973
219.95
219.855
221.875
221.875
221.878
221.861
221.864
221.837
221.836
221.803
221.793
221.755
221.742
221.691
221.682
221.613
221.608
221.523
221.521
221.422
221.42
221.312
221.304
221.194
221.17
221.07
223.121
223.121
223.124
223.107
223.11
223.083
223.082
223.049
223.038
223.001
222.986
222.936
222.924
222.856
222.85
222.764
222.762
222.661
222.658
222.548
222.539
222.427
222.403
222.298
224.377
224.376
224.379
224.362
224.366
224.338
224.337
224.304
224.292
224.256
224.239
224.19
224.176
224.11
224.101
224.016
224.012
223.91
223.906
223.795
223.785
223.67
223.646
223.538
225.64
225.64
225.643
225.626
225.63
225.602
225.6
225.567
225.555
225.52
225.501
225.453
225.438
225.371
225.361
225.276
225.271
225.168
225.163
225.051
225.04
224.924
224.899
224.788
226.913
226.912
226.915
226.898
226.902
226.874
226.872
226.839
226.827
226.792
226.772
226.725
226.708
226.642
226.629
226.546
226.539
226.435
226.43
226.316
226.305
226.186
226.162
226.047
228.193
228.193
228.196
228.179
228.182
228.155
228.152
228.119
228.106
228.071
228.05
228.004
227.985
227.92
227.905
227.822
227.814
227.711
227.704
227.589
227.577
227.457
227.432
227.316
229.481
229.481
229.484
229.467
229.47
229.442
229.44
229.406
229.393
229.358
229.336
229.29
229.27
229.204
229.189
229.105
229.096
228.993
228.985
228.868
228.857
228.735
228.71
228.592
230.777
230.777
230.78
230.762
230.765
230.737
230.734
230.7
230.686
230.651
230.627
230.582
230.559
230.495
230.479
230.394
230.384
230.281
230.273
230.155
230.142
230.02
229.995
229.875
232.079
232.079
232.082
232.064
232.067
232.038
232.035
232
231.985
231.95
231.924
231.879
231.855
231.791
231.774
231.687
231.677
231.575
231.564
231.447
231.434
231.31
231.285
231.164
233.387
233.386
233.389
233.371
233.373
233.344
233.34
233.304
233.289
233.253
233.226
233.182
233.154
233.092
233.073
232.987
232.974
232.873
232.861
232.744
232.731
232.606
232.581
232.459
234.697
234.697
234.7
234.681
234.683
234.653
234.649
234.612
234.596
234.559
234.531
234.487
234.458
234.397
234.373
234.291
234.277
234.174
234.161
234.048
234.032
233.907
233.882
233.759
236.008
236.008
236.011
235.992
235.994
235.963
235.959
235.922
235.905
235.868
235.839
235.796
235.764
235.705
235.679
235.599
235.583
235.478
235.465
235.355
235.337
235.213
235.188
235.065
237.317
237.316
237.319
237.3
237.303
237.272
237.268
237.231
237.215
237.178
237.149
237.106
237.073
237.016
236.987
236.91
236.89
236.792
236.774
236.665
236.648
236.524
236.5
236.377
238.619
238.619
238.623
238.604
238.607
238.577
238.574
238.538
238.522
238.487
238.458
238.416
238.384
238.328
238.298
238.224
238.201
238.106
238.09
237.978
237.962
237.841
237.817
237.694
239.914
239.914
239.918
239.9
239.905
239.876
239.875
239.84
239.827
239.793
239.766
239.727
239.695
239.642
239.612
239.542
239.518
239.426
239.409
239.297
239.283
239.162
239.139
239.017
241.2
241.201
241.206
241.189
241.195
241.168
241.169
241.137
241.126
241.095
241.072
241.035
241.006
240.957
240.928
240.862
240.837
240.751
240.731
240.626
240.609
240.489
240.467
240.346
242.481
242.482
242.488
242.472
242.481
242.455
242.459
242.43
242.422
242.395
242.374
242.342
242.316
242.271
242.246
242.184
242.161
242.079
242.061
241.958
241.943
241.823
241.802
241.681
243.763
243.764
243.771
243.756
243.766
243.743
243.748
243.722
243.716
243.693
243.675
243.647
243.625
243.584
243.563
243.506
243.486
243.408
243.396
243.294
243.283
243.165
243.146
243.023
245.053
245.055
245.062
245.049
245.058
245.037
245.043
245.02
245.015
244.994
244.978
244.954
244.933
244.897
244.881
244.824
244.814
244.733
244.732
244.631
244.628
244.511
244.496
244.377
246.365
246.367
246.373
246.36
246.37
246.348
246.354
246.33
246.326
246.306
246.29
246.267
246.248
246.213
246.199
246.143
246.141
246.057
246.067
245.963
245.969
245.856
245.847
245.736
247.708
247.71
247.717
247.702
247.711
247.687
247.692
247.666
247.66
247.637
247.62
247.595
247.574
247.541
247.522
247.47
247.465
247.386
247.394
247.294
247.304
247.191
247.19
247.085
249.094
249.096
249.101
249.085
249.092
249.066
249.068
249.037
249.028
249
248.979
248.949
248.923
248.887
248.861
248.81
248.796
248.722
248.723
248.622
248.635
248.519
248.522
248.415
250.529
250.53
250.534
250.516
250.521
250.491
250.489
250.454
250.439
250.406
250.377
250.341
250.307
250.264
250.229
250.173
250.148
250.069
250.064
249.956
249.968
249.844
249.85
249.736
252.014
252.015
252.018
251.998
252
251.967
251.96
251.921
251.899
251.861
251.823
251.781
251.736
251.684
251.638
251.571
251.535
251.443
251.43
251.308
251.315
251.177
251.183
251.054
253.546
253.547
253.549
253.528
253.528
253.492
253.482
253.438
253.411
253.367
253.322
253.272
253.218
253.156
253.098
253.022
252.97
252.866
252.835
252.698
252.69
252.533
252.533
252.382
255.119
255.12
255.122
255.098
255.098
255.059
255.047
255
254.97
254.92
254.873
254.815
254.755
254.685
254.617
254.532
254.461
254.351
254.296
254.149
254.117
253.936
253.923
253.736
256.721
256.722
256.724
256.7
256.699
256.659
256.646
256.597
256.566
256.514
256.464
256.403
256.339
256.264
256.19
256.1
256.017
255.907
255.823
255.68
255.613
255.421
255.382
255.149
258.342
258.342
258.345
258.321
258.32
258.28
258.267
258.218
258.187
258.135
258.084
258.022
257.958
257.882
257.806
257.715
257.628
257.516
257.424
257.283
257.192
257.005
256.939
256.67
259.968
259.969
259.972
259.948
259.948
259.909
259.897
259.849
259.819
259.768
259.718
259.659
259.595
259.523
259.447
259.359
259.273
259.165
259.072
258.936
258.844
258.662
258.593
258.327
261.589
261.59
261.594
261.571
261.572
261.534
261.524
261.478
261.45
261.401
261.354
261.298
261.237
261.168
261.096
261.013
260.93
260.827
260.741
260.611
260.529
260.352
260.294
260.052
263.196
263.197
263.201
263.179
263.181
263.145
263.137
263.093
263.067
263.022
262.977
262.926
262.868
262.804
262.736
262.66
262.582
262.488
262.405
262.285
262.21
262.046
261.992
261.771
264.779
264.781
264.785
264.765
264.768
264.733
264.727
264.686
264.663
264.621
264.579
264.533
264.478
264.421
264.357
264.288
264.214
264.128
264.052
263.943
263.874
263.723
263.673
263.471
266.333
266.335
266.34
266.321
266.325
266.293
266.288
266.25
266.228
266.192
266.152
266.111
266.059
266.009
265.949
265.887
265.819
265.742
265.67
265.572
265.508
265.372
265.325
265.141
267.852
267.854
267.859
267.842
267.846
267.817
267.813
267.779
267.759
267.728
267.689
267.655
267.605
267.563
267.505
267.452
267.387
267.32
267.255
267.162
267.107
266.984
266.94
266.775
269.331
269.334
269.339
269.323
269.329
269.301
269.299
269.268
269.251
269.223
269.188
269.158
269.112
269.076
269.021
268.977
268.915
268.858
268.796
268.715
268.664
268.555
268.512
268.366
270.769
270.771
270.778
270.762
270.77
270.742
270.744
270.714
270.701
270.674
270.644
270.617
270.577
270.544
270.496
270.456
270.4
270.35
270.292
270.223
270.176
270.08
270.04
269.91
272.161
272.164
272.172
272.156
272.166
272.14
272.143
272.115
272.105
272.081
272.055
272.031
271.995
271.966
271.924
271.888
271.838
271.796
271.743
271.686
271.637
271.555
271.519
271.405
273.508
273.511
273.519
273.504
273.515
273.49
273.496
273.47
273.462
273.441
273.419
273.397
273.366
273.341
273.303
273.273
273.228
273.192
273.142
273.097
273.051
272.98
272.947
272.848
274.808
274.811
274.819
274.805
274.817
274.794
274.801
274.777
274.772
274.753
274.734
274.715
274.688
274.667
274.634
274.608
274.568
274.538
274.494
274.455
274.412
274.354
274.323
274.239
276.06
276.063
276.072
276.057
276.072
276.048
276.059
276.035
276.033
276.016
276
275.985
275.961
275.943
275.914
275.893
275.857
275.833
275.793
275.763
275.722
275.677
275.644
275.576
277.264
277.267
277.276
277.264
277.275
277.258
277.265
277.247
277.244
277.231
277.217
277.205
277.184
277.17
277.145
277.128
277.097
277.077
277.042
277.018
276.98
276.946
276.915
276.859
278.42
278.423
278.434
278.417
278.439
278.41
278.431
278.404
278.411
278.395
278.386
278.375
278.358
278.347
278.325
278.313
278.285
278.271
278.239
278.221
278.187
278.162
278.133
278.089
279.529
279.533
279.538
279.535
279.537
279.535
279.531
279.527
279.52
279.516
279.504
279.498
279.483
279.475
279.456
279.447
279.423
279.414
279.385
279.374
279.343
279.326
279.297
279.265
280.591
280.592
280.608
280.584
280.618
280.579
280.614
280.579
280.598
280.58
280.579
280.571
280.56
280.554
280.539
280.533
280.512
280.507
280.482
280.475
280.449
280.438
280.411
280.389
281.607
281.612
281.613
281.62
281.609
281.624
281.607
281.62
281.604
281.612
281.599
281.6
281.588
281.586
281.573
281.571
281.553
281.551
281.53
281.528
281.503
281.499
281.474
281.461
282.578
282.577
282.596
282.569
282.609
282.565
282.61
282.57
282.598
282.577
282.584
282.578
282.573
282.571
282.561
282.561
282.546
282.548
282.529
282.531
282.511
282.511
282.488
282.484
283.504
283.51
283.508
283.521
283.505
283.529
283.504
283.529
283.507
283.524
283.51
283.517
283.509
283.511
283.503
283.506
283.493
283.498
283.482
283.488
283.469
283.475
283.455
283.457
284.389
284.388
284.405
284.382
284.418
284.381
284.423
284.387
284.418
284.398
284.409
284.405
284.404
284.406
284.401
284.406
284.396
284.403
284.39
284.399
284.383
284.393
284.375
284.384
285.23
285.236
285.233
285.246
285.233
285.255
285.235
285.26
285.241
285.26
285.248
285.259
285.253
285.26
285.255
285.262
285.254
285.264
285.254
285.266
285.252
285.266
285.25
285.264
286.033
286.033
286.046
286.032
286.056
286.035
286.063
286.042
286.064
286.053
286.063
286.063
286.065
286.07
286.068
286.077
286.071
286.084
286.074
286.089
286.078
286.096
286.08
286.1
286.795
286.8
286.8
286.808
286.805
286.815
286.809
286.823
286.816
286.829
286.825
286.835
286.833
286.842
286.841
286.851
286.847
286.861
286.854
286.872
286.861
286.883
286.869
286.892
287.522
287.523
287.53
287.527
287.537
287.535
287.544
287.543
287.55
287.553
287.557
287.564
287.565
287.574
287.575
287.587
287.584
287.6
287.594
287.614
287.605
287.63
287.617
287.643
288.211
288.215
288.217
288.22
288.225
288.226
288.233
288.235
288.242
288.245
288.25
288.257
288.26
288.27
288.272
288.285
288.283
288.301
288.297
288.318
288.31
288.338
288.327
288.355
288.867
288.869
288.872
288.876
288.878
288.886
288.884
288.897
288.893
288.907
288.905
288.918
288.919
288.931
288.933
288.947
288.947
288.966
288.962
288.986
288.979
289.009
289
289.029
289.489
289.492
289.494
289.497
289.502
289.503
289.513
289.511
289.524
289.524
289.534
289.54
289.546
289.557
289.561
289.575
289.576
289.596
289.595
289.619
289.613
289.644
289.638
289.667
290.079
290.083
290.084
290.089
290.09
290.099
290.097
290.111
290.108
290.123
290.122
290.136
290.138
290.152
290.156
290.171
290.173
290.195
290.192
290.219
290.214
290.245
290.236
290.276
290.64
290.642
290.645
290.647
290.653
290.655
290.663
290.665
290.675
290.679
290.687
290.696
290.702
290.715
290.72
290.736
290.739
290.76
290.76
290.787
290.783
290.816
290.806
290.848
291.17
291.175
291.174
291.182
291.18
291.191
291.19
291.201
291.203
291.214
291.218
291.23
291.235
291.249
291.254
291.271
291.274
291.297
291.297
291.324
291.322
291.356
291.349
291.387
291.675
291.676
291.681
291.68
291.69
291.689
291.699
291.702
291.709
291.718
291.723
291.735
291.741
291.755
291.76
291.778
291.782
291.804
291.806
291.834
291.831
291.866
291.859
291.902
292.152
292.156
292.154
292.164
292.16
292.173
292.171
292.183
292.186
292.196
292.202
292.213
292.22
292.234
292.24
292.258
292.262
292.286
292.287
292.315
292.314
292.35
292.344
292.385
292.605
292.606
292.611
292.611
292.62
292.619
292.629
292.632
292.64
292.648
292.655
292.667
292.673
292.688
292.694
292.712
292.718
292.74
292.743
292.772
292.771
292.807
292.802
292.844
293.034
293.037
293.037
293.043
293.043
293.053
293.053
293.064
293.067
293.078
293.084
293.096
293.103
293.118
293.124
293.143
293.148
293.172
293.175
293.203
293.203
293.24
293.234
293.278
293.44
293.442
293.444
293.448
293.451
293.457
293.462
293.468
293.475
293.483
293.491
293.502
293.51
293.524
293.531
293.55
293.556
293.579
293.582
293.612
293.611
293.648
293.644
293.687
293.825
293.827
293.83
293.832
293.837
293.84
293.847
293.853
293.859
293.869
293.875
293.888
293.894
293.91
293.916
293.935
293.941
293.965
293.969
293.997
293.998
294.035
294.03
294.074
294.19
294.192
294.193
294.198
294.199
294.207
294.209
294.219
294.223
294.233
294.24
294.252
294.259
294.274
294.281
294.3
294.306
294.33
294.333
294.363
294.363
294.4
294.396
294.439
294.535
294.537
294.539
294.542
294.545
294.551
294.556
294.562
294.569
294.577
294.585
294.596
294.604
294.619
294.626
294.645
294.651
294.675
294.679
294.708
294.709
294.745
294.741
294.785
294.862
294.863
294.866
294.868
294.873
294.876
294.883
294.889
294.895
294.905
294.911
294.923
294.931
294.946
294.953
294.972
294.978
295.001
295.005
295.035
295.035
295.071
295.068
295.11
295.172
295.173
295.174
295.179
295.18
295.188
295.19
295.199
295.204
295.214
295.22
295.232
295.24
295.254
295.262
295.28
295.287
295.31
295.315
295.343
295.344
295.38
295.376
295.419
295.465
295.466
295.468
295.47
295.475
295.478
295.485
295.49
295.498
295.505
295.514
295.524
295.533
295.547
295.554
295.573
295.579
295.602
295.606
295.635
295.636
295.672
295.669
295.71
295.742
295.743
295.746
295.747
295.753
295.755
295.762
295.768
295.774
295.783
295.79
295.802
295.809
295.824
295.831
295.849
295.856
295.878
295.883
295.912
295.912
295.948
295.945
295.987
296.005
296.007
296.007
296.013
296.012
296.022
296.021
296.032
296.035
296.046
296.052
296.064
296.071
296.086
296.093
296.111
296.118
296.14
296.145
296.173
296.175
296.208
296.206
296.247
296.254
296.254
296.258
296.256
296.266
296.263
296.276
296.275
296.287
296.292
296.301
296.311
296.319
296.333
296.34
296.358
296.365
296.387
296.392
296.42
296.424
296.453
296.452
296.493
296.489
296.491
296.49
296.497
296.494
296.507
296.503
296.517
296.516
296.53
296.534
296.547
296.553
296.568
296.575
296.592
296.6
296.622
296.627
296.653
296.656
296.688
296.687
296.725
296.712
296.712
296.717
296.714
296.725
296.72
296.735
296.732
296.745
296.748
296.759
296.767
296.776
296.79
296.796
296.814
296.821
296.843
296.848
296.874
296.874
296.911
296.907
296.946
296.923
296.925
296.923
296.931
296.927
296.94
296.936
296.95
296.949
296.963
296.966
296.979
296.985
297
297.006
297.024
297.031
297.052
297.057
297.083
297.086
297.117
297.116
297.153
297.123
297.122
297.128
297.123
297.136
297.13
297.145
297.142
297.154
297.158
297.167
297.177
297.185
297.198
297.204
297.222
297.229
297.249
297.255
297.281
297.283
297.315
297.312
297.351
297.311
297.314
297.311
297.32
297.315
297.328
297.324
297.338
297.337
297.35
297.354
297.366
297.372
297.386
297.392
297.41
297.416
297.437
297.44
297.468
297.469
297.502
297.498
297.536
297.491
297.49
297.495
297.492
297.501
297.499
297.51
297.51
297.52
297.525
297.533
297.543
297.55
297.564
297.57
297.587
297.593
297.614
297.619
297.643
297.646
297.677
297.674
297.711
297.659
297.661
297.66
297.666
297.665
297.673
297.673
297.683
297.685
297.696
297.7
297.712
297.718
297.732
297.738
297.755
297.761
297.781
297.786
297.81
297.811
297.844
297.84
297.877
297.82
297.82
297.822
297.823
297.828
297.83
297.836
297.84
297.846
297.854
297.86
297.871
297.877
297.89
297.897
297.914
297.918
297.94
297.942
297.97
297.97
298
297.998
298.033
297.971
297.971
297.973
297.975
297.978
297.981
297.987
297.991
297.997
298.005
298.011
298.022
298.027
298.041
298.047
298.064
298.069
298.089
298.092
298.118
298.117
298.15
298.146
298.181
298.114
298.115
298.115
298.12
298.118
298.128
298.126
298.137
298.138
298.149
298.152
298.164
298.169
298.183
298.189
298.205
298.21
298.23
298.234
298.258
298.26
298.289
298.287
298.32
298.249
298.248
298.253
298.25
298.26
298.255
298.268
298.266
298.277
298.281
298.288
298.298
298.303
298.317
298.322
298.34
298.342
298.365
298.366
298.392
298.391
298.423
298.418
298.453
298.376
298.379
298.375
298.386
298.377
298.395
298.384
298.403
298.397
298.413
298.412
298.427
298.43
298.444
298.448
298.467
298.469
298.49
298.493
298.517
298.518
298.547
298.545
298.576
298.498
298.496
298.504
298.495
298.512
298.499
298.52
298.51
298.527
298.527
298.536
298.545
298.55
298.564
298.568
298.585
298.588
298.61
298.61
298.637
298.635
298.666
298.662
298.695
298.611
298.615
298.608
298.623
298.608
298.633
298.615
298.64
298.628
298.648
298.645
298.66
298.662
298.677
298.681
298.698
298.7
298.722
298.724
298.747
298.749
298.776
298.773
298.805
298.719
298.717
298.726
298.715
298.735
298.718
298.743
298.729
298.749
298.747
298.757
298.765
298.77
298.783
298.787
298.805
298.807
298.827
298.828
298.854
298.852
298.882
298.878
298.91
298.819
298.824
298.816
298.833
298.815
298.842
298.822
298.849
298.836
298.857
298.852
298.868
298.869
298.884
298.888
298.905
298.906
298.928
298.929
298.952
298.954
298.979
298.978
299.008
298.916
298.914
298.922
298.912
298.931
298.916
298.938
298.927
298.944
298.943
298.952
298.961
298.965
298.979
298.982
298.999
299.002
299.021
299.022
299.047
299.046
299.073
299.071
299.101
299.005
299.009
299.002
299.017
299.003
299.025
299.01
299.032
299.022
299.04
299.037
299.052
299.054
299.067
299.071
299.088
299.089
299.111
299.111
299.133
299.135
299.16
299.16
299.187
299.091
299.089
299.095
299.089
299.102
299.094
299.109
299.104
299.115
299.118
299.125
299.134
299.138
299.152
299.154
299.171
299.174
299.192
299.194
299.218
299.217
299.242
299.242
299.27
299.169
299.172
299.168
299.178
299.17
299.185
299.177
299.193
299.188
299.202
299.201
299.215
299.216
299.23
299.233
299.249
299.251
299.272
299.273
299.293
299.294
299.32
299.32
299.346
299.245
299.244
299.248
299.245
299.253
299.251
299.26
299.26
299.267
299.273
299.278
299.288
299.29
299.305
299.306
299.323
299.326
299.343
299.345
299.368
299.369
299.391
299.392
299.418
299.314
299.316
299.314
299.321
299.317
299.327
299.323
299.335
299.333
299.345
299.345
299.357
299.36
299.374
299.375
299.391
299.393
299.414
299.414
299.435
299.435
299.461
299.46
299.486
299.38
299.38
299.382
299.382
299.387
299.388