/*--------------------------------*- C++ -*----------------------------------*\
  =========                 |
  \\      /  F ield         | OpenFOAM: The Open Source CFD Toolbox
   \\    /   O peration     | Website:  https://openfoam.org
    \\  /    A nd           | Version:  10
     \\/     M anipulation  |
\*---------------------------------------------------------------------------*/
FoamFile
{
    format      ascii;
    class       volVectorField;
    location    "0.44";
    object      U;
}
// * * * * * * * * * * * * * * * * * * * * * * * * * * * * * * * * * * * * * //

dimensions      [0 1 -1 0 0 0 0];

internalField   nonuniform List<vector> 
4176
(
(497.488 -0.014129 -6.82215e-09)
(497.474 0.0636905 2.00485e-09)
(497.449 0.00142871 -6.634e-10)
(497.4 0.0903327 -3.08e-11)
(497.346 0.0510148 -1.90141e-10)
(497.271 0.089515 -5.95681e-10)
(497.18 0.125903 -3.28856e-10)
(497.088 0.0605431 3.62103e-10)
(496.954 0.225319 7.45219e-10)
(496.849 0.00487507 7.08561e-10)
(496.672 0.344383 4.51844e-10)
(496.55 -0.06908 3.2872e-10)
(496.339 0.469789 8.49526e-11)
(496.191 -0.139426 -2.78366e-10)
(495.956 0.567812 -4.14695e-10)
(495.773 -0.135544 -2.63936e-10)
(495.536 0.52854 -2.00427e-10)
(495.286 0.0236767 -1.18765e-11)
(495.073 0.334871 2.99219e-10)
(494.73 0.323013 1.63844e-10)
(494.575 -0.0168631 -1.37673e-10)
(494.098 0.771762 -1.43401e-10)
(494.067 -0.516399 1.53817e-10)
(493.444 1.44248 2.86484e-10)
(497.47 0.00494284 -6.82093e-09)
(497.456 0.114513 2.00509e-09)
(497.43 0.0764808 -6.63507e-10)
(497.379 0.20324 -3.15933e-11)
(497.325 0.186271 -1.90029e-10)
(497.247 0.264239 -5.95246e-10)
(497.156 0.321807 -3.29427e-10)
(497.059 0.29564 3.62187e-10)
(496.925 0.48228 7.45833e-10)
(496.814 0.298001 7.0864e-10)
(496.636 0.662904 4.51285e-10)
(496.508 0.278734 3.28574e-10)
(496.293 0.850366 8.33891e-11)
(496.142 0.258446 -2.78203e-10)
(495.901 1.0125 -4.14461e-10)
(495.714 0.302133 -2.63426e-10)
(495.469 1.04229 -2.01611e-10)
(495.216 0.510714 -1.20191e-11)
(494.996 0.91445 2.98181e-10)
(494.646 0.855194 1.63436e-10)
(494.491 0.628513 -1.37616e-10)
(493.993 1.33095 -1.45716e-10)
(493.956 0.125173 1.54579e-10)
(493.269 1.99266 2.86132e-10)
(497.413 0.0232921 -6.82485e-09)
(497.399 0.161167 2.00436e-09)
(497.375 0.147659 -6.65552e-10)
(497.324 0.30758 -3.06591e-11)
(497.273 0.313876 -1.90323e-10)
(497.195 0.426427 -5.95928e-10)
(497.108 0.50593 -3.26605e-10)
(497.011 0.51487 3.64052e-10)
(496.882 0.722999 7.47811e-10)
(496.772 0.572658 7.08782e-10)
(496.599 0.960684 4.50204e-10)
(496.474 0.606135 3.27635e-10)
(496.263 1.20616 8.49868e-11)
(496.116 0.634029 -2.78048e-10)
(495.877 1.42871 -4.14635e-10)
(495.698 0.713879 -2.62152e-10)
(495.454 1.52279 -2.04352e-10)
(495.209 0.965947 -1.36631e-11)
(494.993 1.45728 2.98801e-10)
(494.653 1.34388 1.63009e-10)
(494.506 1.24773 -1.38553e-10)
(494.016 1.88214 -1.43014e-10)
(493.981 0.838814 1.54912e-10)
(493.271 2.60883 2.87114e-10)
(497.309 0.0420273 -6.82375e-09)
(497.295 0.208674 2.00824e-09)
(497.271 0.220159 -6.66614e-10)
(497.22 0.4139 -2.76868e-11)
(497.168 0.44385 -1.91112e-10)
(497.091 0.591784 -6.00154e-10)
(497.004 0.693491 -3.26392e-10)
(496.907 0.738497 3.6164e-10)
(496.777 0.968211 7.41116e-10)
(496.668 0.852962 7.12154e-10)
(496.494 1.26402 4.50992e-10)
(496.37 0.94049 3.258e-10)
(496.158 1.56884 8.64732e-11)
(496.013 1.01823 -2.79557e-10)
(495.771 1.8536 -4.21717e-10)
(495.593 1.13537 -2.63325e-10)
(495.346 2.01722 -2.01949e-10)
(495.097 1.42648 -1.4062e-11)
(494.891 2.00945 3.0108e-10)
(494.54 1.8408 1.62392e-10)
(494.398 1.85831 -1.41342e-10)
(493.916 2.41993 -1.43789e-10)
(493.886 1.52583 1.53196e-10)
(493.205 3.20564 2.77676e-10)
(497.157 0.06036 -6.82605e-09)
(497.143 0.255199 2.01503e-09)
(497.119 0.291084 -6.63e-10)
(497.069 0.51809 -2.77803e-11)
(497.018 0.570993 -1.87881e-10)
(496.941 0.753953 -5.94772e-10)
(496.855 0.876965 -3.28207e-10)
(496.76 0.958037 3.63932e-10)
(496.632 1.20808 7.46715e-10)
(496.524 1.12843 7.1007e-10)
(496.351 1.5608 4.51068e-10)
(496.229 1.26929 3.28571e-10)
(496.018 1.92411 8.30426e-11)
(495.876 1.39599 -2.80482e-10)
(495.634 2.27132 -4.19765e-10)
(495.461 1.55006 -2.65857e-10)
(495.21 2.51255 -2.03065e-10)
(494.967 1.86965 -1.33166e-11)
(494.764 2.55452 2.95592e-10)
(494.411 2.33873 1.68168e-10)
(494.271 2.45274 -1.33598e-10)
(493.794 2.94573 -1.40812e-10)
(493.763 2.16848 1.56835e-10)
(493.103 3.76354 2.88533e-10)
(496.957 0.0786856 -6.83901e-09)
(496.942 0.30143 2.01297e-09)
(496.919 0.361858 -6.61813e-10)
(496.869 0.621698 -3.25402e-11)
(496.819 0.697833 -1.99126e-10)
(496.742 0.915268 -5.99745e-10)
(496.657 1.06001 -3.25597e-10)
(496.562 1.17653 3.60262e-10)
(496.435 1.44738 7.47472e-10)
(496.327 1.40283 7.15498e-10)
(496.157 1.85671 4.51259e-10)
(496.035 1.59725 3.22786e-10)
(495.825 2.27777 8.02633e-11)
(495.684 1.77365 -2.78091e-10)
(495.443 2.68576 -4.22796e-10)
(495.274 1.96903 -2.63266e-10)
(495.018 3.00318 -1.92558e-10)
(494.787 2.31254 -1.04869e-11)
(494.57 3.10405 3.05398e-10)
(494.229 2.83559 1.70302e-10)
(494.084 3.04892 -1.37836e-10)
(493.611 3.4737 -1.51509e-10)
(493.575 2.81543 1.53649e-10)
(492.913 4.32047 2.88823e-10)
(496.708 0.0968345 -6.83946e-09)
(496.694 0.346998 2.01028e-09)
(496.671 0.431843 -6.77915e-10)
(496.621 0.723868 -3.25897e-11)
(496.572 0.823218 -1.84548e-10)
(496.495 1.07437 -5.98894e-10)
(496.412 1.24094 -3.36803e-10)
(496.316 1.39208 3.65115e-10)
(496.192 1.68392 7.54282e-10)
(496.084 1.67372 7.10787e-10)
(495.916 2.14916 4.48414e-10)
(495.795 1.92142 3.3369e-10)
(495.587 2.62703 9.59333e-11)
(495.448 2.14766 -2.76193e-10)
(495.208 3.0941 -4.18388e-10)
(495.043 2.38634 -2.59955e-10)
(494.784 3.48279 -2.02032e-10)
(494.565 2.75724 -1.61565e-11)
(494.337 3.65145 2.99871e-10)
(494.01 3.32053 1.67817e-10)
(493.859 3.64401 -1.39261e-10)
(493.393 4.00124 -1.51565e-10)
(493.353 3.47208 1.56034e-10)
(492.692 4.88268 2.93968e-10)
(496.41 0.114846 -6.85649e-09)
(496.396 0.392101 2.02094e-09)
(496.374 0.501207 -6.57878e-10)
(496.324 0.825019 -2.92575e-11)
(496.276 0.947434 -1.9755e-10)
(496.199 1.23187 -5.96023e-10)
(496.117 1.42013 -3.20088e-10)
(496.023 1.60549 3.64222e-10)
(495.899 1.91814 7.36428e-10)
(495.793 1.942 7.08387e-10)
(495.626 2.4387 4.59227e-10)
(495.507 2.2427 3.27912e-10)
(495.301 2.97269 7.02e-11)
(495.163 2.5187 -2.84938e-10)
(494.924 3.49794 -4.11382e-10)
(494.763 2.80115 -2.68015e-10)
(494.503 3.95501 -1.98408e-10)
(494.292 3.19955 3.77594e-13)
(494.058 4.19413 3.03704e-10)
(493.742 3.80098 1.53096e-10)
(493.585 4.23733 -1.39469e-10)
(493.127 4.524 -1.35415e-10)
(493.084 4.12336 1.53613e-10)
(492.431 5.43761 2.70882e-10)
(496.065 0.132677 -6.87003e-09)
(496.051 0.436648 2.00782e-09)
(496.029 0.569787 -6.79895e-10)
(495.979 0.924943 -4.16032e-11)
(495.931 1.07019 -1.97855e-10)
(495.856 1.38743 -6.04428e-10)
(495.775 1.59715 -3.35194e-10)
(495.681 1.81624 3.61479e-10)
(495.559 2.14942 7.4343e-10)
(495.454 2.20699 7.05461e-10)
(495.289 2.72455 4.47364e-10)
(495.171 2.56021 3.26266e-10)
(494.967 3.31389 7.83432e-11)
(494.832 2.88574 -2.83796e-10)
(494.594 3.89635 -4.18153e-10)
(494.437 3.21214 -2.64913e-10)
(494.176 4.41877 -2.02692e-10)
(493.973 3.63891 -1.06508e-11)
(493.734 4.72999 3.0025e-10)
(493.43 4.27476 1.59932e-10)
(493.267 4.8281 -1.41482e-10)
(492.818 5.04201 -1.46453e-10)
(492.771 4.7702 1.55492e-10)
(492.127 5.9859 2.87373e-10)
(495.671 0.150324 -6.85582e-09)
(495.657 0.480649 2.03731e-09)
(495.635 0.637579 -6.61521e-10)
(495.586 1.02366 -1.86056e-11)
(495.539 1.19149 -1.79529e-10)
(495.463 1.5411 -5.87494e-10)
(495.383 1.77198 -3.18e-10)
(495.291 2.02437 3.79346e-10)
(495.17 2.37776 7.62341e-10)
(495.066 2.46866 7.22375e-10)
(494.903 3.00663 4.65727e-10)
(494.787 2.87382 3.41927e-10)
(494.585 3.65049 9.66541e-11)
(494.452 3.24854 -2.71301e-10)
(494.216 4.28922 -4.04569e-10)
(494.062 3.61898 -2.54182e-10)
(493.802 4.8744 -1.88853e-10)
(493.607 4.0745 3.05653e-13)
(493.364 5.25839 3.14129e-10)
(493.071 4.74215 1.71466e-10)
(492.902 5.41434 -1.29407e-10)
(492.464 5.5535 -1.34252e-10)
(492.413 5.41068 1.65095e-10)
(491.778 6.52588 2.96691e-10)
(495.228 0.167759 -6.87875e-09)
(495.214 0.524048 2.02688e-09)
(495.193 0.704485 -6.71641e-10)
(495.144 1.12105 -2.62415e-11)
(495.097 1.31117 -1.866e-10)
(495.023 1.69269 -5.95657e-10)
(494.944 1.94443 -3.22827e-10)
(494.852 2.22967 3.78183e-10)
(494.734 2.60288 7.61175e-10)
(494.631 2.72672 7.2093e-10)
(494.47 3.2846 4.66039e-10)
(494.355 3.18312 3.44273e-10)
(494.155 3.98204 9.90186e-11)
(494.025 3.60651 -2.69792e-10)
(493.791 4.67606 -4.00012e-10)
(493.641 4.02096 -2.48161e-10)
(493.382 5.32177 -1.81341e-10)
(493.194 4.50577 6.53958e-12)
(492.947 5.77844 3.24582e-10)
(492.666 5.20349 1.82164e-10)
(492.491 5.99365 -1.41162e-10)
(492.065 6.05665 -1.68099e-10)
(492.01 6.04513 1.36058e-10)
(491.386 7.05712 2.65753e-10)
(494.737 0.184961 -6.88948e-09)
(494.723 0.566801 2.03068e-09)
(494.702 0.770429 -6.75389e-10)
(494.653 1.21703 -3.18228e-11)
(494.608 1.42912 -1.92021e-10)
(494.534 1.8421 -6.01856e-10)
(494.456 2.11435 -3.30626e-10)
(494.366 2.432 3.6895e-10)
(494.249 2.82463 7.51938e-10)
(494.147 2.981 7.11797e-10)
(493.988 3.55826 4.55558e-10)
(493.876 3.48783 3.34874e-10)
(493.678 4.30825 8.77409e-11)
(493.551 3.95926 -2.79759e-10)
(493.318 5.0565 -4.14756e-10)
(493.173 4.41747 -2.61844e-10)
(492.914 5.76092 -1.98416e-10)
(492.733 4.93238 -6.78165e-12)
(492.483 6.28954 3.06133e-10)
(492.214 5.6579 1.63639e-10)
(492.034 6.56488 -1.36315e-10)
(491.621 6.5506 -1.38736e-10)
(491.562 6.67224 1.62233e-10)
(490.949 7.57898 2.92464e-10)
(494.197 0.201901 -6.90103e-09)
(494.183 0.60885 2.03144e-09)
(494.162 0.835308 -6.82116e-10)
(494.114 1.31146 -3.78836e-11)
(494.07 1.54516 -2.00706e-10)
(493.997 1.98915 -6.14475e-10)
(493.92 2.28155 -3.44836e-10)
(493.831 2.63114 3.53154e-10)
(493.715 3.04278 7.35949e-10)
(493.616 3.23127 6.93557e-10)
(493.458 3.82736 4.29367e-10)
(493.348 3.78768 3.08586e-10)
(493.152 4.62881 5.44372e-11)
(493.029 4.30634 -2.85636e-10)
(492.798 5.43008 -3.91042e-10)
(492.657 4.80784 -2.44476e-10)
(492.399 6.19173 -1.80223e-10)
(492.225 5.35395 5.66189e-12)
(491.973 6.791 3.18699e-10)
(491.715 6.1045 1.73897e-10)
(491.532 7.12741 -1.28266e-10)
(491.131 7.03467 -1.33497e-10)
(491.068 7.29061 1.67805e-10)
(490.467 8.09093 2.95881e-10)
(493.608 0.218555 -6.90646e-09)
(493.594 0.650141 2.05708e-09)
(493.574 0.899032 -6.8388e-10)
(493.527 1.40422 -5.73174e-11)
(493.483 1.65915 -2.04109e-10)
(493.411 2.13364 -6.05986e-10)
(493.336 2.44579 -3.23507e-10)
(493.247 2.82688 3.91468e-10)
(493.134 3.25707 7.56324e-10)
(493.036 3.47727 6.94596e-10)
(492.881 4.09163 4.42508e-10)
(492.773 4.08239 3.3187e-10)
(492.579 4.94342 9.63373e-11)
(492.459 4.64742 -2.6681e-10)
(492.23 5.79645 -4.244e-10)
(492.094 5.19154 -2.85376e-10)
(491.838 6.61379 -2.16521e-10)
(491.67 5.76988 -1.28832e-11)
(491.416 7.28237 3.12997e-10)
(491.17 6.54285 1.79515e-10)
(490.982 7.68056 -1.40738e-10)
(490.594 7.50782 -1.62274e-10)
(490.53 7.89892 1.51238e-10)
(489.941 8.59246 2.93421e-10)
(492.97 0.2349 -6.9342e-09)
(492.956 0.690624 2.01996e-09)
(492.936 0.961512 -6.76149e-10)
(492.89 1.49519 -8.40951e-13)
(492.847 1.7709 -1.78865e-10)
(492.776 2.27537 -6.03642e-10)
(492.702 2.60683 -3.43343e-10)
(492.615 3.01893 3.46619e-10)
(492.503 3.46721 7.54719e-10)
(492.407 3.71869 7.37317e-10)
(492.255 4.35076 4.63455e-10)
(492.149 4.37162 3.25948e-10)
(491.958 5.2518 6.15268e-11)
(491.841 4.98213 -2.88808e-10)
(491.615 6.15529 -4.00529e-10)
(491.483 5.56812 -2.56218e-10)
(491.229 7.02665 -2.06188e-10)
(491.068 6.17946 -2.41907e-11)
(490.813 7.76303 2.72393e-10)
(490.579 6.97266 1.50329e-10)
(490.387 8.22392 -1.27902e-10)
(490.012 7.96919 -1.37942e-10)
(489.945 8.49593 1.517e-10)
(489.37 9.08302 2.68426e-10)
(492.283 0.250915 -6.93272e-09)
(492.269 0.730254 2.07279e-09)
(492.25 1.02267 -6.84474e-10)
(492.204 1.58427 -6.07385e-11)
(492.162 1.88027 -2.06762e-10)
(492.092 2.41415 -6.04775e-10)
(492.02 2.76442 -3.15196e-10)
(491.934 3.207 4.01103e-10)
(491.825 3.67287 7.60093e-10)
(491.731 3.95516 6.97276e-10)
(491.58 4.60438 4.49413e-10)
(491.477 4.65501 3.3959e-10)
(491.289 5.55359 1.05543e-10)
(491.175 5.31012 -2.92743e-10)
(490.952 6.50626 -4.57267e-10)
(490.825 5.93713 -2.81563e-10)
(490.573 7.42996 -2.06427e-10)
(490.419 6.58186 8.21742e-13)
(490.163 8.23221 3.28464e-10)
(489.941 7.39365 1.56754e-10)
(489.745 8.75684 -1.67013e-10)
(489.384 8.41848 -1.51083e-10)
(489.314 9.08105 1.65396e-10)
(488.753 9.56191 3.06325e-10)
(491.546 0.266578 -6.9619e-09)
(491.533 0.768985 2.03952e-09)
(491.514 1.08242 -7.04096e-10)
(491.468 1.67132 -6.47703e-11)
(491.427 1.98709 -1.96617e-10)
(491.359 2.54977 -5.78952e-10)
(491.288 2.91831 -3.1144e-10)
(491.204 3.39079 3.83872e-10)
(491.097 3.87369 7.58309e-10)
(491.005 4.18631 7.09493e-10)
(490.857 4.85208 4.38382e-10)
(490.757 4.93212 3.07905e-10)
(490.572 5.84837 8.57033e-11)
(490.461 5.63097 -2.62584e-10)
(490.241 6.84902 -4.06981e-10)
(490.119 6.29819 -2.58174e-10)
(489.869 7.82346 -2.02717e-10)
(489.722 6.97625 -1.54629e-11)
(489.467 8.68909 2.86426e-10)
(489.256 7.80548 1.33515e-10)
(489.057 9.27779 -1.78779e-10)
(488.71 8.85635 -1.47785e-10)
(488.636 9.65472 1.83659e-10)
(488.09 10.0279 3.03452e-10)
(490.76 0.281863 -6.96947e-09)
(490.747 0.806764 2.06807e-09)
(490.728 1.14068 -6.71795e-10)
(490.683 1.75624 -1.01636e-11)
(490.643 2.0912 -1.73797e-10)
(490.576 2.68205 -5.8421e-10)
(490.507 3.06826 -3.03631e-10)
(490.425 3.57002 4.09347e-10)
(490.32 4.06933 8.00431e-10)
(490.231 4.41173 7.22436e-10)
(490.086 5.09341 4.22643e-10)
(489.989 5.20246 3.04424e-10)
(489.806 6.13566 5.24748e-11)
(489.7 5.94416 -3.14867e-10)
(489.483 7.18313 -4.49493e-10)
(489.365 6.65087 -2.83415e-10)
(489.118 8.20689 -2.1969e-10)
(488.978 7.36188 -1.87668e-11)
(488.724 9.13302 2.99735e-10)
(488.524 8.20787 1.61839e-10)
(488.322 9.78636 -1.35405e-10)
(487.99 9.28237 -1.33404e-10)
(487.911 10.2161 1.72913e-10)
(487.382 10.4804 3.07902e-10)
(489.924 0.296743 -6.99242e-09)
(489.911 0.843526 2.05906e-09)
(489.892 1.19734 -6.93973e-10)
(489.848 1.83889 -3.65806e-11)
(489.81 2.19243 -2.07048e-10)
(489.744 2.81076 -6.28495e-10)
(489.677 3.21401 -3.49528e-10)
(489.597 3.7444 3.60675e-10)
(489.494 4.25946 7.43613e-10)
(489.407 4.63103 6.99228e-10)
(489.265 5.32794 4.35985e-10)
(489.171 5.46554 3.08768e-10)
(488.992 6.41494 4.78746e-11)
(488.89 6.24914 -3.23656e-10)
(488.676 7.50806 -4.68007e-10)
(488.563 6.99462 -3.06353e-10)
(488.32 8.57981 -2.06999e-10)
(488.186 7.73823 2.22834e-11)
(487.934 9.56353 3.39885e-10)
(487.745 8.60039 1.88077e-10)
(487.54 10.2821 -1.14784e-10)
(487.224 9.69623 -1.22117e-10)
(487.141 10.7646 1.81518e-10)
(486.628 10.9189 3.12561e-10)
(489.037 0.311183 -7.02565e-09)
(489.024 0.879194 2.07495e-09)
(489.007 1.25228 -6.66537e-10)
(488.964 1.91909 -3.18269e-11)
(488.926 2.29058 -1.81741e-10)
(488.861 2.93568 -5.80294e-10)
(488.796 3.35529 -3.27877e-10)
(488.718 3.91364 3.57959e-10)
(488.618 4.44374 7.63391e-10)
(488.534 4.84387 7.39402e-10)
(488.395 5.55526 4.50082e-10)
(488.305 5.72089 3.38598e-10)
(488.13 6.6857 9.75211e-11)
(488.031 6.54533 -3.04288e-10)
(487.821 7.82325 -4.23418e-10)
(487.714 7.3288 -2.46821e-10)
(487.474 8.94168 -2.11938e-10)
(487.347 8.10475 -3.99683e-11)
(487.096 9.98024 2.90579e-10)
(486.919 8.98263 1.61016e-10)
(486.712 10.7644 -1.68352e-10)
(486.411 10.0976 -1.50142e-10)
(486.323 11.2996 1.69528e-10)
(485.827 11.3431 2.764e-10)
(488.1 0.325144 -7.02386e-09)
(488.088 0.913681 2.09153e-09)
(488.071 1.30537 -6.68761e-10)
(488.028 1.99667 2.50741e-12)
(487.992 2.38541 -1.6419e-10)
(487.929 3.05656 -6.1948e-10)
(487.866 3.49183 -3.73905e-10)
(487.79 4.07743 3.50447e-10)
(487.693 4.62185 7.47049e-10)
(487.611 5.04987 7.09466e-10)
(487.476 5.77498 4.50759e-10)
(487.389 5.96809 3.3458e-10)
(487.218 6.94746 8.79217e-11)
(487.124 6.83217 -2.79668e-10)
(486.918 8.1281 -4.05493e-10)
(486.816 7.65274 -2.42883e-10)
(486.58 9.2919 -1.73874e-10)
(486.46 8.46073 -1.525e-11)
(486.212 10.3828 2.6279e-10)
(486.046 9.35423 1.28582e-10)
(485.836 11.2326 -1.68906e-10)
(485.551 10.4862 -1.62814e-10)
(485.459 11.8204 1.43508e-10)
(484.981 11.7525 2.85699e-10)
(487.113 0.338586 -7.06256e-09)
(487.1 0.946895 2.04939e-09)
(487.084 1.35644 -6.94247e-10)
(487.043 2.07144 2.72184e-12)
(487.008 2.47669 -1.88218e-10)
(486.947 3.17311 -6.21064e-10)
(486.886 3.62333 -3.50409e-10)
(486.812 4.23545 3.95597e-10)
(486.717 4.79344 8.12233e-10)
(486.639 5.24871 7.48857e-10)
(486.507 5.98672 4.66141e-10)
(486.424 6.20672 3.21269e-10)
(486.257 7.19977 4.33699e-11)
(486.168 7.10915 -3.03225e-10)
(485.966 8.42206 -4.1151e-10)
(485.87 7.96579 -2.65004e-10)
(485.638 9.62983 -2.1904e-10)
(485.525 8.80535 -3.66008e-11)
(485.28 10.7708 3.08373e-10)
(485.125 9.71484 1.84075e-10)
(484.914 11.686 -1.35437e-10)
(484.644 10.8616 -1.54391e-10)
(484.549 12.3267 1.3014e-10)
(484.088 12.1466 2.90928e-10)
(486.075 0.351471 -7.08501e-09)
(486.062 0.97875 2.05602e-09)
(486.047 1.40538 -6.96695e-10)
(486.006 2.14319 8.22004e-12)
(485.973 2.56418 -1.79029e-10)
(485.913 3.28507 -6.17332e-10)
(485.855 3.74946 -3.50683e-10)
(485.784 4.38738 3.47326e-10)
(485.692 4.95817 7.64667e-10)
(485.617 5.44 7.5557e-10)
(485.489 6.19011 4.77095e-10)
(485.41 6.43641 3.31342e-10)
(485.247 7.44223 5.33442e-11)
(485.162 7.37583 -2.95096e-10)
(484.965 8.70464 -4.02205e-10)
(484.875 8.26734 -2.60683e-10)
(484.647 9.95484 -2.14181e-10)
(484.542 9.13777 -2.74786e-11)
(484.3 11.1439 3.19523e-10)
(484.156 10.064 1.93238e-10)
(483.944 12.1234 -1.25761e-10)
(483.691 11.2231 -1.45665e-10)
(483.591 12.8178 1.45391e-10)
(483.149 12.5251 2.64248e-10)
(484.985 0.363769 -7.11412e-09)
(484.973 1.00917 2.10365e-09)
(484.958 1.45204 -6.73835e-10)
(484.919 2.21177 -3.54005e-11)
(484.887 2.64767 -2.35478e-10)
(484.83 3.39217 -6.35104e-10)
(484.774 3.86993 -3.25275e-10)
(484.705 4.53288 3.64882e-10)
(484.617 5.11566 7.72244e-10)
(484.545 5.62339 7.47325e-10)
(484.42 6.38476 4.51717e-10)
(484.345 6.65677 3.46786e-10)
(484.187 7.67444 1.11417e-10)
(484.107 7.63181 -3.01152e-10)
(483.915 8.97543 -4.72676e-10)
(483.831 8.55692 -2.84794e-10)
(483.608 10.2664 -1.98377e-10)
(483.51 9.45727 -2.26294e-11)
(483.273 11.5017 3.15025e-10)
(483.139 10.4012 1.79717e-10)
(482.926 12.5439 -1.52544e-10)
(482.689 11.5701 -1.31896e-10)
(482.587 13.2927 1.96889e-10)
(482.164 12.8873 2.98288e-10)
(483.845 0.375456 -7.10542e-09)
(483.833 1.03812 2.13469e-09)
(483.819 1.49636 -6.60779e-10)
(483.781 2.27704 -2.41639e-11)
(483.751 2.72698 -2.30983e-10)
(483.695 3.4942 -6.37158e-10)
(483.641 3.98446 -3.30834e-10)
(483.576 4.67162 4.10054e-10)
(483.491 5.26556 8.12569e-10)
(483.422 5.79847 7.28395e-10)
(483.302 6.57027 4.25349e-10)
(483.231 6.8674 3.16337e-10)
(483.077 7.89601 7.29472e-11)
(483.002 7.87669 -2.92367e-10)
(482.815 9.23402 -4.13203e-10)
(482.737 8.83408 -2.35765e-10)
(482.519 10.5641 -2.09565e-10)
(482.43 9.76335 -4.17282e-11)
(482.196 11.8435 2.88247e-10)
(482.073 10.7257 1.51407e-10)
(481.861 12.9469 -1.36763e-10)
(481.64 11.9015 -1.22384e-10)
(481.535 13.7503 2.03009e-10)
(481.132 13.2329 2.99092e-10)
(482.653 0.386519 -7.12332e-09)
(482.642 1.06554 2.11147e-09)
(482.628 1.53827 -7.22595e-10)
(482.591 2.33893 -1.23405e-11)
(482.563 2.80198 -2.04785e-10)
(482.509 3.59096 -6.44804e-10)
(482.458 4.09281 -3.14678e-10)
(482.396 4.80332 3.89988e-10)
(482.314 5.40752 7.54357e-10)
(482.249 5.96488 7.46823e-10)
(482.133 6.74622 4.65365e-10)
(482.067 7.06788 3.16875e-10)
(481.917 8.1065 9.52721e-11)
(481.848 8.11004 -3.0401e-10)
(481.665 9.48001 -4.6588e-10)
(481.594 9.09844 -2.66598e-10)
(481.381 10.8475 -2.21072e-10)
(481.3 10.0555 -3.15823e-11)
(481.071 12.169 3.18005e-10)
(480.958 11.0369 1.46679e-10)
(480.747 13.3318 -1.77074e-10)
(480.543 12.2167 -1.42337e-10)
(480.435 14.1892 1.4376e-10)
(480.052 13.5611 2.64666e-10)
(481.411 0.396946 -7.20589e-09)
(481.399 1.09143 2.09384e-09)
(481.387 1.57772 -7.25371e-10)
(481.351 2.39734 -4.19599e-11)
(481.324 2.87257 -2.05274e-10)
(481.273 3.68233 -6.23599e-10)
(481.224 4.19481 -3.26211e-10)
(481.164 4.92775 4.095e-10)
(481.086 5.54126 8.02766e-10)
(481.025 6.12228 7.60216e-10)
(480.913 6.91221 5.01022e-10)
(480.852 7.25778 3.22989e-10)
(480.707 8.30547 6.59705e-11)
(480.644 8.33145 -3.10871e-10)
(480.466 9.71299 -4.44018e-10)
(480.402 9.34959 -2.72147e-10)
(480.194 11.1163 -2.03811e-10)
(480.121 10.3333 4.74706e-12)
(479.896 12.4778 3.3095e-10)
(479.794 11.3339 1.77272e-10)
(479.585 13.6977 -1.77829e-10)
(479.397 12.5153 -1.67946e-10)
(479.287 14.6091 1.4472e-10)
(478.923 13.8721 2.81138e-10)
(480.117 0.406727 -7.18953e-09)
(480.105 1.11574 2.15422e-09)
(480.094 1.61467 -6.71431e-10)
(480.059 2.45224 -2.95061e-11)
(480.034 2.93868 -2.40245e-10)
(479.985 3.76821 -6.55616e-10)
(479.939 4.29032 -3.43816e-10)
(479.882 5.04474 4.05705e-10)
(479.807 5.66655 8.0565e-10)
(479.751 6.27037 7.73993e-10)
(479.643 7.06791 4.66723e-10)
(479.586 7.43671 3.00802e-10)
(479.446 8.49248 5.37371e-11)
(479.389 8.54044 -3.1781e-10)
(479.217 9.9325 -4.39557e-10)
(479.159 9.58709 -2.5627e-10)
(478.957 11.3701 -1.74092e-10)
(478.892 10.5964 4.2232e-11)
(478.672 12.7697 3.20357e-10)
(478.581 11.6159 1.25256e-10)
(478.374 14.0436 -1.66419e-10)
(478.203 12.7975 -1.47177e-10)
(478.09 15.0109 1.80619e-10)
(477.747 14.166 3.29954e-10)
(478.772 0.415849 -7.20202e-09)
(478.76 1.13846 2.12962e-09)
(478.749 1.64909 -7.49966e-10)
(478.716 2.50356 -3.58864e-11)
(478.693 3.00023 -1.7038e-10)
(478.645 3.84851 -6.20584e-10)
(478.603 4.37925 -3.56126e-10)
(478.549 5.15417 4.08003e-10)
(478.478 5.78322 7.72678e-10)
(478.425 6.40897 6.98874e-10)
(478.322 7.21304 4.67744e-10)
(478.269 7.60434 3.7133e-10)
(478.135 8.66713 7.81181e-11)
(478.083 8.73658 -3.30668e-10)
(477.917 10.1381 -4.34901e-10)
(477.866 9.81044 -2.34245e-10)
(477.67 11.6085 -1.99066e-10)
(477.613 10.8444 -2.28959e-11)
(477.399 13.0444 3.34372e-10)
(477.318 11.8821 1.52212e-10)
(477.114 14.3685 -1.85776e-10)
(476.961 13.0632 -1.52756e-10)
(476.845 15.3933 1.93425e-10)
(476.522 14.4416 3.03771e-10)
(477.375 0.424296 -7.28846e-09)
(477.364 1.15955 2.11066e-09)
(477.354 1.68092 -7.4075e-10)
(477.322 2.55123 -4.87386e-11)
(477.3 3.05715 -2.19054e-10)
(477.255 3.92315 -6.4782e-10)
(477.215 4.4615 -3.44519e-10)
(477.164 5.25595 3.97887e-10)
(477.096 5.89119 7.88098e-10)
(477.047 6.53794 7.3751e-10)
(476.949 7.34743 4.74981e-10)
(476.902 7.76044 3.54189e-10)
(476.773 8.8291 9.06448e-11)
(476.727 8.91947 -2.97099e-10)
(476.567 10.3293 -4.29945e-10)
(476.523 10.0192 -2.57377e-10)
(476.333 11.831 -1.92799e-10)
(476.284 11.0766 1.1102e-11)
(476.075 13.3014 3.42319e-10)
(476.005 12.1322 1.85552e-10)
(475.805 14.6717 -1.16715e-10)
(475.668 13.3117 -1.75008e-10)
(475.55 15.7556 1.32178e-10)
(475.249 14.6987 2.76832e-10)
(475.926 0.432052 -7.2402e-09)
(475.915 1.17897 2.18239e-09)
(475.906 1.7101 -7.01402e-10)
(475.875 2.59518 -8.95328e-12)
(475.856 3.10935 -1.89005e-10)
(475.813 3.99204 -6.24116e-10)
(475.775 4.53699 -3.26266e-10)
(475.728 5.34999 4.12976e-10)
(475.664 5.99035 7.97529e-10)
(475.619 6.65721 7.3979e-10)
(475.525 7.47096 4.69717e-10)
(475.483 7.90489 3.36553e-10)
(475.359 8.97818 6.49245e-11)
(475.32 9.08885 -3.2258e-10)
(475.165 10.5056 -4.7018e-10)
(475.129 10.2128 -3.04675e-10)
(474.945 12.037 -2.45291e-10)
(474.905 11.2927 2.30034e-11)
(474.702 13.5404 3.44216e-10)
(474.642 12.3658 1.74822e-10)
(474.446 14.953 -1.29918e-10)
(474.325 13.5429 -1.36129e-10)
(474.205 16.0964 1.71087e-10)
(473.926 14.9358 3.06217e-10)
(474.426 0.439103 -7.28507e-09)
(474.416 1.19669 2.16283e-09)
(474.408 1.73658 -7.41709e-10)
(474.378 2.63534 -9.16093e-12)
(474.36 3.15675 -2.02107e-10)
(474.319 4.0551 -6.52818e-10)
(474.285 4.60562 -3.13997e-10)
(474.24 5.4362 4.09031e-10)
(474.18 6.08063 7.81402e-10)
(474.139 6.76672 7.67735e-10)
(474.05 7.58359 4.77314e-10)
(474.013 8.03765 3.31e-10)
(473.894 9.11429 1.03766e-10)
(473.861 9.2446 -3.05647e-10)
(473.712 10.667 -4.65399e-10)
(473.683 10.3909 -2.57248e-10)
(473.505 12.2261 -2.12721e-10)
(473.474 11.4919 -2.34584e-11)
(473.278 13.7609 3.45854e-10)
(473.229 12.5822 1.63587e-10)
(473.037 15.2126 -1.70346e-10)
(472.932 13.7569 -1.24764e-10)
(472.81 16.4148 1.72357e-10)
(472.554 15.1526 2.84329e-10)
(472.875 0.445439 -7.36462e-09)
(472.864 1.21269 2.17135e-09)
(472.857 1.76034 -7.06776e-10)
(472.828 2.67167 -4.99163e-11)
(472.813 3.1993 -1.96485e-10)
(472.774 4.11224 -6.07868e-10)
(472.742 4.66731 -3.53135e-10)
(472.701 5.51451 4.18062e-10)
(472.645 6.16194 8.30273e-10)
(472.608 6.86639 7.31265e-10)
(472.523 7.68525 4.8496e-10)
(472.491 8.15868 3.8271e-10)
(472.377 9.23738 7.05389e-11)
(472.35 9.3867 -3.00925e-10)
(472.207 10.8132 -4.13355e-10)
(472.186 10.5535 -2.88209e-10)
(472.015 12.398 -2.06526e-10)
(471.993 11.6738 2.47438e-11)
(471.802 13.9622 3.13517e-10)
(471.764 12.7804 1.6977e-10)
(471.578 15.4507 -1.16946e-10)
(471.488 13.9541 -1.54146e-10)
(471.365 16.71 1.79975e-10)
(471.132 15.3489 3.3245e-10)
(471.271 0.451062 -7.35625e-09)
(471.261 1.22697 2.21753e-09)
(471.254 1.78137 -6.77565e-10)
(471.227 2.70415 -1.48155e-11)
(471.213 3.23698 -2.35958e-10)
(471.177 4.16343 -6.51223e-10)
(471.148 4.72201 -3.2082e-10)
(471.11 5.58483 4.4742e-10)
(471.057 6.23421 8.60238e-10)
(471.024 6.95615 7.66901e-10)
(470.944 7.77587 4.45841e-10)
(470.917 8.26795 3.3838e-10)
(470.809 9.34744 9.73856e-11)
(470.788 9.51516 -2.76943e-10)
(470.651 10.9442 -3.94413e-10)
(470.637 10.7004 -2.70161e-10)
(470.472 12.5524 -2.55448e-10)
(470.459 11.8381 -1.75818e-11)
(470.275 14.1439 3.28912e-10)
(470.249 12.9598 1.82298e-10)
(470.067 15.6668 -9.68192e-11)
(469.992 14.1346 -1.42889e-10)
(469.869 16.9816 1.26219e-10)
(469.658 15.5239 2.85748e-10)
(469.616 0.455977 -7.44562e-09)
(469.606 1.23956 2.15188e-09)
(469.6 1.7997 -7.6527e-10)
(469.574 2.73282 -6.40321e-11)
(469.562 3.26981 -2.36891e-10)
(469.528 4.20869 -6.74488e-10)
(469.502 4.76971 -3.67919e-10)
(469.467 5.64714 3.81592e-10)
(469.418 6.29737 7.76251e-10)
(469.389 7.03592 7.22322e-10)
(469.314 7.85535 4.46969e-10)
(469.292 8.36537 3.19396e-10)
(469.189 9.44438 4.93796e-11)
(469.174 9.62998 -3.43199e-10)
(469.043 11.0602 -4.8587e-10)
(469.037 10.8318 -3.08787e-10)
(468.878 12.6896 -2.4912e-10)
(468.874 11.9849 -3.58666e-11)
(468.696 14.3058 2.8857e-10)
(468.681 13.1198 1.27922e-10)
(468.505 15.8602 -1.88489e-10)
(468.445 14.2978 -1.79553e-10)
(468.321 17.2289 1.34012e-10)
(468.134 15.6775 2.74795e-10)
(467.909 0.460197 -7.41068e-09)
(467.899 1.25046 2.19985e-09)
(467.894 1.81538 -7.55618e-10)
(467.869 2.75771 4.35168e-13)
(467.859 3.29783 -1.97639e-10)
(467.827 4.24806 -6.55909e-10)
(467.804 4.81046 -3.0094e-10)
(467.771 5.70147 4.32632e-10)
(467.727 6.35143 8.06854e-10)
(467.702 7.10566 7.99868e-10)
(467.631 7.92362 5.03428e-10)
(467.614 8.45084 3.47024e-10)
(467.517 9.52809 1.25655e-10)
(467.509 9.73106 -2.92323e-10)
(467.383 11.1609 -4.52492e-10)
(467.384 10.9478 -2.96505e-10)
(467.232 12.8095 -2.56861e-10)
(467.237 12.1142 2.26475e-12)
(467.065 14.448 3.11803e-10)
(467.061 13.2602 1.28347e-10)
(466.891 16.0308 -1.39403e-10)
(466.846 14.4425 -1.5554e-10)
(466.723 17.4509 1.34901e-10)
(466.559 15.8096 3.1912e-10)
(466.15 0.463733 -7.43485e-09)
(466.14 1.25972 2.21727e-09)
(466.136 1.82843 -7.52543e-10)
(466.112 2.77889 7.93979e-12)
(466.104 3.32114 -1.91667e-10)
(466.074 4.28162 -6.51463e-10)
(466.053 4.84433 -2.94529e-10)
(466.024 5.74788 4.4232e-10)
(465.983 6.39642 8.17022e-10)
(465.962 7.16539 7.40531e-10)
(465.896 7.98064 4.42073e-10)
(465.885 8.52429 3.61524e-10)
(465.793 9.59845 6.94258e-11)
(465.791 9.81827 -3.4707e-10)
(465.671 11.2463 -4.40166e-10)
(465.68 11.0481 -2.84174e-10)
(465.533 12.9121 -2.43566e-10)
(465.548 12.2263 1.55289e-11)
(465.382 14.5709 3.2826e-10)
(465.389 13.3814 1.41299e-10)
(465.225 16.1788 -1.2598e-10)
(465.193 14.5673 -1.43869e-10)
(465.074 17.6459 1.56945e-10)
(464.932 15.9201 3.39225e-10)
(464.338 0.466594 -7.48531e-09)
(464.329 1.26735 2.27381e-09)
(464.326 1.83892 -7.28764e-10)
(464.303 2.79641 -5.06982e-11)
(464.297 3.33979 -1.92635e-10)
(464.269 4.30946 -5.96293e-10)
(464.251 4.87141 -3.22562e-10)
(464.225 5.78646 3.95307e-10)
(464.187 6.43243 8.2743e-10)
(464.171 7.21518 8.06131e-10)
(464.109 8.02645 4.92715e-10)
(464.102 8.58571 3.28114e-10)
(464.016 9.65536 9.05963e-11)
(464.02 9.89148 -2.74584e-10)
(463.907 11.3162 -4.55989e-10)
(463.923 11.1328 -3.11266e-10)
(463.783 12.9973 -2.15444e-10)
(463.806 12.3211 2.89926e-11)
(463.647 14.6745 3.30432e-10)
(463.664 13.4837 1.29048e-10)
(463.506 16.3052 -1.5612e-10)
(463.488 14.6715 -1.25497e-10)
(463.372 17.8125 1.6525e-10)
(463.253 16.009 2.71544e-10)
(462.475 0.468788 -7.54527e-09)
(462.466 1.27337 2.21315e-09)
(462.463 1.84685 -7.65964e-10)
(462.442 2.8103 -6.57549e-11)
(462.437 3.35384 -2.55528e-10)
(462.411 4.33163 -7.07994e-10)
(462.396 4.89178 -3.30242e-10)
(462.373 5.81731 4.91118e-10)
(462.339 6.45956 8.80392e-10)
(462.326 7.25512 8.16127e-10)
(462.269 8.06113 5.22645e-10)
(462.267 8.63516 3.77598e-10)
(462.187 9.69883 9.77769e-11)
(462.197 9.95062 -3.10048e-10)
(462.089 11.3703 -4.64917e-10)
(462.113 11.2014 -2.9864e-10)
(461.98 13.0647 -2.45378e-10)
(462.012 12.3983 -3.60925e-11)
(461.859 14.7585 2.80747e-10)
(461.888 13.5671 1.10078e-10)
(461.735 16.41 -1.49978e-10)
(461.731 14.7557 -9.39283e-11)
(461.618 17.9508 2.25488e-10)
(461.522 16.0754 3.48776e-10)
(460.558 0.470314 -7.60612e-09)
(460.55 1.27778 2.23094e-09)
(460.548 1.85225 -7.35237e-10)
(460.528 2.82058 -7.32127e-11)
(460.525 3.36331 -2.36174e-10)
(460.501 4.34817 -6.59019e-10)
(460.488 4.9055 -3.23934e-10)
(460.468 5.84049 4.5792e-10)
(460.438 6.4779 7.99077e-10)
(460.429 7.28533 7.62011e-10)
(460.376 8.08479 5.02748e-10)
(460.38 8.67276 3.15628e-10)
(460.304 9.72893 6.14176e-11)
(460.321 9.99576 -3.18476e-10)
(460.219 11.4087 -4.44877e-10)
(460.251 11.254 -2.52149e-10)
(460.123 13.1141 -2.3861e-10)
(460.166 12.4576 -2.76584e-12)
(460.019 14.8225 3.494e-10)
(460.059 13.6312 1.2322e-10)
(459.912 16.4931 -1.81254e-10)
(459.922 14.8203 -1.51929e-10)
(459.812 18.0615 1.89122e-10)
(459.737 16.12 3.37174e-10)
(458.589 0.471169 -7.56929e-09)
(458.581 1.28058 2.26493e-09)
(458.58 1.8551 -7.59376e-10)
(458.561 2.82724 -5.83172e-11)