/*--------------------------------*- C++ -*----------------------------------*\
  =========                 |
  \\      /  F ield         | OpenFOAM: The Open Source CFD Toolbox
   \\    /   O peration     | Website:  https://openfoam.org
    \\  /    A nd           | Version:  10
     \\/     M anipulation  |
\*---------------------------------------------------------------------------*/
FoamFile
{
    format      ascii;
    class       surfaceScalarField;
    location    "0.37";
    object      phi;
}
// * * * * * * * * * * * * * * * * * * * * * * * * * * * * * * * * * * * * * //

dimensions      [1 0 -1 0 0 0 0];

internalField   nonuniform List<scalar> 
8154
(
-5.87761e-09
-2.22629e-08
-5.70806e-08
-9.20458e-08
-1.71725e-07
-2.26069e-07
-3.70357e-07
-4.54945e-07
-6.75212e-07
-8.14902e-07
-1.10516e-06
-1.33797e-06
-1.6689e-06
-2.02841e-06
-2.362e-06
-2.86593e-06
-3.25523e-06
-3.98535e-06
-4.56718e-06
-5.50839e-06
-6.83092e-06
-7.24142e-06
-6.86032e-06
-0.000277438
-0.000832368
2.39803e-08
-0.00138746
9.6117e-08
-0.00194288
2.13107e-07
-0.00249867
3.77928e-07
-0.00305503
5.77129e-07
-0.00361202
8.23455e-07
-0.00416973
1.08808e-06
-0.00472845
1.39721e-06
-0.0052879
1.71024e-06
-0.00584878
2.05542e-06
-0.00641056
2.40203e-06
-0.00697377
2.74764e-06
-0.00753866
3.11947e-06
-0.00810413
3.43515e-06
-0.00867309
3.84944e-06
-0.00924024
4.1266e-06
-0.00981486
4.57387e-06
-0.0103833
4.92472e-06
-0.0109646
5.13823e-06
-0.0115339
5.2786e-06
-0.0121235
5.1154e-06
-0.0126947
4.03323e-06
-0.013293
2.44773e-06
-0.000277462
-0.00083244
2.62964e-08
-0.00138758
1.04677e-07
-0.00194305
2.34519e-07
-0.00249887
4.10066e-07
-0.00305528
6.35078e-07
-0.00361229
8.8955e-07
-0.00417004
1.19432e-06
-0.00472876
1.50063e-06
-0.00528825
1.86618e-06
-0.00584912
2.19005e-06
-0.00641091
2.59262e-06
-0.00697414
2.89241e-06
-0.00753898
3.29833e-06
-0.00810455
3.53855e-06
-0.00867337
3.90358e-06
-0.00924069
4.10533e-06
-0.00981521
4.39017e-06
-0.0103835
5.00246e-06
-0.0109647
4.66541e-06
-0.0115337
5.23216e-06
-0.0121223
5.32912e-06
-0.0126932
5.04178e-06
-0.0132905
4.22819e-06
-0.000277489
-0.000832519
2.1236e-08
-0.00138771
8.47977e-08
-0.00194322
1.87861e-07
-0.00249909
3.30404e-07
-0.00305553
5.01747e-07
-0.00361259
7.07306e-07
-0.00417034
9.2236e-07
-0.00472913
1.166e-06
-0.00528857
1.39333e-06
-0.00584953
1.64128e-06
-0.00641121
1.84571e-06
-0.00697454
2.04951e-06
-0.00753922
2.19687e-06
-0.00810491
2.28339e-06
-0.00867357
2.35329e-06
-0.00924097
2.20709e-06
-0.00981582
2.34375e-06
-0.0103831
1.89937e-06
-0.0109653
1.78044e-06
-0.0115338
1.39177e-06
-0.0121221
1.15329e-06
-0.0126924
7.21504e-07
-0.0132863
5.15699e-07
-0.00027751
-0.000832582
2.54696e-08
-0.00138781
1.01752e-07
-0.00194336
2.25814e-07
-0.00249927
3.97665e-07
-0.00305574
6.05452e-07
-0.00361281
8.55619e-07
-0.00417059
1.11921e-06
-0.00472935
1.42019e-06
-0.00528882
1.70179e-06
-0.00584973
2.01641e-06
-0.00641141
2.27159e-06
-0.00697469
2.54817e-06
-0.0075393
2.73329e-06
-0.00810499
2.89477e-06
-0.00867342
2.985e-06
-0.00924111
2.89851e-06
-0.00981538
2.97494e-06
-0.010383
2.28309e-06
-0.0109649
2.51618e-06
-0.0115335
1.72424e-06
-0.0121216
1.2033e-06
-0.0126922
3.80141e-07
-0.0132858
-1.70417e-07
-0.000277536
-0.000832659
3.35802e-08
-0.00138794
1.34099e-07
-0.00194354
2.98929e-07
-0.00249947
5.2627e-07
-0.00305599
8.07742e-07
-0.00361307
1.14164e-06
-0.00417089
1.51173e-06
-0.00472964
1.91883e-06
-0.00528913
2.33846e-06
-0.00584999
2.77298e-06
-0.00641169
3.19374e-06
-0.00697488
3.59584e-06
-0.00753947
3.96382e-06
-0.00810508
4.25837e-06
-0.00867333
4.52175e-06
-0.00924119
4.6161e-06
-0.00981469
4.73154e-06
-0.0103833
4.40122e-06
-0.0109641
4.36492e-06
-0.011533
3.67102e-06
-0.0121208
3.20871e-06
-0.0126916
2.26978e-06
-0.0132859
1.35065e-06
-0.000277569
-0.000832759
3.74977e-08
-0.0013881
1.49744e-07
-0.00194376
3.34086e-07
-0.00249975
5.88239e-07
-0.00305632
9.04129e-07
-0.00361344
1.27833e-06
-0.00417129
1.69601e-06
-0.00473006
2.15373e-06
-0.00528957
2.63055e-06
-0.00585041
3.12077e-06
-0.00641209
3.60212e-06
-0.00697525
4.05808e-06
-0.00753976
4.48127e-06
-0.00810534
4.821e-06
-0.00867342
5.12343e-06
-0.0092413
5.25077e-06
-0.00981436
5.37083e-06
-0.0103832
5.08364e-06
-0.0109634
4.96514e-06
-0.0115326
4.21229e-06
-0.0121199
3.67364e-06
-0.0126907
2.63796e-06
-0.0132846
1.61471e-06
-0.000277607
-0.000832871
4.13254e-08
-0.00138829
1.65035e-07
-0.00194402
3.68318e-07
-0.00250007
6.48656e-07
-0.00305669
9.97558e-07
-0.00361386
1.41121e-06
-0.00417175
1.87394e-06
-0.00473053
2.38182e-06
-0.00529006
2.91217e-06
-0.00585089
3.45902e-06
-0.00641254
3.99637e-06
-0.00697567
4.50897e-06
-0.0075401
4.98194e-06
-0.00810565
5.37e-06
-0.00867354
5.70624e-06
-0.00924142
5.86326e-06
-0.00981407
5.9989e-06
-0.0103831
5.72109e-06
-0.0109626
5.59511e-06
-0.011532
4.80685e-06
-0.0121188
4.19562e-06
-0.0126897
2.98953e-06
-0.013283
1.79741e-06
-0.000277648
-0.000832995
4.5015e-08
-0.00138849
1.79753e-07
-0.0019443
4.01231e-07
-0.00250042
7.06539e-07
-0.00305711
1.08692e-06
-0.00361432
1.5377e-06
-0.00417226
2.04312e-06
-0.00473106
2.59764e-06
-0.00529061
3.1788e-06
-0.00585143
3.77793e-06
-0.00641306
4.36932e-06
-0.00697615
4.93395e-06
-0.00754049
5.45597e-06
-0.00810599
5.88759e-06
-0.0086737
6.25662e-06
-0.00924156
6.44148e-06
-0.00981379
6.5826e-06
-0.010383
6.33137e-06
-0.0109619
6.17314e-06
-0.0115314
5.36912e-06
-0.0121176
4.82718e-06
-0.0126885
3.36087e-06
-0.0132812
2.0177e-06
-0.000277693
-0.00083313
4.86563e-08
-0.00138871
1.94267e-07
-0.0019446
4.33629e-07
-0.0025008
7.63417e-07
-0.00305756
1.17444e-06
-0.00361483
1.66125e-06
-0.00417282
2.20765e-06
-0.00473164
2.80691e-06
-0.0052912
3.43622e-06
-0.00585202
4.08528e-06
-0.00641362
4.72773e-06
-0.00697667
5.34256e-06
-0.00754092
5.91156e-06
-0.00810636
6.38573e-06
-0.00867388
6.78624e-06
-0.0092417
6.99621e-06
-0.00981353
7.13751e-06
-0.0103829
6.90523e-06
-0.010961
6.72283e-06
-0.0115308
5.87743e-06
-0.0121162
4.89821e-06
-0.0126871
3.68311e-06
-0.0132792
2.2101e-06
-0.000277742
-0.000833276
5.22487e-08
-0.00138895
2.08582e-07
-0.00194493
4.65558e-07
-0.00250121
8.19414e-07
-0.00305805
1.26045e-06
-0.00361537
1.7824e-06
-0.00417341
2.36844e-06
-0.00473227
3.01065e-06
-0.00529185
3.68571e-06
-0.00585266
4.38192e-06
-0.00641424
5.07228e-06
-0.00697724
5.73434e-06
-0.00754139
6.34783e-06
-0.00810676
6.86287e-06
-0.00867409
7.29438e-06
-0.00924184
7.52775e-06
-0.0098133
7.66804e-06
-0.0103827
7.45032e-06
-0.0109602
7.24866e-06
-0.0115301
6.39967e-06
-0.0121147
5.58372e-06
-0.0126856
4.04078e-06
-0.013277
2.40737e-06
-0.000277794
-0.000833432
5.5808e-08
-0.00138921
2.22767e-07
-0.00194529
4.97206e-07
-0.00250165
8.74931e-07
-0.00305857
1.3457e-06
-0.00361596
1.90238e-06
-0.00417406
2.52738e-06
-0.00473295
3.21157e-06
-0.00529255
3.93074e-06
-0.00585335
4.67199e-06
-0.0064149
5.40738e-06
-0.00697785
6.11363e-06
-0.00754191
6.76846e-06
-0.00810719
7.32205e-06
-0.00867432
7.78375e-06
-0.00924198
8.04181e-06
-0.00981308
8.18854e-06
-0.0103825
7.9728e-06
-0.0109594
7.74283e-06
-0.0115293
6.85729e-06
-0.0121132
6.00545e-06
-0.012684
4.35734e-06
-0.0132746
2.59161e-06
-0.00027785
-0.000833599
5.93274e-08
-0.00138948
2.368e-07
-0.00194566
5.28538e-07
-0.00250212
9.29953e-07
-0.00305912
1.43025e-06
-0.00361659
2.02148e-06
-0.00417474
2.68513e-06
-0.00473367
3.4108e-06
-0.00529329
4.17314e-06
-0.00585409
4.95795e-06
-0.0064156
5.73606e-06
-0.00697851
6.48355e-06
-0.00754246
7.17616e-06
-0.00810765
7.76474e-06
-0.00867458
8.25367e-06
-0.00924213
8.53468e-06
-0.00981287
8.68816e-06
-0.0103823
8.46995e-06
-0.0109585
8.20562e-06
-0.0115284
7.28335e-06
-0.0121115
6.37086e-06
-0.0126822
4.6531e-06
-0.013272
2.76264e-06
-0.000277909
-0.000833777
6.2807e-08
-0.00138977
2.50679e-07
-0.00194607
5.59547e-07
-0.00250262
9.8447e-07
-0.00305971
1.51413e-06
-0.00361725
2.13978e-06
-0.00417547
2.84198e-06
-0.00473443
3.60903e-06
-0.00529408
4.41422e-06
-0.00585486
5.24189e-06
-0.00641635
6.06133e-06
-0.0069792
6.84786e-06
-0.00754305
7.57509e-06
-0.00810814
8.19492e-06
-0.00867486
8.70738e-06
-0.00924228
9.00822e-06
-0.00981265
9.16614e-06
-0.010382
8.94845e-06
-0.0109576
8.64433e-06
-0.0115275
7.67609e-06
-0.0121098
6.70234e-06
-0.0126803
4.89699e-06
-0.0132692
2.91045e-06
-0.000277972
-0.000833965
6.62491e-08
-0.00139008
2.64407e-07
-0.00194649
5.90219e-07
-0.00250315
1.03841e-06
-0.00306034
1.59717e-06
-0.00361795
2.25701e-06
-0.00417623
2.99759e-06
-0.00473524
3.80594e-06
-0.0052949
4.65391e-06
-0.00585568
5.52431e-06
-0.00641714
6.38457e-06
-0.00697993
7.20895e-06
-0.00754367
7.96862e-06
-0.00810865
8.61638e-06
-0.00867516
9.14825e-06
-0.00924243
9.46481e-06
-0.00981243
9.62546e-06
-0.0103817
9.41007e-06
-0.0109566
9.06402e-06
-0.0115265
8.05075e-06
-0.012108
7.007e-06
-0.0126783
5.05635e-06
-0.0132663
3.03723e-06
-0.000278038
-0.000834163
6.96605e-08
-0.00139041
2.78003e-07
-0.00194694
6.20569e-07
-0.00250371
1.09174e-06
-0.003061
1.6792e-06
-0.00361869
2.37279e-06
-0.00417704
3.15129e-06
-0.00473608
4.0006e-06
-0.00529577
4.89119e-06
-0.00585654
5.80432e-06
-0.00641796
6.70547e-06
-0.00698069
7.56753e-06
-0.00754432
8.35888e-06
-0.00810918
9.03262e-06
-0.00867548
9.58044e-06
-0.00924259
9.90782e-06
-0.00981222
1.00672e-05
-0.0103814
9.85168e-06
-0.0109556
9.46474e-06
-0.0115255
8.41275e-06
-0.012106
7.30538e-06
-0.0126763
5.27866e-06
-0.0132633
3.17078e-06
-0.000278108
-0.000834371
7.30439e-08
-0.00139075
2.91478e-07
-0.00194741
6.50597e-07
-0.0025043
1.14439e-06
-0.00306169
1.76001e-06
-0.00361947
2.48664e-06
-0.00417789
3.30224e-06
-0.00473697
4.19173e-06
-0.00529669
5.12428e-06
-0.00585745
6.07981e-06
-0.00641883
7.02192e-06
-0.00698148
7.92201e-06
-0.007545
8.74551e-06
-0.00810973
9.44513e-06
-0.0086758
1.00077e-05
-0.00924275
1.03426e-05
-0.00981201
1.04941e-05
-0.010381
1.02657e-05
-0.0109545
9.84465e-06
-0.0115244
8.7546e-06
-0.012104
7.58582e-06
-0.0126742
5.49696e-06
-0.0132601
3.29529e-06
-0.000278181
-0.00083459
7.63893e-08
-0.00139111
3.04787e-07
-0.0019479
6.80193e-07
-0.00250491
1.19615e-06
-0.00306242
1.83921e-06
-0.00362029
2.59789e-06
-0.00417878
3.44936e-06
-0.00473791
4.37769e-06
-0.00529764
5.35091e-06
-0.00585839
6.34783e-06
-0.00641973
7.33039e-06
-0.00698231
8.26861e-06
-0.0075457
9.12509e-06
-0.0081103
9.85172e-06
-0.00867614
1.04304e-05
-0.0092429
1.0773e-05
-0.00981178
1.09155e-05
-0.0103805
1.06704e-05
-0.0109534
1.02142e-05
-0.0115232
9.08712e-06
-0.0121019
7.85579e-06
-0.012672
5.69758e-06
-0.0132568
3.41218e-06
-0.000278258
-0.000834818
7.96699e-08
-0.00139149
3.17823e-07
-0.00194842
7.09135e-07
-0.00250556
1.24664e-06
-0.00306318
1.91626e-06
-0.00362114
2.70579e-06
-0.00417971
3.59161e-06
-0.00473888
4.55699e-06
-0.00529864
5.56897e-06
-0.00585937
6.60549e-06
-0.00642066
7.62713e-06
-0.00698316
8.60278e-06
-0.00754642
9.49259e-06
-0.00811087
1.02474e-05
-0.00867648
1.08444e-05
-0.00924304
1.1197e-05
-0.00981154
1.13324e-05
-0.0103801
1.10729e-05
-0.0109523
1.05772e-05
-0.011522
9.41618e-06
-0.0120997
8.12212e-06
-0.0126697
5.8924e-06
-0.0132534
3.52396e-06
-0.000278337
-0.000835056
8.28271e-08
-0.00139188
3.30363e-07
-0.00194896
7.36953e-07
-0.00250623
1.29512e-06
-0.00306397
1.99012e-06
-0.00362202
2.80903e-06
-0.00418067
3.72738e-06
-0.00473989
4.72767e-06
-0.00529968
5.77602e-06
-0.00586039
6.84964e-06
-0.00642164
7.90801e-06
-0.00698405
8.91926e-06
-0.00754718
9.84154e-06
-0.00811147
1.0625e-05
-0.00867683
1.12423e-05
-0.00924317
1.16078e-05
-0.00981129
1.17401e-05
-0.0103796
1.14688e-05
-0.0109512
1.09333e-05
-0.0115207
9.74502e-06
-0.0120975
8.39157e-06
-0.0126673
6.08657e-06
-0.0132499
3.63321e-06
-0.00027842
-0.000835304
8.57827e-08
-0.00139229
3.42106e-07
-0.00194951
7.6302e-07
-0.00250692
1.34058e-06
-0.00306478
2.05941e-06
-0.00362294
2.90588e-06
-0.00418167
3.85467e-06
-0.00474094
4.8875e-06
-0.00530075
5.96951e-06
-0.00586145
7.07726e-06
-0.00642265
8.16927e-06
-0.00698498
9.21317e-06
-0.00754796
1.01656e-05
-0.00811209
1.09765e-05
-0.00867719
1.16148e-05
-0.0092433
1.19959e-05
-0.00981102
1.21301e-05
-0.0103791
1.18516e-05
-0.01095
1.12805e-05
-0.0115193
1.00737e-05
-0.0120952
8.66529e-06
-0.0126648
6.28678e-06
-0.0132463
3.7438e-06
-0.000278506
-0.00083556
8.84469e-08
-0.00139271
3.52703e-07
-0.00195009
7.86588e-07
-0.00250764
1.38179e-06
-0.00306563
2.1224e-06
-0.00362389
2.99415e-06
-0.0041827
3.97093e-06
-0.00474203
5.03363e-06
-0.00530186
6.14637e-06
-0.00586254
7.28504e-06
-0.0064237
8.40717e-06
-0.00698593
9.48005e-06
-0.00754877
1.04591e-05
-0.00811273
1.12944e-05
-0.00867757
1.19522e-05
-0.00924343
1.23491e-05
-0.00981074
1.24891e-05
-0.0103785
1.22109e-05
-0.0109488
1.16189e-05
-0.0115179
1.03939e-05
-0.0120928
8.93675e-06
-0.0126623
6.49331e-06
-0.0132426
3.85787e-06
-0.000278594
-0.000835824
9.07326e-08
-0.00139314
3.6181e-07
-0.00195069
8.06906e-07
-0.00250838
1.41746e-06
-0.0030665
2.17719e-06
-0.00362487
3.07132e-06
-0.00418377
4.07306e-06
-0.00474314
5.16252e-06
-0.005303
6.30281e-06
-0.00586367
7.46898e-06
-0.00642477
8.61757e-06
-0.00698691
9.71537e-06
-0.00754961
1.07169e-05
-0.00811339
1.15723e-05
-0.00867796
1.22459e-05
-0.00924357
1.26561e-05
-0.00981046
1.28018e-05
-0.0103779
1.25276e-05
-0.0109476
1.19261e-05
-0.0115165
1.06846e-05
-0.0120904
9.18632e-06
-0.0126596
6.69655e-06
-0.0132388
3.97195e-06
-0.000278685
-0.000836095
9.25688e-08
-0.00139359
3.6914e-07
-0.0019513
8.23317e-07
-0.00250914
1.44641e-06
-0.0030674
2.22194e-06
-0.00362587
3.13481e-06
-0.00418485
4.15771e-06
-0.00474428
5.27012e-06
-0.00530416
6.4342e-06
-0.00586482
7.62415e-06
-0.00642587
8.79536e-06
-0.00698791
9.91397e-06
-0.00755047
1.09335e-05
-0.00811407
1.18043e-05
-0.00867837
1.24892e-05
-0.00924372
1.29081e-05
-0.00981019
1.30565e-05
-0.0103773
1.2784e-05
-0.0109463
1.21725e-05
-0.011515
1.09218e-05
-0.0120879
9.38886e-06
-0.0126569
6.87018e-06
-0.0132348
4.06965e-06
-0.000278777
-0.000836371
9.39069e-08
-0.00139404
3.74491e-07
-0.00195192
8.35335e-07
-0.00250992
1.46772e-06
-0.00306831
2.25509e-06
-0.00362689
3.18223e-06
-0.00418597
4.22155e-06
-0.00474544
5.35211e-06
-0.00530535
6.53532e-06
-0.00586599
7.74464e-06
-0.00642698
8.93422e-06
-0.00698893
1.00694e-05
-0.00755134
1.11026e-05
-0.00811475
1.19841e-05
-0.00867879
1.26751e-05
-0.00924386
1.30977e-05
-0.00980991
1.32443e-05
-0.0103767
1.29702e-05
-0.0109451
1.23468e-05
-0.0115135
1.10901e-05
-0.0120854
9.51761e-06
-0.0126541
6.96993e-06
-0.0132307
4.11774e-06
-0.000278871
-0.000836652
9.4735e-08
-0.0013945
3.77804e-07
-0.00195255
8.4279e-07
-0.0025107
1.48099e-06
-0.00306924
2.27586e-06
-0.00362793
3.21225e-06
-0.0041871
4.26245e-06
-0.00474663
5.4055e-06
-0.00530656
6.60218e-06
-0.00586718
7.82575e-06
-0.00642812
9.02886e-06
-0.00698996
1.01767e-05
-0.00755222
1.12192e-05
-0.00811544
1.21079e-05
-0.00867921
1.28003e-05
-0.00924401
1.32226e-05
-0.00980964
1.33617e-05
-0.0103761
1.30825e-05
-0.0109438
1.24459e-05
-0.0115119
1.11856e-05
-0.0120828
9.5617e-06
-0.0126512
6.95917e-06
-0.0132266
4.08898e-06
-0.000278966
-0.000836934
9.54335e-08
-0.00139497
3.80591e-07
-0.00195319
8.49052e-07
-0.0025115
1.49213e-06
-0.00307017
2.29332e-06
-0.00362898
3.23762e-06
-0.00418824
4.29742e-06
-0.00474783
5.45191e-06
-0.00530778
6.66176e-06
-0.00586838
7.90017e-06
-0.00642927
9.11904e-06
-0.006991
1.0283e-05
-0.00755311
1.13406e-05
-0.00811614
1.22426e-05
-0.00867964
1.29446e-05
-0.00924415
1.33738e-05
-0.00980936
1.35142e-05
-0.0103754
1.3237e-05
-0.0109426
1.25961e-05
-0.0115103
1.13383e-05
-0.0120802
9.68333e-06
-0.0126483
7.05041e-06
-0.0132225
4.1841e-06
-0.000279061
-0.000837219
9.57346e-08
-0.00139543
3.81784e-07
-0.00195383
8.51714e-07
-0.0025123
1.49684e-06
-0.00307112
2.30071e-06
-0.00363004
3.24849e-06
-0.00418939
4.31275e-06
-0.00474904
5.47306e-06
-0.00530902
6.6903e-06
-0.0058696
7.93793e-06
-0.00643043
9.16778e-06
-0.00699206
1.03442e-05
-0.00755401
1.1415e-05
-0.00811684
1.23297e-05
-0.00868007
1.30424e-05
-0.00924429
1.34796e-05
-0.00980908
1.36233e-05
-0.0103748
1.3348e-05
-0.0109413
1.27032e-05
-0.0115086
1.14457e-05
-0.0120776
9.77867e-06
-0.0126454
7.13593e-06
-0.0132184
4.3625e-06
-0.000279157
-0.000837505
9.55282e-08
-0.0013959
3.80946e-07
-0.00195448
8.4981e-07
-0.00251311
1.49343e-06
-0.00307206
2.29543e-06
-0.00363111
3.24112e-06
-0.00419055
4.3033e-06
-0.00475025
5.46197e-06
-0.00531027
6.67839e-06
-0.00587083
7.92667e-06
-0.00643161
9.15901e-06
-0.00699313
1.03401e-05
-0.00755492
1.14178e-05
-0.00811755
1.23408e-05
-0.00868051
1.30619e-05
-0.00924443
1.35062e-05
-0.0098088
1.36528e-05
-0.0103741
1.33781e-05
-0.0109401
1.27271e-05
-0.0115069
1.14721e-05
-0.0120749
9.80084e-06
-0.0126426
7.14167e-06
-0.0132141
4.01638e-06
-0.000279252
-0.00083779
9.48514e-08
-0.00139637
3.78234e-07
-0.00195512
8.43726e-07
-0.00251391
1.48269e-06
-0.00307301
2.27881e-06
-0.00363217
3.2176e-06
-0.00419171
4.27207e-06
-0.00475147
5.42264e-06
-0.00531152
6.631e-06
-0.00587206
7.87201e-06
-0.00643279
9.09855e-06
-0.0069942
1.02764e-05
-0.00755585
1.13538e-05
-0.00811828
1.22801e-05
-0.00868095
1.30071e-05
-0.00924458
1.34591e-05
-0.00980853
1.36116e-05
-0.0103735
1.33407e-05
-0.0109388
1.26848e-05
-0.0115053
1.14292e-05
-0.0120723
9.75276e-06
-0.0126397
7.13709e-06
-0.0132097
3.95589e-06
-0.000279347
-0.000838074
9.37307e-08
-0.00139684
3.73762e-07
-0.00195576
8.33756e-07
-0.0025147
1.46519e-06
-0.00307395
2.25192e-06
-0.00363322
3.17971e-06
-0.00419286
4.22181e-06
-0.00475268
5.35901e-06
-0.00531276
6.55336e-06
-0.00587328
7.78043e-06
-0.00643397
8.99386e-06
-0.00699528
1.01607e-05
-0.00755677
1.12304e-05
-0.008119
1.21536e-05
-0.0086814
1.28826e-05
-0.00924473
1.33416e-05
-0.00980826
1.35043e-05
-0.0103728
1.3245e-05
-0.0109375
1.25949e-05
-0.0115036
1.13424e-05
-0.0120697
9.64754e-06
-0.0126368
7.09459e-06
-0.0132056
4.18892e-06
-0.000279441
-0.000838353
9.21931e-08
-0.0013973
3.67644e-07
-0.00195639
8.20164e-07
-0.00251549
1.44146e-06
-0.00307488
2.21566e-06
-0.00363427
3.12892e-06
-0.004194
4.1548e-06
-0.00475387
5.2745e-06
-0.00531399
6.45032e-06
-0.0058745
7.65845e-06
-0.00643513
8.85306e-06
-0.00699635
1.00026e-05
-0.0075577
1.10575e-05
-0.00811973
1.19706e-05
-0.00868186
1.26953e-05
-0.00924489
1.31579e-05
-0.00980801
1.33318e-05
-0.0103722
1.30909e-05
-0.0109363
1.24611e-05
-0.0115019
1.12313e-05
-0.0120672
9.54371e-06
-0.0126338
7.01486e-06
-0.0132014
4.16766e-06
-0.000279533
-0.000838629
9.02785e-08
-0.00139775
3.60034e-07
-0.00195702
8.03293e-07
-0.00251627
1.41208e-06
-0.00307579
2.17095e-06
-0.00363529
3.06656e-06
-0.00419512
4.07298e-06
-0.00475505
5.17187e-06
-0.00531519
6.32587e-06
-0.00587569
7.51163e-06
-0.00643628
8.68369e-06
-0.0069974
9.81153e-06
-0.00755861
1.08463e-05
-0.00812046
1.17432e-05
-0.00868233
1.24567e-05
-0.00924507
1.29167e-05
-0.00980777
1.3098e-05
-0.0103715
1.28764e-05
-0.0109351
1.22754e-05
-0.0115002
1.10851e-05
-0.0120646
9.4338e-06
-0.012631
6.9368e-06
-0.0131972
4.11998e-06
-0.000279623
-0.000838898
8.80449e-08
-0.00139819
3.5116e-07
-0.00195762
7.83622e-07
-0.00251702
1.37785e-06
-0.00307669
2.11891e-06
-0.0036363
2.99412e-06
-0.00419622
3.97822e-06
-0.0047562
5.05351e-06
-0.00531638
6.1831e-06
-0.00587686
7.34419e-06
-0.00643741
8.49161e-06
-0.00699844
9.59563e-06
-0.00755951
1.06076e-05
-0.00812117
1.14846e-05
-0.00868279
1.21815e-05
-0.00924525
1.26322e-05
-0.00980756
1.28137e-05
-0.0103709
1.26065e-05
-0.0109339
1.20347e-05
-0.0114985
1.08915e-05
-0.0120621
9.29051e-06
-0.0126282
6.85559e-06
-0.0131931
4.06561e-06
-0.000279711
-0.000839161
8.55672e-08
-0.00139863
3.4131e-07
-0.00195822
7.61769e-07
-0.00251777
1.33977e-06
-0.00307756
2.06097e-06
-0.00363728
2.91341e-06
-0.00419729
3.8726e-06
-0.00475733
4.92169e-06
-0.00531754
6.02458e-06
-0.00587801
7.15911e-06
-0.00643852
8.28064e-06
-0.00699945
9.36016e-06
-0.00756039
1.0349e-05
-0.00812187
1.12052e-05
-0.00868324
1.18837e-05
-0.00924543
1.23211e-05
-0.00980735
1.2496e-05
-0.0103704
1.22947e-05
-0.0109327
1.17444e-05
-0.0114969
1.06459e-05
-0.0120597
9.10819e-06
-0.0126254
6.77367e-06
-0.013189
4.00578e-06
-0.000279796
-0.000839417
8.29273e-08
-0.00139905
3.30807e-07
-0.0019588
7.3843e-07
-0.00251849
1.29902e-06
-0.00307841
1.99879e-06
-0.00363824
2.82653e-06
-0.00419834
3.7586e-06
-0.00475843
4.77908e-06
-0.00531867
5.8529e-06
-0.00587913
6.95888e-06
-0.0064396
8.05318e-06
-0.00700044
9.10778e-06
-0.00756124
1.0074e-05
-0.00812255
1.09111e-05
-0.00868367
1.15729e-05
-0.0092456
1.19976e-05
-0.00980715
1.21635e-05
-0.0103698
1.19617e-05
-0.0109316
1.14209e-05
-0.0114954
1.03527e-05
-0.0120574
8.8741e-06
-0.0126226
6.64688e-06
-0.013185
3.92885e-06
-0.000279879
-0.000839665
8.02016e-08
-0.00139945
3.1995e-07
-0.00195936
7.14266e-07
-0.00251919
1.25672e-06
-0.00307924
1.93404e-06
-0.00363917
2.7357e-06
-0.00419936
3.63888e-06
-0.00475951
4.62865e-06
-0.00531978
5.67103e-06
-0.00588023
6.74611e-06
-0.00644065
7.81118e-06
-0.00700141
8.83964e-06
-0.00756208
9.78343e-06
-0.00812322
1.06029e-05
-0.0086841
1.12517e-05
-0.00924577
1.1668e-05
-0.00980694
1.18289e-05
-0.0103693
1.16274e-05
-0.0109305
1.10904e-05
-0.0114939
1.00382e-05
-0.0120551
8.59114e-06
-0.0126199
6.41883e-06
-0.0131811
3.81847e-06
-0.000279959
-0.000839904
7.7447e-08
-0.00139985
3.0897e-07
-0.0019599
6.89793e-07
-0.00251987
1.21378e-06
-0.00308004
1.86813e-06
-0.00364008
2.64289e-06
-0.00420035
3.51595e-06
-0.00476055
4.47334e-06
-0.00532086
5.48215e-06
-0.00588129
6.52379e-06
-0.00644168
7.55698e-06
-0.00700235
8.5568e-06
-0.0075629
9.47646e-06
-0.00812387
1.02782e-05
-0.00868451
1.09164e-05
-0.00924593
1.13293e-05
-0.00980674
1.14928e-05
-0.0103687
1.12991e-05
-0.0109295
1.07726e-05
-0.0114925
9.73651e-06
-0.012053
8.31235e-06
-0.0126173
6.18665e-06
-0.0131773
3.67517e-06
-0.000280037
-0.000840136
7.46948e-08
-0.00140023
2.97993e-07
-0.00196042
6.65306e-07
-0.00252052
1.17075e-06
-0.00308082
1.80194e-06
-0.00364095
2.54938e-06
-0.0042013
3.39161e-06
-0.00476156
4.31546e-06
-0.0053219
5.28901e-06
-0.00588233
6.29493e-06
-0.00644268
7.29331e-06
-0.00700327
8.26107e-06
-0.0075637
9.15308e-06
-0.00812451
9.93419e-06
-0.00868492
1.0561e-05
-0.00924609
1.09719e-05
-0.00980654
1.11441e-05
-0.0103682
1.09668e-05
-0.0109285
1.04646e-05
-0.0114911
9.45469e-06
-0.0120508
8.05782e-06
-0.0126148
5.96992e-06
-0.0131736
3.4892e-06
-0.000280111
-0.000840359
7.19429e-08
-0.0014006
2.87016e-07
-0.00196093
6.40814e-07
-0.00252115
1.12769e-06
-0.00308157
1.7356e-06
-0.00364179
2.45548e-06
-0.00420223
3.26639e-06
-0.00476253
4.15588e-06
-0.0053229
5.09296e-06
-0.00588332
6.06129e-06
-0.00644365
7.02214e-06
-0.00700417
7.95418e-06
-0.00756448
8.81407e-06
-0.00812514
9.56949e-06
-0.00868533
1.01803e-05
-0.00924626
1.05857e-05
-0.00980635
1.07665e-05
-0.0103677
1.06091e-05
-0.0109274
1.01451e-05
-0.0114897
9.17836e-06
-0.0120488
7.83576e-06
-0.0126123
5.7907e-06
-0.0131701
3.31588e-06
-0.000280183
-0.000840574
6.91688e-08
-0.00140095
2.75953e-07
-0.00196142
6.16131e-07
-0.00252176
1.08427e-06
-0.00308228
1.66868e-06
-0.0036426
2.36063e-06
-0.00420312
3.1397e-06
-0.00476347
3.99406e-06
-0.00532387
4.89364e-06
-0.00588429
5.82286e-06
-0.00644459
6.74397e-06
-0.00700503
7.63705e-06
-0.00756524
8.46048e-06
-0.00812575
9.18438e-06
-0.00868574
9.77237e-06
-0.00924644
1.01645e-05
-0.00980619
1.03467e-05
-0.0103673
1.0203e-05
-0.0109265
9.78065e-06
-0.0114883
8.86567e-06
-0.0120467
7.60882e-06
-0.0126098
5.64609e-06
-0.0131668
3.29184e-06
-0.000280253
-0.000840781
6.63227e-08
-0.00140129
2.6461e-07
-0.00196189
5.90828e-07
-0.00252234
1.03976e-06
-0.00308298
1.60002e-06
-0.00364338
2.26323e-06
-0.00420397
3.00947e-06
-0.00476436
3.82753e-06
-0.0053248
4.68827e-06
-0.00588521
5.57669e-06
-0.00644548
6.45605e-06
-0.00700585
7.30728e-06
-0.00756596
8.09061e-06
-0.00812633
8.77764e-06
-0.00868613
9.33585e-06
-0.00924663
9.70522e-06
-0.00980605
9.87771e-06
-0.0103669
9.73458e-06
-0.0109256
9.34371e-06
-0.011487
8.4716e-06
-0.0120448
7.30514e-06
-0.0126075
5.43577e-06
-0.0131635
3.22774e-06
-0.000280319
-0.00084098
6.33377e-08
-0.00140162
2.52709e-07
-0.00196233
5.64278e-07
-0.00252291
9.93029e-07
-0.00308364
1.5279e-06
-0.00364412
2.16085e-06
-0.00420479
2.87243e-06
-0.00476522
3.65218e-06
-0.00532569
4.47176e-06
-0.00588609
5.31711e-06
-0.00644633
6.1518e-06
-0.00700664
6.95863e-06
-0.00756665
7.69771e-06
-0.00812689
8.34437e-06
-0.0086865
8.86516e-06
-0.0092468
9.20558e-06
-0.00980591
9.35364e-06
-0.0103665
9.20096e-06
-0.0109247
8.81852e-06
-0.0114859
7.97825e-06
-0.0120429
6.87814e-06
-0.0126053
5.10285e-06
-0.0131603
3.04603e-06
-0.000280382
-0.000841169
6.04702e-08
-0.00140193
2.41269e-07
-0.00196276
5.38768e-07
-0.00252344
9.4817e-07
-0.00308427
1.45869e-06
-0.00364484
2.06269e-06
-0.00420557
2.74113e-06
-0.00476604
3.48449e-06
-0.00532653
4.26505e-06
-0.00588692
5.07017e-06
-0.00644714
5.86317e-06
-0.00700738
6.6297e-06
-0.0075673
7.32826e-06
-0.0081274
7.94003e-06
-0.00868684
8.42651e-06
-0.00924695
8.7436e-06
-0.00980577
8.8666e-06
-0.0103661
8.70827e-06
-0.0109239
8.32326e-06
-0.0114848
7.51412e-06
-0.0120411
6.45556e-06
-0.0126032
4.76268e-06
-0.0131572
2.82024e-06
-0.000280443
-0.00084135
5.79327e-08
-0.00140223
2.31162e-07
-0.00196317
5.16266e-07
-0.00252395
9.08676e-07
-0.00308488
1.39789e-06
-0.00364551
1.97664e-06
-0.00420631
2.62645e-06
-0.00476682
3.33855e-06
-0.00532734
4.08639e-06
-0.00588772
4.85791e-06
-0.00644791
5.61789e-06
-0.00700808
6.35235e-06
-0.00756791
7.02226e-06
-0.00812789
7.60876e-06
-0.00868716
8.07685e-06
-0.00924707
8.38051e-06
-0.00980563
8.49966e-06
-0.0103657
8.34332e-06
-0.0109231
7.97668e-06
-0.0114837
7.19581e-06
-0.0120394
6.19734e-06
-0.0126013
4.56124e-06
-0.0131544
2.74468e-06
-0.000280501
-0.000841524
5.51952e-08
-0.00140251
2.20261e-07
-0.00196357
4.91992e-07
-0.00252444
8.66062e-07
-0.00308545
1.33227e-06
-0.00364616
1.88374e-06
-0.00420702
2.50262e-06
-0.00476757
3.18089e-06
-0.00532811
3.89328e-06
-0.00588848
4.62833e-06
-0.00644865
5.35254e-06
-0.00700875
6.05207e-06
-0.0075685
6.69094e-06
-0.00812835
7.24964e-06
-0.00868746
7.69786e-06
-0.00924719
7.98687e-06
-0.00980548
8.1047e-06
-0.0103653
7.95203e-06
-0.0109223
7.60505e-06
-0.0114827
6.84843e-06
-0.0120378
5.89856e-06
-0.0125994
4.31223e-06
-0.0131517
2.66486e-06
-0.000280556
-0.000841689
5.22305e-08
-0.00140278
2.08456e-07
-0.00196394
4.65705e-07
-0.00252491
8.19926e-07
-0.00308601
1.26123e-06
-0.00364678
1.78322e-06
-0.0042077
2.36871e-06
-0.00476828
3.01044e-06
-0.00532884
3.68449e-06
-0.0058892
4.38007e-06
-0.00644935
5.06562e-06
-0.00700939
5.7273e-06
-0.00756906
6.33239e-06
-0.00812879
6.86048e-06
-0.00868774
7.28631e-06
-0.00924731
7.55899e-06
-0.00980534
7.67734e-06
-0.010365
7.5322e-06
-0.0109215
7.2135e-06
-0.0114818
6.4844e-06
-0.0120362
5.57855e-06
-0.0125978
4.01152e-06
-0.013149
2.4701e-06
-0.000280609
-0.000841846
4.90143e-08
-0.00140304
1.95653e-07
-0.00196429
4.37204e-07
-0.00252535
7.69924e-07
-0.00308653
1.18431e-06
-0.00364737
1.67446e-06
-0.00420834
2.22399e-06
-0.00476895
2.82637e-06
-0.00532954
3.45916e-06
-0.00588989
4.11218e-06
-0.00645001
4.75632e-06
-0.00701
5.37725e-06
-0.00756959
5.94619e-06
-0.00812922
6.44073e-06
-0.00868801
6.84206e-06
-0.00924743
7.09531e-06
-0.00980519
7.21371e-06
-0.0103646
7.07595e-06
-0.0109208
6.79536e-06
-0.0114808
6.1007e-06
-0.0120346
5.28796e-06
-0.0125963
4.00473e-06
-0.0131466
2.32241e-06
-0.000280658
-0.000841993
4.55256e-08
-0.00140328
1.81768e-07
-0.00196463
4.06298e-07
-0.00252576
7.15737e-07
-0.00308702
1.101e-06
-0.00364792
1.55684e-06
-0.00420894
2.06766e-06
-0.00476959
2.62774e-06
-0.00533019
3.21623e-06
-0.00589053
3.82353e-06
-0.00645064
4.42352e-06
-0.00701057
5.00081e-06
-0.00757009
5.53159e-06
-0.00812962
5.98985e-06
-0.00868825
6.36578e-06
-0.00924754
6.59701e-06
-0.00980505
6.71391e-06
-0.0103644
6.57827e-06
-0.0109201
6.33056e-06
-0.01148
5.66057e-06
-0.0120331
4.96846e-06
-0.0125948
3.64102e-06
-0.0131443
2.16037e-06
-0.000280703
-0.000842129
4.17542e-08
-0.00140351
1.66752e-07
-0.00196493
3.72873e-07
-0.00252615
6.57131e-07
-0.00308747
1.01097e-06
-0.00364843
1.42984e-06
-0.0042095
1.899e-06
-0.00477017
2.41366e-06
-0.0053308
2.9547e-06
-0.00589113
3.51295e-06
-0.00645122
4.06611e-06
-0.00701111
4.59668e-06
-0.00757055
5.08747e-06
-0.00813
5.50643e-06
-0.00868848
5.85746e-06
-0.00924766
6.06544e-06
-0.00980492
6.1834e-06
-0.0103641
6.04514e-06
-0.0109194
5.82924e-06
-0.0114793
5.15087e-06
-0.0120318
4.61151e-06
-0.0125933
3.33342e-06
-0.0131421
1.98162e-06
-0.000280745
-0.000842255
3.77098e-08
-0.00140371
1.50626e-07
-0.00196522
3.36927e-07
-0.0025265
5.94059e-07
-0.00308789
9.14064e-07
-0.0036489
1.29323e-06
-0.00421002
1.71767e-06
-0.00477071
2.18354e-06
-0.00533136
2.67382e-06
-0.00589168
3.17955e-06
-0.00645175
3.68327e-06
-0.0070116
4.16381e-06
-0.00757096
4.61314e-06
-0.00813036
4.98888e-06
-0.00868868
5.31605e-06
-0.00924778
5.49864e-06
-0.00980478
5.623e-06
-0.0103639
5.47888e-06
-0.0109187
5.34491e-06
-0.0114788
4.98103e-06
-0.0120305
4.10725e-06
-0.012592
3.02249e-06
-0.0131401
1.78938e-06
-0.000280783
-0.000842368
3.3418e-08
-0.0014039
1.33462e-07
-0.00196548
2.98583e-07
-0.00252682
5.2668e-07
-0.00308827
8.10458e-07
-0.00364932
1.14719e-06
-0.00421048
1.52384e-06
-0.0047712
1.93745e-06
-0.00533186
2.37354e-06
-0.00589219
2.82292e-06
-0.00645223
3.27473e-06
-0.00701205
3.70164e-06
-0.00757134
4.10901e-06
-0.00813069
4.43649e-06
-0.00868885
4.74292e-06
-0.0092479
4.89373e-06
-0.00980463
5.03264e-06
-0.0103637
4.84214e-06
-0.0109181
4.82372e-06
-0.0114782
4.36119e-06
-0.0120294
3.66323e-06
-0.0125907
2.71668e-06
-0.0131383
1.60704e-06
-0.000280817
-0.000842468
2.88942e-08
-0.00140407
1.15335e-07
-0.0019657
2.57995e-07
-0.0025271
4.55278e-07
-0.00308861
7.00554e-07
-0.0036497
9.92369e-07
-0.0042109
1.31838e-06
-0.00477164
1.67636e-06
-0.00533231
2.05481e-06
-0.00589264
2.44357e-06
-0.00645266
2.84132e-06
-0.00701246
3.20998e-06
-0.00757167
3.57711e-06
-0.00813099
3.84901e-06
-0.00868899
4.14411e-06
-0.00924805
4.25284e-06
-0.0098044
4.43756e-06
-0.0103637
4.53749e-06
-0.0109176
4.15944e-06
-0.0114776
3.76505e-06
-0.0120285
3.20049e-06
-0.0125896
2.38573e-06
-0.0131367
1.41066e-06
-0.000280846
-0.000842555
2.41016e-08
-0.00140421
9.62477e-08
-0.0019659
2.15311e-07
-0.00252735
3.80263e-07
-0.0030889
5.85136e-07
-0.00365003
8.29861e-07
-0.00421126