/*--------------------------------*- C++ -*----------------------------------*\
  =========                 |
  \\      /  F ield         | OpenFOAM: The Open Source CFD Toolbox
   \\    /   O peration     | Website:  https://openfoam.org
    \\  /    A nd           | Version:  10
     \\/     M anipulation  |
\*---------------------------------------------------------------------------*/
FoamFile
{
    format      ascii;
    class       volScalarField;
    location    "0.37";
    object      T;
}
// * * * * * * * * * * * * * * * * * * * * * * * * * * * * * * * * * * * * * //

dimensions      [0 0 0 1 0 0 0];

internalField   nonuniform List<scalar> 
4176
(
180.347
180.351
180.372
180.383
180.426
180.445
180.506
180.538
180.613
180.661
180.749
180.809
180.913
180.985
181.101
181.192
181.307
181.43
181.534
181.702
181.777
182.011
182.025
182.326
180.356
180.361
180.382
180.393
180.436
180.457
180.518
180.552
180.628
180.677
180.767
180.83
180.935
181.009
181.128
181.221
181.339
181.465
181.572
181.743
181.818
182.063
182.079
182.411
180.384
180.389
180.409
180.42
180.462
180.483
180.542
180.576
180.649
180.698
180.785
180.847
180.95
181.022
181.139
181.229
181.346
181.468
181.572
181.739
181.81
182.05
182.067
182.408
180.435
180.44
180.461
180.472
180.514
180.534
180.594
180.627
180.7
180.749
180.836
180.897
181.001
181.073
181.191
181.28
181.398
181.523
181.622
181.794
181.862
182.098
182.113
182.439
180.511
180.515
180.536
180.546
180.588
180.608
180.667
180.7
180.772
180.82
180.907
180.967
181.07
181.14
181.258
181.344
181.464
181.586
181.683
181.856
181.923
182.157
182.172
182.487
180.61
180.615
180.635
180.645
180.686
180.706
180.764
180.797
180.869
180.917
181.002
181.062
181.164
181.234
181.351
181.436
181.558
181.674
181.777
181.945
182.014
182.245
182.262
182.578
180.733
180.737
180.757
180.768
180.808
180.828
180.886
180.918
180.989
181.037
181.12
181.18
181.28
181.349
181.465
181.549
181.671
181.782
181.889
182.051
182.123
182.35
182.37
182.684
180.88
180.884
180.904
180.914
180.955
180.974
181.031
181.063
181.133
181.18
181.263
181.322
181.421
181.489
181.604
181.686
181.808
181.915
182.024
182.181
182.255
182.478
182.5
182.809
181.05
181.055
181.074
181.084
181.124
181.143
181.2
181.231
181.3
181.347
181.428
181.486
181.584
181.651
181.765
181.845
181.966
182.07
182.181
182.332
182.408
182.627
182.65
182.955
181.245
181.249
181.269
181.278
181.318
181.337
181.392
181.423
181.491
181.537
181.617
181.675
181.771
181.837
181.949
182.028
182.148
182.248
182.36
182.507
182.583
182.799
182.823
183.122
181.463
181.468
181.487
181.496
181.535
181.553
181.608
181.639
181.706
181.751
181.83
181.886
181.981
182.046
182.157
182.233
182.352
182.449
182.562
182.703
182.781
182.992
183.016
183.31
181.705
181.709
181.728
181.738
181.776
181.794
181.848
181.878
181.944
181.988
182.066
182.121
182.215
182.278
182.387
182.462
182.58
182.673
182.786
182.922
183.003
183.205
183.232
183.52
181.971
181.975
181.994
182.003
182.041
182.058
182.111
182.14
182.205
182.248
182.325
182.379
182.471
182.532
182.64
182.713
182.829
182.92
183.033
183.164
183.244
183.442
183.469
183.751
182.26
182.264
182.283
182.291
182.329
182.345
182.398
182.426
182.49
182.532
182.607
182.66
182.751
182.81
182.916
182.987
183.101
183.189
183.302
183.427
183.509
183.7
183.727
184.003
182.573
182.578
182.596
182.604
182.641
182.657
182.708
182.736
182.798
182.839
182.913
182.964
183.053
183.111
183.215
183.284
183.396
183.481
183.593
183.713
183.795
183.981
184.008
184.278
182.91
182.914
182.932
182.94
182.976
182.991
183.042
183.069
183.13
183.17
183.242
183.292
183.379
183.435
183.537
183.603
183.714
183.796
183.906
184.022
184.104
184.283
184.31
184.573
183.271
183.275
183.292
183.3
183.336
183.35
183.4
183.425
183.485
183.524
183.594
183.642
183.728
183.782
183.882
183.946
184.054
184.133
184.242
184.352
184.434
184.607
184.635
184.891
183.655
183.659
183.676
183.683
183.718
183.732
183.781
183.805
183.864
183.901
183.97
184.016
184.099
184.152
184.249
184.311
184.417
184.492
184.6
184.705
184.787
184.953
184.981
185.23
184.063
184.067
184.084
184.09
184.125
184.137
184.185
184.208
184.266
184.301
184.368
184.413
184.494
184.544
184.639
184.698
184.802
184.874
184.98
185.08
185.162
185.321
185.349
185.59
184.495
184.499
184.515
184.521
184.555
184.567
184.613
184.635
184.691
184.725
184.79
184.833
184.912
184.96
185.052
185.108
185.21
185.278
185.382
185.477
185.558
185.711
185.739
185.973
184.95
184.954
184.97
184.975
185.008
185.019
185.065
185.085
185.14
185.172
185.235
185.276
185.352
185.398
185.488
185.541
185.64
185.705
185.806
185.896
185.977
186.122
186.151
186.377
185.429
185.433
185.449
185.453
185.486
185.496
185.54
185.559
185.612
185.642
185.703
185.742
185.816
185.859
185.946
185.997
186.092
186.154
186.252
186.338
186.417
186.556
186.585
186.802
185.932
185.935
185.951
185.955
185.986
185.995
186.038
186.056
186.107
186.136
186.195
186.231
186.303
186.343
186.427
186.475
186.567
186.626
186.721
186.802
186.88
187.011
187.04
187.25
186.458
186.462
186.476
186.48
186.51
186.518
186.56
186.576
186.625
186.652
186.709
186.743
186.812
186.85
186.931
186.976
187.065
187.12
187.212
187.288
187.364
187.488
187.517
187.718
187.008
187.011
187.025
187.028
187.058
187.065
187.105
187.119
187.167
187.192
187.246
187.278
187.344
187.379
187.458
187.499
187.585
187.636
187.725
187.796
187.87
187.988
188.015
188.209
187.581
187.584
187.598
187.6
187.629
187.634
187.673
187.686
187.732
187.754
187.807
187.836
187.899
187.932
188.007
188.045
188.128
188.175
188.26
188.327
188.399
188.509
188.536
188.72
188.177
188.18
188.193
188.195
188.223
188.227
188.265
188.276
188.319
188.34
188.39
188.417
188.477
188.507
188.579
188.614
188.693
188.736
188.818
188.88
188.949
189.053
189.078
189.254
188.796
188.798
188.812
188.812
188.839
188.842
188.879
188.888
188.93
188.948
188.996
189.02
189.078
189.104
189.173
189.205
189.28
189.32
189.398
189.455
189.522
189.618
189.643
189.81
189.437
189.44
189.453
189.453
189.479
189.481
189.516
189.524
189.563
189.58
189.625
189.646
189.701
189.724
189.79
189.818
189.89
189.926
190
190.053
190.116
190.205
190.228
190.388
190.102
190.104
190.117
190.116
190.141
190.142
190.175
190.181
190.219
190.233
190.276
190.295
190.347
190.367
190.429
190.454
190.522
190.554
190.625
190.672
190.732
190.814
190.834
190.989
190.789
190.791
190.803
190.802
190.826
190.825
190.857
190.862
190.898
190.91
190.95
190.966
191.015
191.032
191.091
191.112
191.177
191.204
191.271
191.314
191.371
191.446
191.465
191.609
191.498
191.5
191.512
191.51
191.533
191.531
191.562
191.564
191.598
191.608
191.646
191.66
191.706
191.72
191.775
191.792
191.854
191.877
191.94
191.978
192.031
192.099
192.117
192.251
192.229
192.231
192.242
192.24
192.262
192.259
192.288
192.289
192.321
192.329
192.364
192.375
192.419
192.429
192.482
192.495
192.553
192.572
192.631
192.664
192.713
192.775
192.791
192.917
192.983
192.984
192.995
192.992
193.013
193.009
193.037
193.036
193.066
193.072
193.105
193.113
193.154
193.161
193.21
193.22
193.274
193.289
193.344
193.372
193.417
193.473
193.487
193.604
193.757
193.759
193.769
193.765
193.786
193.78
193.807
193.804
193.833
193.836
193.867
193.872
193.91
193.915
193.961
193.967
194.018
194.028
194.079
194.102
194.143
194.193
194.205
194.312
194.554
194.555
194.565
194.56
194.58
194.574
194.599
194.594
194.621
194.622
194.651
194.653
194.689
194.69
194.733
194.736
194.783
194.789
194.837
194.855
194.892
194.935
194.945
195.043
195.371
195.373
195.382
195.377
195.395
195.388
195.412
195.406
195.43
195.43
195.456
195.456
195.489
195.487
195.527
195.526
195.57
195.571
195.616
195.629
195.662
195.7
195.706
195.795
196.21
196.211
196.22
196.214
196.232
196.223
196.246
196.238
196.261
196.259
196.282
196.28
196.31
196.305
196.342
196.338
196.378
196.375
196.416
196.425
196.454
196.486
196.489
196.569
197.069
197.07
197.079
197.072
197.089
197.08
197.101
197.092
197.113
197.108
197.13
197.125
197.153
197.145
197.179
197.171
197.208
197.201
197.238
197.242
197.268
197.294
197.294
197.364
197.949
197.95
197.958
197.951
197.968
197.957
197.977
197.966
197.986
197.979
197.999
197.992
198.017
198.005
198.036
198.025
198.058
198.047
198.081
198.08
198.103
198.122
198.12
198.182
198.849
198.85
198.858
198.851
198.866
198.854
198.873
198.861
198.879
198.871
198.888
198.878
198.901
198.887
198.915
198.9
198.93
198.915
198.945
198.939
198.958
198.972
198.967
199.021
199.77
199.771
199.778
199.77
199.785
199.772
199.79
199.777
199.793
199.782
199.798
199.786
199.806
199.789
199.814
199.795
199.823
199.803
199.83
199.818
199.835
199.842
199.834
199.881
200.711
200.712
200.719
200.71
200.724
200.71
200.727
200.712
200.726
200.714
200.728
200.713
200.731
200.711
200.734
200.711
200.736
200.712
200.736
200.719
200.733
200.734
200.723
200.762
201.672
201.672
201.679
201.67
201.683
201.668
201.683
201.667
201.68
201.666
201.677
201.661
201.676
201.654
201.674
201.647
201.67
201.641
201.663
201.64
201.652
201.645
201.632
201.663
202.652
202.652
202.659
202.649
202.661
202.645
202.659
202.642
202.653
202.637
202.647
202.628
202.641
202.616
202.633
202.603
202.623
202.59
202.61
202.581
202.591
202.578
202.563
202.585
203.651
203.652
203.658
203.647
203.659
203.642
203.655
203.636
203.646
203.628
203.636
203.615
203.625
203.597
203.612
203.579
203.596
203.559
203.576
203.542
203.55
203.53
203.514
203.528
204.67
204.67
204.676
204.665
204.676
204.658
204.67
204.65
204.658
204.638
204.644
204.621
204.629
204.598
204.61
204.574
204.589
204.547
204.562
204.522
204.529
204.502
204.486
204.489
205.707
205.707
205.713
205.701
205.711
205.693
205.703
205.682
205.688
205.667
205.67
205.645
205.651
205.617
205.627
205.588
205.6
205.554
205.566
205.521
205.527
205.493
205.475
205.471
206.763
206.763
206.768
206.755
206.765
206.745
206.755
206.732
206.737
206.714
206.716
206.688
206.692
206.655
206.663
206.62
206.63
206.579
206.59
206.539
206.544
206.503
206.485
206.471
207.836
207.836
207.841
207.828
207.836
207.816
207.824
207.8
207.804
207.779
207.779
207.749
207.751
207.712
207.717
207.671
207.678
207.623
207.633
207.576
207.58
207.529
207.515
207.491
208.926
208.926
208.931
208.917
208.925
208.904
208.911
208.886
208.888
208.861
208.86
208.828
208.827
208.786
208.789
208.739
208.745
208.685
208.694
208.631
208.633
208.576
208.561
208.529
210.033
210.033
210.037
210.023
210.031
210.009
210.015
209.988
209.989
209.961
209.957
209.923
209.921
209.877
209.878
209.825
209.829
209.764
209.773
209.704
209.706
209.64
209.626
209.586
211.157
211.156
211.16
211.146
211.153
211.13
211.135
211.107
211.106
211.077
211.072
211.035
211.032
210.984
210.984
210.927
210.93
210.862
210.868
210.791
210.797
210.724
210.708
210.66
212.295
212.295
212.298
212.284
212.29
212.266
212.27
212.241
212.24
212.209
212.202
212.164
212.159
212.108
212.108
212.046
212.049
211.974
211.982
211.899
211.902
211.824
211.808
211.753
213.449
213.448
213.452
213.436
213.442
213.418
213.421
213.391
213.388
213.355
213.348
213.307
213.302
213.247
213.247
213.179
213.185
213.102
213.112
213.023
213.025
212.942
212.924
212.862
214.616
214.615
214.619
214.603
214.608
214.583
214.586
214.555
214.551
214.517
214.509
214.465
214.46
214.402
214.401
214.328
214.335
214.249
214.255
214.164
214.163
214.075
214.057
213.988
215.797
215.796
215.799
215.783
215.788
215.763
215.764
215.732
215.728
215.692
215.684
215.637
215.633
215.57
215.571
215.494
215.498
215.409
215.415
215.32
215.318
215.226
215.206
215.131
216.99
216.989
216.992
216.977
216.98
216.955
216.956
216.923
216.918
216.88
216.873
216.822
216.818
216.753
216.753
216.674
216.677
216.586
216.588
216.491
216.487
216.391
216.37
216.29
218.195
218.195
218.197
218.182
218.185
218.159
218.159
218.126
218.121
218.081
218.073
218.022
218.016
217.95
217.948
217.868
217.869
217.775
217.777
217.677
217.671
217.571
217.55
217.463
219.412
219.411
219.413
219.398
219.4
219.375
219.374
219.341
219.335
219.294
219.286
219.233
219.227
219.159
219.156
219.074
219.075
218.979
218.978
218.876
218.869
218.765
218.744
218.652
220.638
220.638
220.64
220.624
220.627
220.601
220.6
220.567
220.559
220.519
220.509
220.456
220.449
220.381
220.375
220.294
220.292
220.195
220.193
220.088
220.08
219.974
219.951
219.854
221.875
221.875
221.877
221.861
221.864
221.837
221.836
221.803
221.793
221.755
221.742
221.691
221.682
221.613
221.606
221.525
221.521
221.423
221.42
221.313
221.304
221.194
221.171
221.07
223.122
223.121
223.124
223.107
223.11
223.084
223.081
223.049
223.038
223.001
222.986
222.936
222.924
222.857
222.847
222.766
222.76
222.662
222.657
222.548
222.539
222.427
222.403
222.298
224.377
224.376
224.379
224.363
224.365
224.339
224.336
224.304
224.292
224.256
224.239
224.19
224.176
224.11
224.099
224.018
224.01
223.911
223.906
223.795
223.785
223.67
223.646
223.537
225.641
225.64
225.643
225.626
225.629
225.603
225.6
225.568
225.555
225.52
225.501
225.453
225.438
225.371
225.359
225.278
225.269
225.17
225.164
225.051
225.04
224.924
224.9
224.787
226.913
226.913
226.915
226.899
226.902
226.875
226.872
226.84
226.827
226.792
226.772
226.725
226.707
226.642
226.628
226.547
226.537
226.437
226.429
226.317
226.305
226.186
226.162
226.047
228.193
228.193
228.196
228.179
228.182
228.155
228.152
228.12
228.106
228.071
228.05
228.004
227.985
227.919
227.905
227.823
227.812
227.711
227.704
227.59
227.577
227.457
227.433
227.315
229.481
229.481
229.484
229.467
229.47
229.443
229.44
229.407
229.393
229.358
229.336
229.29
229.269
229.204
229.189
229.105
229.095
228.994
228.983
228.871
228.856
228.735
228.711
228.591
230.777
230.777
230.779
230.763
230.765
230.737
230.734
230.701
230.686
230.651
230.627
230.582
230.56
230.495
230.479
230.393
230.383
230.281
230.271
230.157
230.142
230.02
229.996
229.874
232.079
232.079
232.081
232.064
232.066
232.038
232.034
232.001
231.985
231.95
231.924
231.879
231.855
231.791
231.775
231.687
231.677
231.575
231.562
231.449
231.433
231.311
231.286
231.163
233.387
233.387
233.389
233.371
233.373
233.344
233.339
233.305
233.288
233.253
233.226
233.182
233.155
233.092
233.072
232.987
232.974
232.872
232.859
232.746
232.73
232.607
232.582
232.458
234.697
234.697
234.699
234.681
234.683
234.653
234.648
234.613
234.596
234.56
234.531
234.487
234.458
234.397
234.373
234.291
234.278
234.173
234.16
234.048
234.031
233.908
233.883
233.759
236.008
236.008
236.01
235.992
235.994
235.964
235.958
235.923
235.905
235.868
235.84
235.796
235.764
235.705
235.679
235.599
235.582
235.479
235.466
235.354
235.337
235.214
235.189
235.064
237.317
237.317
237.319
237.3
237.303
237.272
237.268
237.232
237.214
237.178
237.149
237.106
237.073
237.016
236.987
236.91
236.889
236.792
236.776
236.664
236.647
236.525
236.501
236.376
238.619
238.619
238.622
238.604
238.607
238.577
238.573
238.539
238.522
238.487
238.458
238.416
238.384
238.329
238.298
238.224
238.202
238.105
238.092
237.976
237.962
237.841
237.818
237.693
239.914
239.914
239.918
239.9
239.904
239.876
239.874
239.841
239.826
239.793
239.766
239.727
239.695
239.643
239.612
239.542
239.517
239.426
239.409
239.298
239.282
239.162
239.14
239.016
241.2
241.201
241.206
241.189
241.195
241.169
241.169
241.138
241.126
241.096
241.072
241.035
241.006
240.957
240.928
240.862
240.838
240.749
240.732
240.625
240.61
240.489
240.469
240.345
242.481
242.482
242.488
242.473
242.48
242.456
242.459
242.431
242.422
242.395
242.374
242.342
242.316
242.272
242.245
242.184
242.161
242.079
242.062
241.957
241.943
241.823
241.804
241.679
243.762
243.764
243.77
243.756
243.765
243.743
243.748
243.723
243.716
243.693
243.675
243.647
243.625
243.585
243.563
243.505
243.487
243.407
243.395
243.294
243.284
243.165
243.147
243.022
245.053
245.055
245.061
245.049
245.058
245.038
245.043
245.02
245.014
244.994
244.978
244.954
244.933
244.897
244.88
244.824
244.815
244.734
244.732
244.63
244.628
244.511
244.498
244.375
246.364
246.367
246.373
246.36
246.369
246.349
246.354
246.331
246.326
246.306
246.29
246.267
246.247
246.214
246.199
246.142
246.141
246.058
246.065
245.964
245.97
245.856
245.849
245.735
247.708
247.71
247.716
247.702
247.711
247.688
247.692
247.666
247.66
247.637
247.62
247.595
247.574
247.541
247.522
247.469
247.465
247.387
247.392
247.294
247.304
247.192
247.191
247.083
249.094
249.096
249.101
249.085
249.092
249.066
249.067
249.038
249.028
249
248.979
248.949
248.923
248.887
248.861
248.81
248.796
248.721
248.722
248.622
248.635
248.519
248.523
248.414
250.529
250.53
250.534
250.516
250.521
250.491
250.489
250.454
250.439
250.406
250.377
250.341
250.307
250.264
250.229
250.172
250.148
250.069
250.064
249.957
249.968
249.844
249.851
249.735
252.014
252.015
252.018
251.999
252
251.967
251.96
251.922
251.899
251.861
251.823
251.781
251.736
251.684
251.637
251.571
251.536
251.444
251.429
251.308
251.315
251.176
251.184
251.053
253.546
253.548
253.549
253.528
253.528
253.492
253.481
253.438
253.411
253.367
253.322
253.272
253.218
253.157
253.098
253.022
252.97
252.865
252.836
252.697
252.691
252.532
252.534
252.381
255.119
255.12
255.122
255.099
255.097
255.059
255.047
255
254.97
254.92
254.873
254.815
254.755
254.685
254.616
254.532
254.461
254.353
254.295
254.149
254.118
253.936
253.924
253.735
256.721
256.722
256.724
256.7
256.699
256.659
256.646
256.597
256.566
256.514
256.464
256.403
256.339
256.265
256.19
256.1
256.018
255.907
255.823
255.68
255.613
255.42
255.383
255.149
258.342
258.342
258.345
258.321
258.32
258.28
258.267
258.218
258.187
258.135
258.084
258.023
257.958
257.883
257.806
257.715
257.628
257.516
257.423
257.284
257.192
257.004
256.939
256.67
259.968
259.969
259.972
259.948
259.948
259.909
259.897
259.849
259.819
259.768
259.718
259.659
259.595
259.523
259.447
259.359
259.273
259.165
259.071
258.936
258.844
258.662
258.594
258.327
261.589
261.591
261.594
261.571
261.572
261.534
261.524
261.478
261.45
261.401
261.354
261.298
261.237
261.168
261.096
261.013
260.93
260.828
260.74
260.611
260.529
260.352
260.295
260.052
263.196
263.197
263.201
263.179
263.181
263.145
263.137
263.093
263.067
263.022
262.977
262.926
262.868
262.805
262.736
262.659
262.582
262.487
262.405
262.285
262.21
262.045
261.993
261.771
264.779
264.781
264.785
264.765
264.768
264.734
264.727
264.686
264.663
264.621
264.58
264.533
264.479
264.421
264.357
264.287
264.214
264.129
264.052
263.942
263.874
263.722
263.674
263.471
266.333
266.335
266.34
266.321
266.325
266.293
266.288
266.25
266.228
266.192
266.152
266.111
266.06
266.009
265.949
265.887
265.819
265.742
265.672
265.569
265.508
265.371
265.325
265.141
267.852
267.854
267.859
267.842
267.846
267.817
267.813
267.779
267.759
267.728
267.689
267.655
267.605
267.563
267.505
267.452
267.387
267.32
267.255
267.162
267.107
266.984
266.94
266.775
269.331
269.334
269.339
269.323
269.329
269.301
269.3
269.268
269.251
269.223
269.188
269.158
269.112
269.076
269.021
268.977
268.916
268.857
268.796
268.716
268.663
268.554
268.514
268.366
270.768
270.771
270.778
270.761
270.77
270.742
270.744
270.714
270.701
270.674
270.644
270.617
270.577
270.544
270.495
270.456
270.4
270.35
270.293
270.224
270.174
270.079
270.041
269.91
272.161
272.164
272.172
272.156
272.166
272.139
272.144
272.115
272.105
272.081
272.055
272.031
271.995
271.966
271.923
271.888
271.839
271.795
271.742
271.686
271.636
271.554
271.52
271.405
273.509
273.511
273.519
273.504
273.515
273.49
273.497
273.469
273.463
273.441
273.419
273.397
273.366
273.341
273.303
273.273
273.228
273.192
273.142
273.095
273.051
272.98
272.947
272.848
274.808
274.811
274.82
274.805
274.817
274.794
274.801
274.777
274.772
274.753
274.734
274.715
274.688
274.667
274.634
274.608
274.568
274.538
274.494
274.456
274.411
274.356
274.322
274.239
276.06
276.063
276.072
276.057
276.072
276.048
276.059
276.035
276.033
276.016
276
275.984
275.961
275.943
275.914
275.893
275.858
275.833
275.793
275.763
275.721
275.678
275.644
275.576
277.264
277.267
277.276
277.264
277.276
277.257
277.266
277.246
277.244
277.231
277.217
277.205
277.184
277.17
277.145
277.128
277.097
277.077
277.042
277.018
276.98
276.945
276.916
276.859
278.42
278.423
278.434
278.418
278.437
278.412
278.429
278.406
278.41
278.396
278.386
278.375
278.358
278.347
278.325
278.312
278.285
278.271
278.239
278.221
278.187
278.162
278.132
278.089
279.529
279.532
279.541
279.53
279.544
279.527
279.538
279.522
279.523
279.514
279.505
279.498
279.483
279.475
279.456
279.447
279.423
279.413
279.386
279.374
279.343
279.326
279.297
279.265
280.591
280.593
280.604
280.592
280.608
280.59
280.604
280.587
280.593
280.583
280.577
280.572
280.56
280.554
280.539
280.533
280.512
280.507
280.482
280.475
280.449
280.438
280.411
280.389
281.606
281.61
281.619
281.609
281.624
281.608
281.622
281.608
281.613
281.607
281.602
281.599
281.589
281.586
281.573
281.571
281.553
281.551
281.53
281.528
281.504
281.499
281.474
281.461
282.578
282.58
282.59
282.58
282.594
282.582
282.594
282.583
282.589
282.584
282.581
282.579
282.572
282.571
282.561
282.561
282.546
282.548
282.529
282.531
282.511
282.511
282.487
282.484
283.504
283.507
283.514
283.51
283.519
283.512
283.521
283.514
283.518
283.517
283.514
283.515
283.509
283.511
283.503
283.506
283.493
283.498
283.483
283.488
283.47
283.475
283.454
283.457
284.388
284.389
284.4
284.39
284.408
284.393
284.411
284.398
284.408
284.405
284.405
284.407
284.403
284.406
284.401
284.406
284.396
284.403
284.39
284.399
284.384
284.393
284.374
284.384
285.23
285.234
285.237
285.24
285.241
285.247
285.245
285.25
285.249
285.254
285.252
285.257
285.254
285.259
285.255
285.262
285.254
285.264
285.254
285.266
285.252
285.266
285.249
285.264
286.033
286.033
286.045
286.033
286.055
286.037
286.06
286.046
286.06
286.056
286.061
286.064
286.064
286.07
286.068
286.077
286.071
286.084
286.074
286.089
286.078
286.096
286.08
286.1
286.795
286.8
286.8
286.808
286.804
286.817
286.809
286.823
286.817
286.829
286.825
286.834
286.833
286.842
286.841
286.851
286.847
286.861
286.854
286.872
286.862
286.883
286.868
286.893
287.522
287.522
287.532
287.525
287.542
287.53
287.549
287.539
287.554
287.551
287.559
287.563
287.566
287.574
287.575
287.587
287.584
287.601
287.594
287.614
287.606
287.63
287.616
287.644
288.21
288.215
288.216
288.222
288.222
288.231
288.228
288.241
288.236
288.249
288.248
288.259
288.26
288.27
288.272
288.285
288.284
288.301
288.297
288.319
288.311
288.337
288.325
288.356
288.867
288.868
288.874
288.874
288.881
288.881
288.89
288.89
288.899
288.902
288.909
288.916
288.92
288.93
288.933
288.947
288.947
288.966
288.963
288.985
288.98
289.009
288.998
289.03
289.488
289.492
289.494
289.498
289.502
289.506
289.51
289.516
289.519
289.528
289.531
289.542
289.545
289.557
289.561
289.576
289.577
289.596
289.594
289.619
289.614
289.644
289.633
289.67
290.08
290.081
290.085
290.088
290.092
290.096
290.1
290.107
290.111
290.12
290.124
290.135
290.139
290.151
290.156
290.172
290.173
290.194
290.193
290.218
290.215
290.246
290.233
290.278
290.639
290.643
290.644
290.649
290.651
290.657
290.661
290.667
290.674
290.68
290.687
290.696
290.702
290.714
290.72
290.736
290.739
290.76
290.759
290.787
290.783
290.816
290.807
290.847
291.171
291.173
291.177
291.177
291.185
291.186
291.194
291.199
291.204
291.214
291.218
291.23
291.235
291.249
291.254
291.271
291.274
291.297
291.298
291.324
291.322
291.356
291.347
291.389
291.675
291.678
291.678
291.685
291.685
291.694
291.695
291.704
291.709
291.718
291.724
291.735
291.741
291.754
291.761
291.778
291.782
291.805
291.805
291.834
291.831
291.866
291.86
291.9
292.153
292.154
292.158
292.159
292.166
292.168
292.176
292.18
292.188
292.195
292.202
292.213
292.22
292.234
292.24
292.258
292.262
292.285
292.288
292.315
292.314
292.35
292.343
292.386
292.605
292.607
292.61
292.612
292.617
292.621
292.626
292.634
292.639
292.649
292.654
292.667
292.673
292.688
292.695
292.712
292.717
292.741
292.743
292.772
292.771
292.807
292.802
292.844
293.034
293.036
293.038
293.043
293.044
293.052
293.055
293.062
293.069
293.077
293.085
293.096
293.103
293.117
293.125
293.142
293.148
293.171
293.175
293.203
293.203
293.24
293.234
293.278
293.441
293.442
293.446
293.446
293.454
293.454
293.463
293.467
293.476
293.483
293.491
293.503
293.509
293.524
293.532
293.55
293.556
293.579
293.582
293.612
293.612
293.648
293.644
293.687
293.825
293.827
293.829
293.833
293.835
293.842
293.845
293.854
293.859
293.869
293.875
293.888
293.894
293.909
293.917
293.935
293.941
293.965
293.969
293.998
293.998
294.034
294.03
294.074
294.19
294.192
294.193
294.197
294.2
294.206
294.21
294.217
294.225
294.232
294.24
294.252
294.259
294.274
294.281
294.3
294.306
294.33
294.333
294.362
294.364
294.4
294.396
294.439
294.535
294.536
294.54
294.539
294.549
294.547
294.558
294.561
294.57
294.577
294.585
294.597
294.604
294.619
294.626
294.645
294.651
294.675
294.679
294.708
294.708
294.745
294.741
294.785
294.862
294.864
294.864
294.872
294.868
294.882
294.878
294.892
294.893
294.906
294.911
294.924
294.93
294.945
294.953
294.971
294.978
295.002
295.005
295.034
295.035
295.072
295.068
295.11
295.172
295.172
295.177
295.175
295.186
295.181
295.197
295.194
295.208
295.211
295.222
295.231
295.24
295.254
295.262
295.28
295.287
295.31
295.314
295.344
295.344
295.38
295.377
295.419
295.465
295.467
295.466
295.474
295.47
295.484
295.479
295.496
295.493
295.509
295.511
295.526
295.532
295.547
295.554
295.572
295.579
295.602
295.606
295.635
295.637
295.672
295.669
295.71
295.743
295.742
295.748
295.745
295.756
295.752
295.766
295.764
295.777
295.781
295.791
295.801
295.809
295.823
295.831
295.849
295.856
295.878
295.883
295.912
295.912
295.948
295.945
295.987
296.005
296.008
296.005
296.015
296.01
296.024
296.019
296.034
296.034
296.047
296.051
296.064
296.071
296.085
296.093
296.111
296.118
296.14
296.144
296.172
296.175
296.209
296.207
296.246
296.254
296.253
296.259
296.256
296.267
296.263
296.276
296.276
296.287
296.292
296.301
296.311
296.319
296.333
296.34
296.359
296.365
296.387
296.393
296.42
296.421
296.455
296.453
296.494
296.489
296.492
296.489
296.498
296.493
296.507
296.503
296.517
296.517
296.53
296.534
296.547
296.553
296.568
296.575
296.593
296.6
296.622
296.626
296.653
296.653
296.691
296.687
296.726
296.712
296.712
296.716
296.715
296.723
296.722
296.732
296.734
296.743
296.75
296.758
296.768
296.776
296.79
296.797
296.814
296.821
296.842
296.848
296.874
296.877
296.909
296.908
296.946
296.923
296.924
296.925
296.929
296.93
296.937
296.939
296.948
296.951
296.962
296.967
296.979
296.985
297
297.006
297.024
297.031
297.052
297.056
297.083
297.084
297.118
297.116
297.154
297.123
297.123
297.125
297.128
297.13
297.136
297.139
297.146
297.151
297.16
297.166
297.177
297.184
297.198
297.205
297.222
297.229
297.249
297.254
297.281
297.283
297.314
297.313
297.35
297.311
297.312
297.314
297.316
297.32
297.323
297.33
297.333
297.341
297.348
297.355
297.365
297.372
297.386
297.392
297.41
297.416
297.437
297.441
297.467
297.468
297.502
297.498
297.536
297.49
297.492
297.491
297.497
297.495
297.506
297.503
297.516
297.516
297.528
297.532
297.544
297.55
297.564
297.569
297.587
297.593
297.614
297.619
297.643
297.646
297.676
297.676
297.71
297.66
297.659
297.664
297.66
297.672
297.666
297.68
297.677
297.69
297.693
297.702
297.711
297.718
297.732
297.737
297.755
297.761
297.782
297.784
297.812
297.811
297.844
297.84
297.877
297.819
297.822
297.818
297.83
297.819
297.839
297.827
297.847
297.841
297.858
297.858
297.872
297.877
297.891
297.896
297.913
297.919
297.939
297.943
297.968
297.97
298
297.999
298.032
297.971
297.969
297.977
297.968
297.987
297.972
297.995
297.984
298.003
298.001
298.013
298.02
298.028
298.041
298.046
298.063
298.07
298.088
298.092
298.118
298.117
298.15
298.146
298.181
298.113
298.117
298.111
298.126
298.111
298.136
298.119
298.143
298.133
298.152
298.151
298.165
298.169
298.183
298.188
298.205
298.209
298.231
298.234
298.258
298.261
298.288
298.287
298.32
298.25
298.247
298.257
298.244
298.267
298.248
298.275
298.26
298.281
298.278
298.29
298.297
298.304
298.317
298.322
298.34
298.344
298.363
298.366
298.393
298.391
298.423
298.419
298.453
298.376
298.38
298.373
298.389
298.373
298.399
298.38
298.406
298.395
298.414
298.412
298.427
298.43
298.444
298.449
298.466
298.468
298.491
298.493
298.517
298.519
298.546
298.544
298.577
298.498
298.495
298.505
298.493
298.514
298.498
298.522
298.509
298.528
298.526
298.537
298.544
298.55
298.564
298.568
298.586
298.589
298.608
298.611
298.637
298.635
298.665
298.662
298.694
298.611
298.614
298.608
298.622
298.609
298.631
298.617
298.638
298.63
298.647
298.645
298.66
298.663
298.677
298.681
298.698
298.7
298.722
298.724
298.747
298.748
298.776
298.774
298.805
298.719
298.717
298.724
298.717
298.731
298.723
298.738
298.733
298.746
298.748
298.756
298.765
298.769
298.784
298.787
298.805
298.807
298.827
298.828
298.854
298.853
298.881
298.879
298.91
298.82
298.822
298.819
298.828
298.821
298.836
298.828
298.844
298.84
298.854
298.854
298.867
298.87
298.884
298.888
298.905
298.906
298.929
298.929
298.952
298.952
298.981
298.977
299.008
298.916
298.915
298.919
298.917
298.925
298.922
298.932
298.933
298.94
298.946
298.951
298.961
298.965
298.979
298.982
298.999
299.002
299.02
299.022
299.047
299.047
299.073
299.071
299.1
299.005
299.007
299.005
299.012
299.009
299.019
299.016
299.027
299.026
299.038
299.039
299.051
299.054
299.068
299.071
299.088
299.089
299.111
299.111
299.133
299.133
299.163
299.158
299.188
299.09
299.09
299.093
299.093
299.097
299.099
299.104
299.108
299.113
299.12
299.124
299.135
299.138
299.152
299.154
299.172
299.174
299.192
299.194
299.218
299.218
299.242
299.241
299.269
299.17
299.171
299.17
299.175
299.174
299.181
299.181
299.189
299.19
299.201
299.202
299.214
299.217
299.23
299.233
299.249
299.251
299.272
299.272
299.294
299.294
299.321
299.318
299.347
299.244
299.245
299.246
299.248
299.25
299.254
299.256
299.263
299.266
299.274
299.277
299.288
299.29
299.304
299.307
299.323
299.326
299.344
299.345
299.368
299.368
299.392
299.392
299.418
299.314
299.315
299.316
299.318
299.32
299.323
299.327
299.332
299.335
299.344
299.346
299.358
299.36
299.373
299.376
299.392
299.393
299.413
299.414
299.436
299.436
299.461
299.459
299.486
299.38
299.381