/*--------------------------------*- C++ -*----------------------------------*\
  =========                 |
  \\      /  F ield         | OpenFOAM: The Open Source CFD Toolbox
   \\    /   O peration     | Website:  https://openfoam.org
    \\  /    A nd           | Version:  10
     \\/     M anipulation  |
\*---------------------------------------------------------------------------*/
FoamFile
{
    format      ascii;
    class       volVectorField;
    location    "0.37";
    object      U;
}
// * * * * * * * * * * * * * * * * * * * * * * * * * * * * * * * * * * * * * //

dimensions      [0 1 -1 0 0 0 0];

internalField   nonuniform List<vector> 
4176
(
(497.488 -0.0141826 -5.99526e-09)
(497.474 0.0637511 1.825e-09)
(497.45 0.00134806 -5.74452e-10)
(497.4 0.0904427 3.36929e-11)
(497.346 0.0509512 -9.63479e-11)
(497.271 0.0896386 -5.88266e-10)
(497.181 0.125768 -4.50044e-10)
(497.088 0.0605832 1.9311e-10)
(496.954 0.225096 5.98423e-10)
(496.849 0.00491862 6.37175e-10)
(496.672 0.344214 4.61175e-10)
(496.549 -0.0689356 3.94148e-10)
(496.339 0.46965 1.65994e-10)
(496.191 -0.139311 -2.25425e-10)
(495.957 0.567604 -4.01666e-10)
(495.773 -0.1354 -2.80031e-10)
(495.536 0.528377 -2.22438e-10)
(495.286 0.0238682 -1.92228e-11)
(495.073 0.334692 3.09211e-10)
(494.73 0.323108 1.76864e-10)
(494.575 -0.0170352 -1.39549e-10)
(494.097 0.771897 -1.67718e-10)
(494.067 -0.516342 1.04907e-10)
(493.444 1.44228 2.26482e-10)
(497.47 0.00489789 -5.99484e-09)
(497.455 0.114571 1.82542e-09)
(497.431 0.0764089 -5.74597e-10)
(497.379 0.20335 3.29575e-11)
(497.325 0.186209 -9.63511e-11)
(497.247 0.264361 -5.88004e-10)
(497.156 0.321676 -4.50689e-10)
(497.059 0.29568 1.93234e-10)
(496.925 0.482059 5.99031e-10)
(496.814 0.298052 6.37371e-10)
(496.636 0.662729 4.60713e-10)
(496.508 0.278895 3.94047e-10)
(496.293 0.850229 1.64379e-10)
(496.142 0.258565 -2.25319e-10)
(495.901 1.01229 -4.01472e-10)
(495.713 0.302281 -2.79537e-10)
(495.47 1.04211 -2.23601e-10)
(495.216 0.510892 -1.93323e-11)
(494.996 0.914245 3.08173e-10)
(494.646 0.855269 1.76447e-10)
(494.491 0.628403 -1.39497e-10)
(493.992 1.33103 -1.70049e-10)
(493.956 0.125229 1.05665e-10)
(493.27 1.99252 2.26101e-10)
(497.413 0.0232475 -5.99744e-09)
(497.399 0.161229 1.82452e-09)
(497.375 0.147588 -5.76426e-10)
(497.324 0.307693 3.39719e-11)
(497.273 0.313813 -9.66599e-11)
(497.194 0.42655 -5.88832e-10)
(497.108 0.505799 -4.47988e-10)
(497.011 0.514913 1.95115e-10)
(496.882 0.722783 6.01048e-10)
(496.772 0.572719 6.37667e-10)
(496.599 0.960512 4.59775e-10)
(496.474 0.606303 3.9317e-10)
(496.263 1.20603 1.65943e-10)
(496.116 0.634157 -2.25234e-10)
(495.878 1.4285 -4.0171e-10)
(495.697 0.714029 -2.78297e-10)
(495.454 1.5226 -2.2632e-10)
(495.209 0.966145 -2.09514e-11)
(494.994 1.45705 3.08808e-10)
(494.653 1.34394 1.76004e-10)
(494.506 1.24765 -1.40456e-10)
(494.016 1.88215 -1.67385e-10)
(493.981 0.838842 1.05974e-10)
(493.271 2.60868 2.27049e-10)
(497.309 0.0419824 -5.9964e-09)
(497.294 0.208735 1.82835e-09)
(497.271 0.220086 -5.77375e-10)
(497.22 0.414009 3.70394e-11)
(497.169 0.443781 -9.74797e-11)
(497.091 0.591903 -5.93201e-10)
(497.004 0.693358 -4.47911e-10)
(496.907 0.738546 1.92697e-10)
(496.777 0.967999 5.94374e-10)
(496.668 0.853034 6.4119e-10)
(496.494 1.26385 4.60712e-10)
(496.37 0.940664 3.91444e-10)
(496.158 1.56871 1.67415e-10)
(496.013 1.01836 -2.26794e-10)
(495.771 1.85339 -4.08857e-10)
(495.593 1.13552 -2.7952e-10)
(495.346 2.01703 -2.239e-10)
(495.097 1.42668 -2.1309e-11)
(494.891 2.00918 3.1111e-10)
(494.54 1.84082 1.75372e-10)
(494.398 1.85823 -1.43273e-10)
(493.916 2.42 -1.6819e-10)
(493.886 1.52587 1.04226e-10)
(493.206 3.20543 2.1757e-10)
(497.157 0.0603135 -5.99861e-09)
(497.143 0.255257 1.83473e-09)
(497.12 0.291005 -5.73588e-10)
(497.069 0.518192 3.70451e-11)
(497.018 0.570915 -9.42678e-11)
(496.941 0.754068 -5.87804e-10)
(496.856 0.87683 -4.49882e-10)
(496.76 0.958095 1.94947e-10)
(496.632 1.20788 5.99971e-10)
(496.524 1.12852 6.39215e-10)
(496.351 1.56064 4.60929e-10)
(496.229 1.26946 3.94309e-10)
(496.018 1.92398 1.63959e-10)
(495.876 1.39612 -2.27817e-10)
(495.634 2.27112 -4.06965e-10)
(495.461 1.55021 -2.82045e-10)
(495.21 2.51237 -2.25003e-10)
(494.967 1.86986 -2.05207e-11)
(494.764 2.55422 3.05635e-10)
(494.41 2.33873 1.81132e-10)
(494.271 2.45268 -1.35563e-10)
(493.793 2.94579 -1.65245e-10)
(493.763 2.1685 1.07837e-10)
(493.103 3.76331 2.28389e-10)
(496.957 0.0786366 -6.0116e-09)
(496.942 0.301483 1.83261e-09)
(496.919 0.361769 -5.72164e-10)
(496.869 0.621788 3.23723e-11)
(496.819 0.697743 -1.05514e-10)
(496.742 0.915377 -5.93012e-10)
(496.658 1.05987 -4.47464e-10)
(496.561 1.1766 1.91148e-10)
(496.435 1.44718 6.00711e-10)
(496.327 1.40293 6.4478e-10)
(496.157 1.85655 4.61268e-10)
(496.035 1.59743 3.88553e-10)
(495.825 2.27763 1.61188e-10)
(495.684 1.77377 -2.25471e-10)
(495.443 2.68554 -4.10062e-10)
(495.274 1.96917 -2.79484e-10)
(495.018 3.00301 -2.14488e-10)
(494.787 2.31276 -1.7641e-11)
(494.571 3.10374 3.15455e-10)
(494.229 2.83555 1.83248e-10)
(494.084 3.04887 -1.39834e-10)
(493.611 3.47376 -1.75975e-10)
(493.575 2.81541 1.04621e-10)
(492.914 4.32024 2.28672e-10)
(496.708 0.0967819 -6.0112e-09)
(496.694 0.347043 1.83001e-09)
(496.671 0.431741 -5.88331e-10)
(496.621 0.723942 3.24219e-11)
(496.572 0.823114 -9.09227e-11)
(496.495 1.07447 -5.92284e-10)
(496.412 1.24081 -4.58871e-10)
(496.316 1.39216 1.95907e-10)
(496.192 1.68374 6.07494e-10)
(496.084 1.67383 6.40221e-10)
(495.916 2.14902 4.58567e-10)
(495.795 1.9216 3.99524e-10)
(495.587 2.62689 1.76858e-10)
(495.448 2.14777 -2.23646e-10)
(495.208 3.09388 -4.05731e-10)
(495.043 2.38647 -2.76213e-10)
(494.785 3.48264 -2.23953e-10)
(494.565 2.75746 -2.32546e-11)
(494.338 3.65117 3.09949e-10)
(494.01 3.32048 1.80745e-10)
(493.859 3.64394 -1.41309e-10)
(493.393 4.00127 -1.76085e-10)
(493.352 3.47203 1.06968e-10)
(492.693 4.88248 2.33772e-10)
(496.41 0.11479 -6.02741e-09)
(496.396 0.392136 1.84052e-09)
(496.374 0.501089 -5.68169e-10)
(496.324 0.825076 3.59714e-11)
(496.276 0.947315 -1.03895e-10)
(496.199 1.23196 -5.89562e-10)
(496.117 1.42 -4.42385e-10)
(496.022 1.60557 1.94908e-10)
(495.899 1.91796 5.89609e-10)
(495.793 1.94213 6.3795e-10)
(495.626 2.43856 4.69547e-10)
(495.506 2.24288 3.93834e-10)
(495.301 2.97255 1.51139e-10)
(495.163 2.5188 -2.32436e-10)
(494.924 3.4977 -3.98812e-10)
(494.763 2.80127 -2.84323e-10)
(494.503 3.95488 -2.20316e-10)
(494.292 3.19976 -6.65749e-12)
(494.059 4.19394 3.13805e-10)
(493.742 3.80094 1.66008e-10)
(493.585 4.23719 -1.41554e-10)
(493.127 4.52399 -1.59983e-10)
(493.083 4.12332 1.04501e-10)
(492.431 5.43751 2.10635e-10)
(496.065 0.132616 -6.04004e-09)
(496.051 0.436673 1.82726e-09)
(496.029 0.569654 -5.90353e-10)
(495.979 0.924982 2.37107e-11)
(495.931 1.07006 -1.04167e-10)
(495.855 1.38752 -5.98131e-10)
(495.775 1.59701 -4.57746e-10)
(495.681 1.81633 1.92053e-10)
(495.559 2.14927 5.96586e-10)
(495.454 2.20714 6.35149e-10)
(495.289 2.72442 4.57819e-10)
(495.171 2.56039 3.92258e-10)
(494.967 3.31373 1.59374e-10)
(494.832 2.88582 -2.31335e-10)
(494.594 3.89609 -4.05675e-10)
(494.436 3.21223 -2.8128e-10)
(494.176 4.41862 -2.24594e-10)
(493.974 3.63908 -1.76797e-11)
(493.735 4.72991 3.10376e-10)
(493.43 4.27466 1.72833e-10)
(493.267 4.82799 -1.43604e-10)
(492.818 5.04206 -1.71075e-10)
(492.77 4.77014 1.06323e-10)
(492.127 5.98592 2.27067e-10)
(495.671 0.150258 -6.02504e-09)
(495.657 0.480664 1.85634e-09)
(495.635 0.637431 -5.71673e-10)
(495.586 1.02368 4.67938e-11)
(495.539 1.19134 -8.5816e-11)
(495.463 1.54117 -5.81386e-10)
(495.384 1.77185 -4.40851e-10)
(495.29 2.02448 2.09761e-10)
(495.17 2.37762 6.15424e-10)
(495.066 2.46882 6.52185e-10)
(494.903 3.00651 4.76265e-10)
(494.787 2.87401 4.08078e-10)
(494.585 3.65033 1.77726e-10)
(494.452 3.24861 -2.18876e-10)
(494.216 4.28895 -3.92188e-10)
(494.062 3.61905 -2.70616e-10)
(493.802 4.87423 -2.1076e-10)
(493.607 4.07463 -6.67017e-12)
(493.364 5.25832 3.24282e-10)
(493.071 4.74198 1.84355e-10)
(492.902 5.41436 -1.31571e-10)
(492.464 5.5537 -1.58935e-10)
(492.412 5.41059 1.15842e-10)
(491.779 6.52598 2.36316e-10)
(495.228 0.16769 -6.04701e-09)
(495.214 0.524056 1.84559e-09)
(495.193 0.704326 -5.81669e-10)
(495.144 1.12106 3.92455e-11)
(495.098 1.31101 -9.30423e-11)
(495.023 1.69276 -5.89757e-10)
(494.944 1.9443 -4.45938e-10)
(494.852 2.22978 2.08365e-10)
(494.734 2.60275 6.14208e-10)
(494.631 2.72689 6.50859e-10)
(494.47 3.28449 4.767e-10)
(494.355 3.1833 4.10547e-10)
(494.155 3.98188 1.80142e-10)
(494.025 3.60658 -2.17399e-10)
(493.791 4.67579 -3.8772e-10)
(493.641 4.02101 -2.64646e-10)
(493.382 5.32159 -2.03251e-10)
(493.194 4.5059 -3.96598e-13)
(492.947 5.77841 3.34765e-10)
(492.666 5.20364 1.9504e-10)
(492.491 5.99331 -1.43368e-10)
(492.066 6.05654 -1.92845e-10)
(492.009 6.04536 8.67354e-11)
(491.386 7.05726 2.05299e-10)
(494.737 0.18489 -6.05664e-09)
(494.723 0.566804 1.84904e-09)
(494.702 0.770261 -5.85322e-10)
(494.653 1.21702 3.37633e-11)
(494.608 1.42895 -9.8434e-11)
(494.534 1.84217 -5.96123e-10)
(494.457 2.11423 -4.54062e-10)
(494.365 2.43212 1.98954e-10)
(494.249 2.82452 6.04865e-10)
(494.147 2.98118 6.41845e-10)
(493.988 3.55815 4.66311e-10)
(493.876 3.48801 4.01281e-10)
(493.678 4.30809 1.68927e-10)
(493.551 3.95931 -2.2739e-10)
(493.318 5.05622 -4.02518e-10)
(493.173 4.41752 -2.78383e-10)
(492.914 5.76076 -2.20332e-10)
(492.733 4.93252 -1.36773e-11)
(492.483 6.28951 3.16349e-10)
(492.214 5.65796 1.765e-10)
(492.034 6.5646 -1.38562e-10)
(491.621 6.55058 -1.63528e-10)
(491.561 6.67239 1.12839e-10)
(490.949 7.57912 2.31927e-10)
(494.197 0.201829 -6.06704e-09)
(494.183 0.608851 1.8494e-09)
(494.162 0.835137 -5.91979e-10)
(494.114 1.31145 2.78198e-11)
(494.07 1.54499 -1.07061e-10)
(493.997 1.98922 -6.08912e-10)
(493.92 2.28143 -4.68627e-10)
(493.831 2.63128 1.82942e-10)
(493.715 3.04268 5.88777e-10)
(493.616 3.23146 6.23638e-10)
(493.458 3.82725 4.40276e-10)
(493.348 3.78785 3.75135e-10)
(493.152 4.62864 1.3576e-10)
(493.029 4.30639 -2.33282e-10)
(492.798 5.4298 -3.78889e-10)
(492.657 4.80788 -2.61071e-10)
(492.4 6.19157 -2.0215e-10)
(492.225 5.35409 -1.19041e-12)
(491.973 6.79097 3.28952e-10)
(491.715 6.10456 1.86745e-10)
(491.531 7.12713 -1.3055e-10)
(491.131 7.03466 -1.58365e-10)
(491.068 7.29077 1.18334e-10)
(490.468 8.09109 2.35236e-10)
(493.608 0.218484 -6.06979e-09)
(493.594 0.650145 1.8746e-09)
(493.574 0.898862 -5.93641e-10)
(493.526 1.40421 8.52744e-12)
(493.483 1.65898 -1.10382e-10)
(493.411 2.13371 -6.00595e-10)
(493.336 2.44568 -4.47673e-10)
(493.247 2.82703 2.20962e-10)
(493.134 3.25699 6.09086e-10)
(493.036 3.47746 6.24765e-10)
(492.881 4.09152 4.53585e-10)
(492.773 4.08255 3.98573e-10)
(492.579 4.94326 1.77742e-10)
(492.458 4.64746 -2.14465e-10)
(492.23 5.79618 -4.12327e-10)
(492.094 5.19158 -3.02029e-10)
(491.838 6.61364 -2.38462e-10)
(491.67 5.77004 -1.969e-11)
(491.416 7.28233 3.23292e-10)
(491.17 6.54293 1.92353e-10)
(490.982 7.68024 -1.43034e-10)
(490.594 7.50779 -1.87202e-10)
(490.529 7.8991 1.01682e-10)
(489.941 8.59263 2.32675e-10)
(492.97 0.234832 -6.09668e-09)
(492.956 0.690635 1.83699e-09)
(492.937 0.961349 -5.8557e-10)
(492.89 1.4952 6.51746e-11)
(492.847 1.77074 -8.5048e-11)
(492.776 2.27545 -5.98428e-10)
(492.702 2.60672 -4.67895e-10)
(492.615 3.01909 1.7585e-10)
(492.504 3.46714 6.07408e-10)
(492.407 3.71888 6.67574e-10)
(492.255 4.35066 4.74712e-10)
(492.149 4.37178 3.92814e-10)
(491.958 5.25164 1.43027e-10)
(491.841 4.98216 -2.3648e-10)
(491.615 6.15502 -3.88541e-10)
(491.483 5.56815 -2.7293e-10)
(491.229 7.02651 -2.28148e-10)
(491.068 6.17962 -3.09328e-11)
(490.813 7.76298 2.82735e-10)
(490.579 6.97274 1.6316e-10)
(490.387 8.2236 -1.30231e-10)
(490.012 7.96917 -1.62941e-10)
(489.944 8.49611 1.02054e-10)
(489.37 9.08321 2.07587e-10)
(492.283 0.25085 -6.09343e-09)
(492.269 0.730276 1.8894e-09)
(492.25 1.02252 -5.93599e-10)
(492.204 1.58428 5.47822e-12)
(492.162 1.88012 -1.1288e-10)
(492.092 2.41423 -5.99752e-10)
(492.02 2.76432 -4.40128e-10)
(491.934 3.20716 2.30056e-10)
(491.825 3.6728 6.12702e-10)
(491.731 3.95536 6.27614e-10)
(491.58 4.60428 4.6086e-10)
(491.477 4.65516 4.06708e-10)
(491.289 5.55343 1.87148e-10)
(491.175 5.31015 -2.40514e-10)
(490.952 6.506 -4.45363e-10)
(490.824 5.93716 -2.98338e-10)
(490.573 7.42982 -2.28411e-10)
(490.419 6.58203 -5.873e-12)
(490.164 8.23214 3.38848e-10)
(489.94 7.39374 1.69582e-10)
(489.745 8.75651 -1.69372e-10)
(489.384 8.41845 -1.76156e-10)
(489.313 9.08123 1.1566e-10)
(488.753 9.56212 2.45387e-10)
(491.546 0.266518 -6.12078e-09)
(491.533 0.769021 1.85551e-09)
(491.514 1.08229 -6.12856e-10)
(491.468 1.67135 1.68205e-12)
(491.427 1.98695 -1.02575e-10)
(491.358 2.54987 -5.74133e-10)
(491.288 2.91822 -4.36737e-10)
(491.204 3.39096 2.12522e-10)
(491.097 3.87363 6.10723e-10)
(491.005 4.1865 6.39903e-10)
(490.857 4.85197 4.50104e-10)
(490.757 4.93225 3.75256e-10)
(490.572 5.84821 1.67423e-10)
(490.461 5.631 -2.1035e-10)
(490.241 6.84877 -3.95167e-10)
(490.118 6.29823 -2.75015e-10)
(489.869 7.82332 -2.24723e-10)
(489.722 6.97642 -2.21133e-11)
(489.467 8.68901 2.96828e-10)
(489.256 7.80558 1.4634e-10)
(489.056 9.27746 -1.81165e-10)
(488.711 8.85633 -1.72932e-10)
(488.635 9.6549 1.33832e-10)
(488.09 10.0281 2.42402e-10)
(490.76 0.281811 -6.12645e-09)
(490.747 0.806818 1.88366e-09)
(490.728 1.14057 -5.80263e-10)
(490.683 1.7563 5.63023e-11)
(490.643 2.09108 -7.96516e-11)
(490.576 2.68216 -5.79617e-10)
(490.507 3.06817 -4.29346e-10)
(490.425 3.57019 2.37675e-10)
(490.32 4.06927 6.52721e-10)
(490.231 4.4119 6.52905e-10)
(490.086 5.0933 4.34568e-10)
(489.989 5.20258 3.71963e-10)
(489.806 6.1355 1.3432e-10)
(489.7 5.94419 -2.62664e-10)
(489.483 7.18289 -4.37767e-10)
(489.365 6.65091 -3.00329e-10)
(489.118 8.20676 -2.41715e-10)
(488.978 7.36204 -2.53747e-11)
(488.724 9.13291 3.10179e-10)
(488.524 8.20797 1.74664e-10)
(488.321 9.78604 -1.37839e-10)
(487.991 9.28234 -1.58628e-10)
(487.911 10.2163 1.22954e-10)
(487.382 10.4806 2.46729e-10)
(489.924 0.296698 -6.14718e-09)
(489.91 0.8436 1.87453e-09)
(489.893 1.19726 -6.02116e-10)
(489.848 1.83897 3.00365e-11)
(489.81 2.19233 -1.12812e-10)
(489.743 2.81088 -6.23991e-10)
(489.677 3.21393 -4.75682e-10)
(489.596 3.74457 1.88656e-10)
(489.494 4.25939 5.957e-10)
(489.407 4.6312 6.2979e-10)
(489.265 5.32782 4.48115e-10)
(489.171 5.46565 3.7656e-10)
(488.992 6.41478 1.29854e-10)
(488.89 6.24918 -2.71481e-10)
(488.676 7.50784 -4.56375e-10)
(488.563 6.99467 -3.2335e-10)
(488.32 8.57968 -2.29037e-10)
(488.186 7.73839 1.5716e-11)
(487.934 9.56341 3.50371e-10)
(487.745 8.6005 2.00876e-10)
(487.54 10.2817 -1.17255e-10)
(487.224 9.6962 -1.47421e-10)
(487.14 10.7648 1.31443e-10)
(486.628 10.9192 2.51259e-10)
(489.037 0.311147 -6.17869e-09)
(489.024 0.879291 1.89007e-09)
(489.007 1.25223 -5.74342e-10)
(488.963 1.9192 3.48916e-11)
(488.926 2.2905 -8.7449e-11)
(488.861 2.93581 -5.7597e-10)
(488.796 3.35521 -4.54492e-10)
(488.718 3.9138 1.85572e-10)
(488.618 4.44366 6.15266e-10)
(488.534 4.84402 6.70026e-10)
(488.395 5.55513 4.62422e-10)
(488.305 5.72099 4.06625e-10)
(488.13 6.68554 1.79646e-10)
(488.031 6.54538 -2.5213e-10)
(487.822 7.82304 -4.11883e-10)
(487.714 7.32886 -2.63861e-10)
(487.474 8.94154 -2.34001e-10)
(487.347 8.1049 -4.65001e-11)
(487.097 9.98009 3.01108e-10)
(486.919 8.98275 1.73799e-10)
(486.711 10.7641 -1.70859e-10)
(486.411 10.0976 -1.75531e-10)
(486.323 11.2997 1.19327e-10)
(485.828 11.3433 2.14962e-10)
(488.1 0.325117 -6.17425e-09)
(488.087 0.9138 1.90631e-09)
(488.071 1.30534 -5.76211e-10)
(488.028 1.99681 6.92064e-11)
(487.992 2.38535 -6.96757e-11)
(487.929 3.0567 -6.1534e-10)
(487.866 3.49175 -5.00998e-10)
(487.79 4.07758 1.7767e-10)
(487.693 4.62175 5.9871e-10)
(487.611 5.05001 6.40138e-10)
(487.476 5.77484 4.6331e-10)
(487.389 5.96817 4.0287e-10)
(487.218 6.9473 1.70206e-10)
(487.124 6.83223 -2.27492e-10)
(486.918 8.12791 -3.9406e-10)
(486.816 7.65281 -2.60008e-10)
(486.58 9.29176 -1.95958e-10)
(486.46 8.46087 -2.1751e-11)
(486.212 10.3826 2.73361e-10)
(486.046 9.35436 1.41364e-10)
(485.836 11.2323 -1.71452e-10)
(485.551 10.4862 -1.88294e-10)
(485.459 11.8206 9.31747e-11)
(484.981 11.7527 2.24125e-10)
(487.113 0.338568 -6.21002e-09)
(487.1 0.947036 1.86384e-09)
(487.084 1.35644 -6.01335e-10)
(487.043 2.0716 6.95671e-11)
(487.008 2.47665 -9.3588e-11)
(486.946 3.17326 -6.17109e-10)
(486.886 3.62324 -4.77999e-10)
(486.812 4.23559 2.22414e-10)
(486.718 4.79333 6.63672e-10)
(486.639 5.24882 6.79571e-10)
(486.507 5.98657 4.78909e-10)
(486.424 6.20679 3.8982e-10)
(486.257 7.19962 1.25829e-10)
(486.168 7.10922 -2.51068e-10)
(485.966 8.42189 -4.00178e-10)
(485.87 7.96587 -2.82225e-10)
(485.638 9.6297 -2.4114e-10)
(485.525 8.80548 -4.30473e-11)
(485.28 10.7706 3.18989e-10)
(485.125 9.71496 1.96866e-10)
(484.914 11.6856 -1.38023e-10)
(484.645 10.8615 -1.79967e-10)
(484.548 12.3269 7.96714e-11)
(484.088 12.1469 2.29217e-10)
(486.075 0.351461 -6.23107e-09)
(486.062 0.978912 1.87012e-09)
(486.047 1.4054 -6.03431e-10)
(486.006 2.14337 7.52637e-11)
(485.973 2.56416 -8.40794e-11)
(485.913 3.28522 -6.13566e-10)
(485.855 3.74937 -4.78785e-10)
(485.784 4.38751 1.73714e-10)
(485.692 4.95805 6.15887e-10)
(485.617 5.4401 6.86317e-10)
(485.489 6.18995 4.90075e-10)
(485.41 6.43647 4.00163e-10)
(485.246 7.44208 1.35989e-10)
(485.162 7.37592 -2.42955e-10)
(484.965 8.7045 -3.90978e-10)
(484.875 8.26745 -2.7801e-10)
(484.647 9.9547 -2.36315e-10)
(484.542 9.13789 -3.38832e-11)
(484.301 11.1437 3.30189e-10)
(484.156 10.0642 2.06018e-10)
(483.944 12.123 -1.28387e-10)
(483.691 11.2231 -1.71341e-10)
(483.591 12.818 9.47651e-11)
(483.149 12.5254 2.02401e-10)
(484.985 0.363766 -6.25768e-09)
(484.973 1.00936 1.91679e-09)
(484.958 1.45209 -5.80228e-10)
(484.919 2.21197 3.19919e-11)
(484.887 2.64766 -1.40345e-10)
(484.829 3.39233 -6.31551e-10)
(484.774 3.86983 -4.53902e-10)
(484.705 4.53299 1.90823e-10)
(484.617 5.11553 6.23223e-10)
(484.545 5.62347 6.78101e-10)
(484.42 6.38459 4.6495e-10)
(484.345 6.65683 4.15889e-10)
(484.186 7.6743 1.94249e-10)
(484.107 7.63191 -2.49022e-10)
(483.915 8.97531 -4.61569e-10)
(483.831 8.55704 -3.0218e-10)
(483.608 10.2663 -2.20549e-10)
(483.511 9.45739 -2.89921e-11)
(483.273 11.5015 3.25752e-10)
(483.139 10.4013 1.92499e-10)
(482.926 12.5435 -1.5521e-10)
(482.69 11.57 -1.57674e-10)
(482.586 13.2931 1.46116e-10)
(482.164 12.8877 2.36291e-10)
(483.845 0.37546 -6.24639e-09)
(483.833 1.03832 1.94712e-09)
(483.819 1.49643 -5.66839e-10)
(483.781 2.27727 4.34762e-11)
(483.751 2.72698 -1.35663e-10)
(483.695 3.49435 -6.33749e-10)
(483.641 3.98435 -4.6e-10)
(483.576 4.67171 2.3553e-10)
(483.491 5.26541 6.63257e-10)
(483.422 5.79854 6.59197e-10)
(483.302 6.57009 4.38808e-10)
(483.231 6.86745 3.85738e-10)
(483.077 7.89588 1.55961e-10)
(483.002 7.8768 -2.40243e-10)
(482.815 9.23392 -4.02188e-10)
(482.737 8.83423 -2.53253e-10)
(482.519 10.564 -2.31777e-10)
(482.43 9.76348 -4.80509e-11)
(482.196 11.8433 2.99062e-10)
(482.073 10.7258 1.64189e-10)
(481.86 12.9464 -1.39472e-10)
(481.641 11.9014 -1.48269e-10)
(481.534 13.7507 1.52084e-10)
(481.131 13.2333 2.36942e-10)
(482.653 0.386528 -6.26158e-09)
(482.642 1.06575 1.92332e-09)
(482.628 1.53835 -6.28324e-10)
(482.591 2.33916 5.5533e-11)
(482.563 2.80198 -1.09271e-10)
(482.509 3.59111 -6.41589e-10)
(482.458 4.09269 -4.44397e-10)
(482.395 4.8034 2.14959e-10)
(482.314 5.40736 6.04821e-10)
(482.249 5.96494 6.77651e-10)
(482.133 6.74604 4.7905e-10)
(482.067 7.06793 3.86589e-10)
(481.917 8.10637 1.78479e-10)
(481.848 8.11017 -2.51886e-10)
(481.666 9.47992 -4.54934e-10)
(481.594 9.0986 -2.84188e-10)
(481.381 10.8474 -2.43322e-10)
(481.3 10.0557 -3.78659e-11)
(481.071 12.1688 3.2888e-10)
(480.958 11.0369 1.59459e-10)
(480.747 13.3312 -1.79824e-10)
(480.544 12.2166 -1.68331e-10)
(480.435 14.1897 9.26764e-11)
(480.052 13.5617 2.02361e-10)
(481.411 0.396959 -6.34131e-09)
(481.399 1.09165 1.9051e-09)
(481.387 1.5778 -6.30763e-10)
(481.351 2.39758 2.60255e-11)
(481.324 2.87257 -1.09541e-10)
(481.272 3.68247 -6.20586e-10)
(481.224 4.19468 -4.56495e-10)
(481.164 4.92782 2.33883e-10)
(481.086 5.54109 6.53004e-10)
(481.025 6.12232 6.91069e-10)
(480.913 6.91203 5.14937e-10)
(480.852 7.25783 3.93036e-10)
(480.707 8.30535 1.49349e-10)
(480.644 8.33158 -2.58741e-10)
(480.467 9.7129 -4.33162e-10)
(480.402 9.34975 -2.89839e-10)
(480.194 11.1162 -2.26102e-10)
(480.121 10.3335 -1.50219e-12)
(479.896 12.4776 3.41886e-10)
(479.794 11.334 1.90046e-10)
(479.584 13.6972 -1.80623e-10)
(479.398 12.5151 -1.9405e-10)
(479.287 14.6095 9.34743e-11)
(478.923 13.8726 2.18678e-10)
(480.117 0.406742 -6.32201e-09)
(480.105 1.11597 1.96488e-09)
(480.094 1.61476 -5.76147e-10)
(480.059 2.45248 3.87244e-11)
(480.034 2.93866 -1.4438e-10)
(479.985 3.76833 -6.52818e-10)
(479.939 4.29017 -4.74679e-10)
(479.882 5.0448 2.29532e-10)
(479.808 5.66637 6.55548e-10)
(479.751 6.27041 7.04875e-10)
(479.643 7.06773 4.80875e-10)
(479.586 7.43677 3.71123e-10)
(479.446 8.49236 1.37323e-10)
(479.389 8.54058 -2.65667e-10)
(479.217 9.93242 -4.28793e-10)
(479.159 9.58724 -2.74063e-10)
(478.957 11.37 -1.96423e-10)
(478.892 10.5965 3.60436e-11)
(478.672 12.7695 3.31354e-10)
(478.581 11.616 1.38064e-10)
(478.374 14.0432 -1.6926e-10)
(478.204 12.7972 -1.73393e-10)
(478.09 15.0111 1.29207e-10)
(477.747 14.1666 2.67304e-10)
(478.771 0.415865 -6.3315e-09)
(478.76 1.13869 1.93968e-09)
(478.749 1.64918 -6.5432e-10)
(478.716 2.50379 3.25901e-11)
(478.693 3.0002 -7.43301e-11)
(478.645 3.84862 -6.18009e-10)
(478.603 4.37909 -4.87582e-10)
(478.548 5.15422 2.31254e-10)
(478.478 5.78305 6.22262e-10)
(478.425 6.40901 6.29795e-10)
(478.322 7.21287 4.82134e-10)
(478.27 7.6044 4.41978e-10)
(478.135 8.66702 1.6192e-10)
(478.083 8.73672 -2.78506e-10)
(477.917 10.138 -4.24232e-10)
(477.866 9.81059 -2.52147e-10)
(477.67 11.6084 -2.21436e-10)
(477.613 10.8444 -2.9033e-11)
(477.399 13.0442 3.4543e-10)
(477.318 11.8822 1.65035e-10)
(477.114 14.3682 -1.88665e-10)
(476.961 13.0628 -1.79087e-10)
(476.844 15.3936 1.41841e-10)
(476.522 14.4425 2.4095e-10)
(477.375 0.424312 -6.41492e-09)
(477.364 1.15977 1.92012e-09)
(477.354 1.681 -6.44752e-10)
(477.321 2.55146 1.99841e-11)
(477.3 3.05711 -1.22814e-10)
(477.255 3.92325 -6.45476e-10)
(477.215 4.46133 -4.76583e-10)
(477.164 5.25599 2.20543e-10)
(477.097 5.89102 6.37342e-10)
(477.047 6.538 6.68453e-10)
(476.949 7.34727 4.89614e-10)
(476.902 7.76052 4.25169e-10)
(476.773 8.829 1.74662e-10)
(476.727 8.91962 -2.4491e-10)
(476.567 10.3292 -4.19378e-10)
(476.523 10.0193 -2.75389e-10)
(476.333 11.8309 -2.15206e-10)
(476.284 11.0767 5.0217e-12)
(476.076 13.3012 3.53438e-10)
(476.005 12.1323 1.98372e-10)
(475.805 14.6715 -1.19655e-10)
(475.669 13.3117 -2.01454e-10)
(475.549 15.7556 8.04143e-11)
(475.249 14.6989 2.13832e-10)
(475.926 0.432066 -6.36364e-09)
(475.915 1.17919 1.99127e-09)
(475.906 1.71016 -6.05062e-10)
(475.875 2.59539 6.002e-11)
(475.856 3.10929 -9.25672e-11)
(475.813 3.99213 -6.22003e-10)
(475.775 4.53681 -4.58956e-10)
(475.727 5.35002 2.35021e-10)
(475.664 5.99019 6.46511e-10)
(475.619 6.65728 6.7075e-10)
(475.525 7.47082 4.84597e-10)
(475.483 7.90499 4.07871e-10)
(475.359 8.97809 1.49129e-10)
(475.319 9.08901 -2.70356e-10)
(475.165 10.5056 -4.59661e-10)
(475.129 10.2129 -3.22798e-10)
(474.944 12.0369 -2.67792e-10)
(474.905 11.2927 1.6979e-11)
(474.702 13.5402 3.55398e-10)
(474.642 12.3658 1.87652e-10)
(474.446 14.9528 -1.3291e-10)
(474.326 13.5431 -1.62691e-10)
(474.205 16.0962 1.19139e-10)
(473.927 14.9357 2.43035e-10)
(474.426 0.439113 -6.40549e-09)
(474.416 1.1969 1.97113e-09)
(474.407 1.73663 -6.45036e-10)
(474.378 2.63553 6.00571e-11)
(474.36 3.15668 -1.0546e-10)
(474.319 4.05516 -6.50933e-10)
(474.285 4.60543 -4.47329e-10)
(474.24 5.43624 2.30451e-10)
(474.18 6.08048 6.30051e-10)
(474.139 6.7668 6.98705e-10)
(474.05 7.58346 4.92443e-10)
(474.013 8.03776 4.02659e-10)
(473.894 9.11419 1.88197e-10)
(473.861 9.24476 -2.53381e-10)
(473.712 10.6669 -4.54965e-10)
(473.683 10.3911 -2.7548e-10)
(473.505 12.226 -2.35264e-10)
(473.474 11.492 -2.9434e-11)
(473.278 13.7607 3.57099e-10)
(473.229 12.5822 1.7643e-10)
(473.037 15.2125 -1.73392e-10)
(472.933 13.757 -1.51445e-10)
(472.81 16.4146 1.2022e-10)
(472.554 15.1527 2.20962e-10)
(472.874 0.445444 -6.48196e-09)
(472.864 1.21289 1.97908e-09)
(472.857 1.76037 -6.09768e-10)
(472.828 2.67184 1.95398e-11)
(472.813 3.19921 -9.96187e-11)
(472.774 4.11229 -6.06204e-10)
(472.742 4.66712 -4.87121e-10)
(472.701 5.51455 2.38848e-10)
(472.645 6.16181 6.78577e-10)
(472.608 6.8665 6.62238e-10)
(472.523 7.68514 5.0034e-10)
(472.491 8.1588 4.54714e-10)
(472.377 9.23728 1.55203e-10)
(472.35 9.38685 -2.48608e-10)
(472.208 10.8131 -4.03006e-10)
(472.186 10.5536 -3.0655e-10)
(472.014 12.3978 -2.29128e-10)
(471.993 11.6739 1.88163e-11)
(471.802 13.962 3.2483e-10)
(471.764 12.7805 1.82627e-10)
(471.578 15.4505 -1.20048e-10)
(471.488 13.9542 -1.8095e-10)
(471.364 16.7099 1.27643e-10)
(471.132 15.3489 2.68893e-10)
(471.271 0.45106 -6.47034e-09)
(471.261 1.22715 2.02468e-09)
(471.254 1.78138 -5.80211e-10)
(471.227 2.7043 5.4881e-11)
(471.214 3.23686 -1.3886e-10)
(471.177 4.16346 -6.49785e-10)
(471.148 4.72182 -4.55471e-10)
(471.109 5.58488 2.67561e-10)
(471.057 6.2341 7.08188e-10)
(471.024 6.95629 6.97873e-10)
(470.944 7.77577 4.61475e-10)
(470.917 8.26808 4.10732e-10)
(470.809 9.34733 1.82285e-10)
(470.788 9.51529 -2.24568e-10)
(470.651 10.9441 -3.84151e-10)
(470.637 10.7005 -2.88608e-10)
(470.472 12.5523 -2.7811e-10)
(470.459 11.8382 -2.34632e-11)
(470.275 14.1437 3.40296e-10)
(470.249 12.9598 1.9517e-10)
(470.067 15.6666 -9.99794e-11)
(469.993 14.1347 -1.69817e-10)
(469.868 16.9814 7.3685e-11)
(469.658 15.524 2.21997e-10)
(469.616 0.455968 -6.55631e-09)
(469.606 1.23972 1.95844e-09)
(469.6 1.79968 -6.67547e-10)
(469.574 2.73293 5.89366e-12)
(469.562 3.26967 -1.39551e-10)
(469.528 4.20871 -6.73274e-10)
(469.502 4.76952 -5.03236e-10)
(469.466 5.6472 2.01078e-10)
(469.418 6.29729 6.23837e-10)
(469.389 7.03609 6.53285e-10)
(469.314 7.85527 4.62857e-10)
(469.292 8.36551 3.92103e-10)
(469.189 9.44426 1.34518e-10)
(469.174 9.63009 -2.90761e-10)
(469.043 11.06 -4.75693e-10)
(469.037 10.8319 -3.27341e-10)
(468.878 12.6894 -2.71843e-10)
(468.874 11.985 -4.17039e-11)
(468.696 14.3056 3.0003e-10)
(468.681 13.1198 1.4081e-10)
(468.505 15.8601 -1.91707e-10)
(468.446 14.2979 -2.06609e-10)
(468.321 17.2288 8.12711e-11)
(468.134 15.6776 2.10847e-10)
(467.909 0.460179 -6.51788e-09)
(467.899 1.2506 2.00581e-09)
(467.894 1.81532 -6.57489e-10)
(467.869 2.75779 7.05967e-11)
(467.859 3.29767 -1.00053e-10)
(467.827 4.24806 -6.54912e-10)
(467.804 4.81027 -4.3692e-10)
(467.771 5.70154 2.51457e-10)
(467.727 6.35137 6.54061e-10)
(467.702 7.10586 7.30817e-10)
(467.631 7.92356 5.19569e-10)
(467.614 8.45098 4.20091e-10)
(467.517 9.52796 2.11041e-10)
(467.508 9.73116 -2.39815e-10)
(467.384 11.1607 -4.42405e-10)
(467.384 10.9479 -3.15165e-10)
(467.231 12.8093 -2.79646e-10)
(467.237 12.1143 -3.52924e-12)
(467.065 14.4478 3.23343e-10)
(467.061 13.2603 1.41251e-10)
(466.891 16.0306 -1.42682e-10)
(466.846 14.4426 -1.82726e-10)
(466.723 17.4507 8.19461e-11)
(466.559 15.8096 2.54971e-10)
(466.149 0.463704 -6.53843e-09)
(466.14 1.25983 2.02261e-09)
(466.136 1.82835 -6.53967e-10)
(466.112 2.77894 7.8334e-11)
(466.104 3.32096 -9.38143e-11)
(466.074 4.28161 -6.50668e-10)
(466.053 4.84413 -4.31162e-10)
(466.024 5.74796 2.60472e-10)
(465.983 6.39638 6.63836e-10)
(465.962 7.16561 6.71459e-10)
(465.896 7.98059 4.58467e-10)
(465.885 8.52443 4.34955e-10)
(465.793 9.5983 1.55077e-10)
(465.79 9.81834 -2.9449e-10)
(465.671 11.2461 -4.30172e-10)
(465.68 11.0482 -3.02941e-10)
(465.533 12.9119 -2.66417e-10)
(465.548 12.2264 9.77789e-12)
(465.382 14.5707 3.39881e-10)
(465.389 13.3815 1.5422e-10)
(465.225 16.1787 -1.29321e-10)
(465.194 14.5674 -1.71186e-10)
(465.073 17.6458 1.0377e-10)
(464.932 15.9202 2.74871e-10)
(464.338 0.466556 -6.58516e-09)
(464.329 1.26744 2.0785e-09)
(464.326 1.8388 -6.297e-10)
(464.303 2.79643 1.99531e-11)
(464.297 3.33959 -9.46128e-11)
(464.269 4.30944 -5.95682e-10)
(464.251 4.87122 -4.59838e-10)
(464.225 5.78655 2.1278e-10)
(464.187 6.43242 6.73836e-10)
(464.171 7.21542 7.37034e-10)
(464.109 8.02641 5.0936e-10)
(464.102 8.58584 4.01909e-10)
(464.016 9.65519 1.76518e-10)
(464.02 9.89152 -2.21929e-10)
(463.907 11.3159 -4.46092e-10)
(463.923 11.1329 -3.30143e-10)
(463.783 12.9971 -2.38365e-10)
(463.806 12.3213 2.32895e-11)
(463.647 14.6742 3.42135e-10)
(463.664 13.4838 1.41985e-10)
(463.506 16.3051 -1.59525e-10)
(463.489 14.6715 -1.52947e-10)
(463.372 17.8124 1.11852e-10)
(463.254 16.009 2.06983e-10)
(462.475 0.468739 -6.64129e-09)
(462.466 1.27343 2.01717e-09)
(462.463 1.8467 -6.66366e-10)
(462.442 2.8103 5.04129e-12)
(462.437 3.35362 -1.57285e-10)
(462.411 4.3316 -7.07545e-10)
(462.396 4.8916 -4.68164e-10)
(462.373 5.81741 3.07937e-10)
(462.339 6.45957 7.26374e-10)
(462.326 7.25538 7.46999e-10)
(462.269 8.0611 5.39543e-10)
(462.267 8.63528 4.51755e-10)
(462.186 9.69864 1.83974e-10)
(462.197 9.95064 -2.57317e-10)
(462.09 11.3701 -4.55064e-10)
(462.114 11.2016 -3.17632e-10)
(461.979 13.0645 -2.68374e-10)
(462.012 12.3985 -4.17724e-11)
(461.859 14.7582 2.92533e-10)
(461.888 13.5672 1.23031e-10)
(461.735 16.4098 -1.53454e-10)
(461.731 14.7557 -1.21516e-10)
(461.617 17.9507 1.71864e-10)
(461.522 16.0754 2.84007e-10)
(460.558 0.470254 -6.69817e-09)
(460.55 1.27782 2.03429e-09)
(460.548 1.85207 -6.35073e-10)
(460.528 2.82055 -2.20395e-12)
(460.525 3.36308 -1.37636e-10)
(460.5 4.34813 -6.5887e-10)
(460.488 4.90531 -4.6251e-10)
(460.468 5.8406 2.74059e-10)
(460.438 6.47791 6.44625e-10)
(460.429 7.2856 6.92844e-10)
(460.376 8.08475 5.19904e-10)
(460.38 8.67286 3.90143e-10)
(460.304 9.72873 1.4789e-10)
(460.32 9.99576 -2.65671e-10)
(460.219 11.4084 -4.35104e-10)
(460.251 11.2542 -2.71258e-10)
(460.123 13.1139 -2.61692e-10)
(460.166 12.4578 -8.41011e-12)
(460.019 14.8222 3.61266e-10)
(460.059 13.6314 1.36189e-10)
(459.912 16.493 -1.84783e-10)
(459.922 14.8203 -1.79658e-10)
(459.811 18.0614 1.35276e-10)
(459.737 16.12 2.72195e-10)
(458.589 0.471098 -6.65728e-09)
(458.581 1.28059 2.06763e-09)
(458.58 1.85489 -6.58619e-10)
(458.561 2.82719 1.29127e-11)
(458.559 3.36795 -1.5238e-10)
(458.537 4.35904 -6.39439e-10)
(458.528 4.91238 -4.85059e-10)