/*--------------------------------*- C++ -*----------------------------------*\
  =========                 |
  \\      /  F ield         | OpenFOAM: The Open Source CFD Toolbox
   \\    /   O peration     | Website:  https://openfoam.org
    \\  /    A nd           | Version:  10
     \\/     M anipulation  |
\*---------------------------------------------------------------------------*/
FoamFile
{
    format      ascii;
    class       volScalarField;
    location    "0.17";
    object      Ma;
}
// * * * * * * * * * * * * * * * * * * * * * * * * * * * * * * * * * * * * * //

dimensions      [0 0 0 0 0 0 0];

internalField   nonuniform List<scalar> 
4176
(
1.84502
1.84495
1.84475
1.84451
1.84409
1.84372
1.84307
1.84256
1.84168
1.84105
1.83995
1.83919
1.83788
1.83697
1.83551
1.83437
1.83291
1.83137
1.83005
1.82794
1.82699
1.82406
1.82388
1.82007
1.84491
1.84483
1.84463
1.84438
1.84396
1.84357
1.84292
1.84238
1.8415
1.84084
1.83972
1.83893
1.8376
1.83666
1.83517
1.834
1.8325
1.83093
1.82958
1.82743
1.82647
1.82342
1.82319
1.81901
1.84456
1.84448
1.84429
1.84404
1.84364
1.84324
1.84262
1.84209
1.84124
1.84058
1.8395
1.83872
1.83742
1.8365
1.83503
1.83391
1.83242
1.8309
1.82957
1.82748
1.82657
1.82358
1.82335
1.81904
1.84391
1.84383
1.84364
1.8434
1.84299
1.8426
1.84197
1.84144
1.84059
1.83994
1.83885
1.83808
1.83677
1.83587
1.83438
1.83327
1.83176
1.83021
1.82895
1.82679
1.82592
1.82297
1.82278
1.81866
1.84297
1.84289
1.8427
1.84246
1.84206
1.84167
1.84106
1.84053
1.83969
1.83905
1.83797
1.83721
1.83591
1.83503
1.83355
1.83246
1.83094
1.82942
1.82819
1.82601
1.82516
1.82224
1.82204
1.81806
1.84172
1.84164
1.84146
1.84122
1.84082
1.84043
1.83983
1.83931
1.83848
1.83783
1.83677
1.83602
1.83473
1.83385
1.83238
1.83132
1.82977
1.82832
1.82702
1.82491
1.82403
1.82115
1.82091
1.81693
1.84017
1.8401
1.83991
1.83967
1.83929
1.8389
1.83831
1.83779
1.83697
1.83633
1.83529
1.83454
1.83327
1.8324
1.83095
1.8299
1.82835
1.82697
1.82561
1.82358
1.82267
1.81983
1.81957
1.81561
1.83833
1.83825
1.83807
1.83783
1.83745
1.83707
1.83648
1.83597
1.83517
1.83453
1.8335
1.83276
1.83151
1.83065
1.82921
1.82819
1.82664
1.82531
1.82392
1.82196
1.82102
1.81823
1.81795
1.81405
1.83618
1.83611
1.83593
1.8357
1.83532
1.83494
1.83436
1.83386
1.83307
1.83244
1.83143
1.8307
1.82946
1.82862
1.8272
1.82619
1.82465
1.82337
1.82196
1.82007
1.8191
1.81637
1.81607
1.81223
1.83374
1.83367
1.83349
1.83326
1.83289
1.83252
1.83195
1.83145
1.83067
1.83005
1.82906
1.82834
1.82712
1.82629
1.82489
1.82391
1.82238
1.82114
1.81972
1.81789
1.8169
1.81424
1.81392
1.81015
1.831
1.83093
1.83076
1.83053
1.83016
1.8298
1.82924
1.82875
1.82798
1.82738
1.82639
1.82569
1.82449
1.82368
1.8223
1.82134
1.81983
1.81862
1.8172
1.81544
1.81444
1.81184
1.81151
1.80781
1.82797
1.8279
1.82773
1.8275
1.82714
1.82679
1.82623
1.82575
1.825
1.82441
1.82344
1.82275
1.82157
1.82078
1.81942
1.81848
1.81699
1.81583
1.8144
1.81271
1.81168
1.80917
1.80883
1.8052
1.82464
1.82457
1.8244
1.82419
1.82383
1.82348
1.82294
1.82247
1.82173
1.82115
1.8202
1.81953
1.81837
1.8176
1.81626
1.81535
1.81388
1.81275
1.81133
1.8097
1.80867
1.80623
1.80588
1.80233
1.82102
1.82095
1.82079
1.82058
1.82023
1.81989
1.81935
1.8189
1.81817
1.8176
1.81667
1.81601
1.81488
1.81413
1.81281
1.81193
1.81048
1.80939
1.80798
1.80642
1.80538
1.80302
1.80267
1.79919
1.81711
1.81704
1.81688
1.81667
1.81633
1.816
1.81548
1.81503
1.81432
1.81377
1.81286
1.81222
1.81111
1.81038
1.80909
1.80823
1.80681
1.80576
1.80436
1.80286
1.80182
1.79953
1.79918
1.79579
1.81291
1.81284
1.81268
1.81248
1.81215
1.81182
1.81131
1.81088
1.81019
1.80965
1.80876
1.80814
1.80705
1.80634
1.80508
1.80425
1.80286
1.80185
1.80047
1.79903
1.79799
1.79578
1.79543
1.79212
1.80842
1.80835
1.8082
1.808
1.80767
1.80736
1.80686
1.80644
1.80576
1.80525
1.80438
1.80378
1.80272
1.80203
1.8008
1.8
1.79864
1.79766
1.7963
1.79493
1.79389
1.79176
1.79141
1.78819
1.80364
1.80357
1.80342
1.80323
1.80291
1.80261
1.80212
1.80172
1.80106
1.80056
1.79971
1.79914
1.7981
1.79744
1.79624
1.79547
1.79414
1.7932
1.79187
1.79056
1.78952
1.78748
1.78712
1.784
1.79857
1.7985
1.79836
1.79817
1.79787
1.79757
1.7971
1.79671
1.79607
1.79559
1.79477
1.79421
1.79321
1.79258
1.7914
1.79067
1.78937
1.78847
1.78717
1.78592
1.78489
1.78293
1.78257
1.77954
1.79321
1.79315
1.79301
1.79283
1.79253
1.79225
1.7918
1.79142
1.7908
1.79034
1.78954
1.78901
1.78803
1.78743
1.78629
1.7856
1.78433
1.78348
1.7822
1.78101
1.77999
1.77812
1.77776
1.77483
1.78757
1.78751
1.78738
1.7872
1.78692
1.78665
1.78621
1.78585
1.78525
1.78481
1.78404
1.78353
1.78259
1.78202
1.78091
1.78025
1.77902
1.77821
1.77696
1.77584
1.77484
1.77305
1.77269
1.76985
1.78165
1.78159
1.78146
1.7813
1.78102
1.78076
1.78034
1.78
1.77942
1.779
1.77826
1.77778
1.77687
1.77633
1.77526
1.77463
1.77344
1.77267
1.77146
1.7704
1.76941
1.76771
1.76735
1.76462
1.77545
1.77539
1.77527
1.77511
1.77485
1.7746
1.77419
1.77387
1.77332
1.77292
1.7722
1.77176
1.77087
1.77037
1.76933
1.76875
1.76759
1.76687
1.7657
1.7647
1.76373
1.76212
1.76176
1.75913
1.76897
1.76892
1.7688
1.76865
1.76839
1.76816
1.76777
1.76747
1.76694
1.76657
1.76588
1.76546
1.76461
1.76414
1.76314
1.76259
1.76148
1.76081
1.75968
1.75874
1.75779
1.75627
1.75592
1.75339
1.76222
1.76217
1.76205
1.76191
1.76167
1.76145
1.76108
1.7608
1.76029
1.75994
1.75928
1.75889
1.75808
1.75764
1.75668
1.75618
1.75511
1.75448
1.75339
1.75251
1.75159
1.75015
1.74982
1.7474
1.7552
1.75514
1.75503
1.7549
1.75467
1.75447
1.75412
1.75385
1.75337
1.75305
1.75242
1.75206
1.75128
1.75088
1.74996
1.74949
1.74847
1.74789
1.74684
1.74602
1.74513
1.74378
1.74346
1.74114
1.7479
1.74785
1.74775
1.74762
1.74741
1.74722
1.74688
1.74664
1.74618
1.74589
1.74529
1.74496
1.74422
1.74385
1.74297
1.74255
1.74157
1.74104
1.74003
1.73927
1.73842
1.73715
1.73685
1.73464
1.74035
1.7403
1.7402
1.74008
1.73988
1.7397
1.73939
1.73917
1.73873
1.73846
1.7379
1.7376
1.73689
1.73656
1.73572
1.73535
1.73441
1.73393
1.73296
1.73226
1.73145
1.73027
1.72998
1.72788
1.73253
1.73248
1.73239
1.73228
1.73209
1.73193
1.73163
1.73143
1.73102
1.73078
1.73024
1.72998
1.72931
1.72902
1.72822
1.72789
1.72699
1.72656
1.72564
1.725
1.72423
1.72314
1.72286
1.72087
1.72445
1.72441
1.72432
1.72422
1.72404
1.7239
1.72362
1.72344
1.72305
1.72284
1.72233
1.7221
1.72147
1.72122
1.72046
1.72017
1.71932
1.71894
1.71807
1.71749
1.71675
1.71575
1.7155
1.7136
1.71613
1.71608
1.716
1.71591
1.71574
1.71561
1.71535
1.71519
1.71483
1.71464
1.71417
1.71397
1.71337
1.71316
1.71244
1.7122
1.71139
1.71107
1.71024
1.70972
1.70903
1.70811
1.70788
1.7061
1.70755
1.7075
1.70743
1.70735
1.70719
1.70708
1.70683
1.70669
1.70635
1.7062
1.70575
1.70559
1.70502
1.70485
1.70417
1.70398
1.70322
1.70294
1.70217
1.70171
1.70106
1.70022
1.70001
1.69834
1.69872
1.69868
1.69861
1.69854
1.69839
1.69829
1.69807
1.69795
1.69764
1.6975
1.69709
1.69695
1.69643
1.69629
1.69566
1.6955
1.69479
1.69457
1.69384
1.69345
1.69284
1.69208
1.69189
1.69034
1.68966
1.68962
1.68955
1.68949
1.68936
1.68927
1.68906
1.68896
1.68867
1.68857
1.68818
1.68808
1.68759
1.68749
1.68689
1.68679
1.68612
1.68595
1.68527
1.68493
1.68438
1.6837
1.68353
1.68209
1.68035
1.68031
1.68026
1.6802
1.68008
1.68001
1.67982
1.67974
1.67947
1.67939
1.67903
1.67896
1.6785
1.67845
1.67789
1.67782
1.6772
1.67708
1.67645
1.67618
1.67567
1.67506
1.67492
1.6736
1.67082
1.67078
1.67073
1.67068
1.67057
1.67051
1.67034
1.67028
1.67003
1.66998
1.66965
1.66961
1.66919
1.66916
1.66864
1.66863
1.66804
1.66797
1.66739
1.66717
1.66672
1.66618
1.66607
1.66486
1.66105
1.66101
1.66097
1.66092
1.66083
1.66078
1.66062
1.66058
1.66036
1.66033
1.66003
1.66002
1.65963
1.65965
1.65917
1.65919
1.65865
1.65863
1.65809
1.65793
1.65752
1.65706
1.65699
1.65589
1.65106
1.65102
1.65098
1.65094
1.65086
1.65082
1.65069
1.65066
1.65046
1.65045
1.65018
1.6502
1.64985
1.6499
1.64945
1.64952
1.64902
1.64905
1.64855
1.64846
1.64809
1.6477
1.64766
1.64668
1.64084
1.64081
1.64077
1.64074
1.64067
1.64064
1.64052
1.64051
1.64034
1.64035
1.64011
1.64016
1.63983
1.63992
1.63951
1.63962
1.63916
1.63925
1.63879
1.63875
1.63843
1.63811
1.63811
1.63723
1.63041
1.63038
1.63035
1.63032
1.63026
1.63024
1.63014
1.63015
1.62999
1.63003
1.62981
1.62989
1.62959
1.62972
1.62935
1.6295
1.62908
1.62921
1.6288
1.62882
1.62854
1.62829
1.62832
1.62755
1.61976
1.61973
1.6197
1.61968
1.61963
1.61963
1.61954
1.61956
1.61943
1.61949
1.61929
1.6194
1.61914
1.61929
1.61896
1.61915
1.61877
1.61895
1.61858
1.61866
1.61842
1.61824
1.61831
1.61763
1.6089
1.60887
1.60885
1.60883
1.60879
1.6088
1.60872
1.60877
1.60865
1.60873
1.60856
1.6087
1.60846
1.60865
1.60835
1.60859
1.60824
1.60847
1.60814
1.60828
1.60808
1.60798
1.60808
1.60748
1.59783
1.5978
1.59778
1.59778
1.59774
1.59776
1.5977
1.59776
1.59766
1.59777
1.59762
1.59778
1.59758
1.5978
1.59753
1.59781
1.59749
1.59778
1.59748
1.59769
1.59751
1.59749
1.59762
1.59712
1.58655
1.58653
1.58651
1.58651
1.58648
1.58652
1.58647
1.58655
1.58647
1.58659
1.58647
1.58666
1.58648
1.58674
1.5865
1.58681
1.58653
1.58687
1.5866
1.58687
1.58673
1.58678
1.58694
1.58654
1.57507
1.57505
1.57504
1.57504
1.57503
1.57507
1.57504
1.57513
1.57507
1.57522
1.57512
1.57533
1.57518
1.57547
1.57526
1.57562
1.57537
1.57575
1.57552
1.57585
1.57573
1.57586
1.57604
1.57574
1.5634
1.56337
1.56337
1.56338
1.56337
1.56343
1.56341
1.56351
1.56348
1.56364
1.56357
1.56381
1.56368
1.564
1.56383
1.56422
1.564
1.56444
1.56423
1.56462
1.56452
1.56473
1.56493
1.56473
1.55153
1.5515
1.5515
1.55152
1.55152
1.55159
1.55158
1.5517
1.55169
1.55187
1.55182
1.55208
1.55199
1.55234
1.55219
1.55262
1.55244
1.55292
1.55274
1.55319
1.55311
1.55341
1.5536
1.55352
1.53947
1.53945
1.53945
1.53947
1.53948
1.53956
1.53957
1.5397
1.5397
1.53991
1.53988
1.54017
1.5401
1.54048
1.54036
1.54083
1.54067
1.54121
1.54105
1.54157
1.54151
1.54189
1.54208
1.5421
1.52722
1.5272
1.52721
1.52724
1.52726
1.52734
1.52737
1.52752
1.52754
1.52776
1.52776
1.52807
1.52802
1.52844
1.52835
1.52885
1.52872
1.5293
1.52917
1.52976
1.52971
1.53017
1.53036
1.53049
1.5148
1.51478
1.51479
1.51483
1.51486
1.51495
1.51499
1.51515
1.51519
1.51543
1.51545
1.51579
1.51577
1.51621
1.51614
1.51669
1.51658
1.51721
1.5171
1.51775
1.51771
1.51827
1.51845
1.51868
1.50221
1.50219
1.5022
1.50224
1.50228
1.50238
1.50244
1.50261
1.50267
1.50293
1.50297
1.50333
1.50333
1.5038
1.50376
1.50435
1.50426
1.50494
1.50484
1.50557
1.50552
1.50618
1.50635
1.50667
1.48945
1.48943
1.48945
1.48949
1.48954
1.48965
1.48972
1.4899
1.48997
1.49025
1.49031
1.49069
1.49072
1.49122
1.4912
1.49183
1.49176
1.4925
1.4924
1.4932
1.49315
1.49389
1.49407
1.49448
1.47653
1.47651
1.47653
1.47658
1.47664
1.47675
1.47683
1.47703
1.47712
1.47741
1.47749
1.4779
1.47794
1.47848
1.47847
1.47914
1.47908
1.47988
1.47978
1.48067
1.48061
1.48143
1.48161
1.48211
1.46345
1.46344
1.46346
1.46352
1.46358
1.4637
1.46379
1.46401
1.46411
1.46442
1.46451
1.46494
1.465
1.46557
1.46557
1.46629
1.46623
1.4671
1.46699
1.46795
1.4679
1.46878
1.46898
1.46956
1.45023
1.45022
1.45025
1.4503
1.45037
1.45051
1.45061
1.45083
1.45094
1.45127
1.45137
1.45183
1.4519
1.45251
1.45251
1.45329
1.45322
1.45416
1.45404
1.45506
1.45502
1.45597
1.45618
1.45683
1.43688
1.43686
1.43689
1.43695
1.43703
1.43717
1.43728
1.43751
1.43764
1.43798
1.43809
1.43858
1.43864
1.43931
1.43929
1.44014
1.44005
1.44104
1.44095
1.442
1.44199
1.44298
1.4432
1.44393
1.42339
1.42338
1.42341
1.42347
1.42355
1.4237
1.42382
1.42406
1.42419
1.42456
1.42467
1.4252
1.42524
1.42595
1.42594
1.42682
1.42675
1.42777
1.4277
1.42879
1.4288
1.42984
1.43007
1.43087
1.40978
1.40976
1.4098
1.40986
1.40995
1.4101
1.41023
1.41048
1.41061
1.41101
1.41111
1.41167
1.41172
1.41246
1.41245
1.41335
1.41331
1.41435
1.4143
1.41542
1.41545
1.41653
1.41677
1.41764
1.39605
1.39603
1.39608
1.39614
1.39624
1.39638
1.39652
1.39678
1.39691
1.39733
1.39743
1.39801
1.39807
1.39882
1.39883
1.39975
1.39973
1.40079
1.40076
1.40191
1.40195
1.40308
1.40333
1.40426
1.38221
1.38219
1.38224
1.3823
1.38241
1.38255
1.3827
1.38296
1.38311
1.38352
1.38364
1.38422
1.3843
1.38506
1.38509
1.38602
1.38601
1.38709
1.38709
1.38826
1.38832
1.38948
1.38974
1.39073
1.36827
1.36825
1.3683
1.36836
1.36847
1.36861
1.36877
1.36902
1.36919
1.3696
1.36973
1.37032
1.37041
1.37117
1.37123
1.37216
1.37218
1.37327
1.37328
1.37447
1.37455
1.37575
1.37601
1.37705
1.35423
1.35421
1.35425
1.35432
1.35443
1.35457
1.35474
1.35498
1.35518
1.35556
1.35573
1.3563
1.35641
1.35718
1.35725
1.35819
1.35822
1.35932
1.35935
1.36056
1.36065
1.36189
1.36215
1.36324
1.34009
1.34007
1.34011
1.34018
1.34029
1.34044
1.34061
1.34085
1.34106
1.34143
1.34162
1.34218
1.34231
1.34308
1.34316
1.3441
1.34415
1.34526
1.3453
1.34654
1.34664
1.3479
1.34817
1.3493
1.32586
1.32584
1.32588
1.32595
1.32606
1.32621
1.32638
1.32662
1.32684
1.3272
1.32741
1.32795
1.32811
1.32886
1.32897
1.32991
1.32997
1.3311
1.33115
1.3324
1.33251
1.33379
1.33407
1.33525
1.31153
1.31152
1.31156
1.31162
1.31173
1.31188
1.31206
1.3123
1.31252
1.31288
1.3131
1.31364
1.31382
1.31456
1.31468
1.31563
1.3157
1.31683
1.31689
1.31816
1.31828
1.31958
1.31986
1.32108
1.29712
1.2971
1.29714
1.29721
1.29732
1.29747
1.29765
1.29788
1.29812
1.29847
1.29871
1.29923
1.29943
1.30017
1.3003
1.30125
1.30134
1.30247
1.30255
1.30382
1.30395
1.30528
1.30556
1.3068
1.28262
1.2826
1.28264
1.28271
1.28282
1.28297
1.28315
1.28339
1.28362
1.28397
1.28423
1.28475
1.28496
1.2857
1.28584
1.28679
1.28689
1.28804
1.28812
1.2894
1.28954
1.29088
1.29116
1.29244
1.26802
1.268
1.26805
1.26811
1.26823
1.26838
1.26856
1.2688
1.26905
1.26939
1.26967
1.27018
1.27041
1.27114
1.2713
1.27226
1.27237
1.27351
1.27361
1.2749
1.27504
1.2764
1.27668
1.27798
1.25334
1.25332
1.25337
1.25343
1.25355
1.25371
1.2539
1.25414
1.25439
1.25474
1.25503
1.25553
1.25579
1.25652
1.25669
1.25766
1.25777
1.25892
1.25903
1.26032
1.26048
1.26184
1.26213
1.26345
1.23858
1.23856
1.23861
1.23867
1.2388
1.23896
1.23915
1.2394
1.23967
1.24002
1.24033
1.24082
1.2411
1.24182
1.24201
1.24298
1.2431
1.24427
1.24438
1.24568
1.24584
1.24721
1.2475
1.24883
1.22374
1.22372
1.22377
1.22385
1.22398
1.22414
1.22435
1.2246
1.22488
1.22523
1.22556
1.22605
1.22636
1.22706
1.22728
1.22824
1.22838
1.22955
1.22967
1.23097
1.23114
1.23251
1.2328
1.23415
1.20886
1.20884
1.20889
1.20897
1.2091
1.20927
1.20948
1.20975
1.21003
1.21039
1.21074
1.21122
1.21156
1.21225
1.2125
1.21344
1.2136
1.21477
1.21489
1.21619
1.21637
1.21774
1.21803
1.21939
1.19395
1.19393
1.19398
1.19406
1.1942
1.19437
1.19459
1.19486
1.19515
1.19552
1.19587
1.19635
1.19671
1.19738
1.19767
1.19858
1.19877
1.19992
1.20006
1.20135
1.20153
1.20291
1.20319
1.20455
1.17906
1.17903
1.17908
1.17917
1.1793
1.17947
1.17968
1.17995
1.18024
1.18061
1.18096
1.18144
1.18181
1.18246
1.18278
1.18366
1.18389
1.185
1.18516
1.18644
1.18662
1.18799
1.18827
1.18964
1.1642
1.16418
1.16422
1.1643
1.16442
1.16459
1.16479
1.16505
1.16533
1.16569
1.16603
1.1665
1.16687
1.1675
1.16784
1.16868
1.16894
1.17001
1.17019
1.17146
1.17164
1.173
1.17327
1.17464
1.14941
1.14939
1.14942
1.14949
1.1496
1.14975
1.14994
1.15018
1.15044
1.15076
1.15109
1.15153
1.15189
1.15249
1.15283
1.15363
1.15391
1.15495
1.15514
1.15639
1.15656
1.15792
1.15818
1.15954
1.13469
1.13466
1.13468
1.13473
1.13483
1.13496
1.13512
1.13533
1.13556
1.13585
1.13615
1.13655
1.13689
1.13745
1.13777
1.13853
1.13881
1.1398
1.14
1.14122
1.14139
1.14275
1.14299
1.14435
1.11999
1.11995
1.11997
1.12001
1.12008
1.12018
1.12032
1.12049
1.12069
1.12095
1.12121
1.12156
1.12186
1.12237
1.12266
1.12337
1.12363
1.12456
1.12476
1.12595
1.1261
1.12746
1.12769
1.12906
1.10525
1.1052
1.10521
1.10524
1.10529
1.10538
1.10549
1.10563
1.1058
1.10602
1.10624
1.10655
1.10681
1.10727
1.10752
1.10818
1.10838
1.10928
1.10943
1.11058
1.11069
1.11204
1.11225
1.11364
1.09035
1.0903
1.09032
1.09032
1.09038
1.09044
1.09055
1.09066
1.09083
1.091
1.09121
1.09148
1.09172
1.09213
1.09232
1.09297
1.09307
1.09399
1.09401
1.09518
1.0952
1.09652
1.09669
1.09804
1.07518
1.07512
1.07514
1.07514
1.0752
1.07526
1.07538
1.07549
1.07565
1.07583
1.07603
1.07629
1.07651
1.0769
1.07706
1.07771
1.07773
1.07868
1.07859
1.07976
1.07969
1.08098
1.08107
1.08233
1.05957
1.05952
1.05953
1.05956
1.05962
1.05971
1.05983
1.05998
1.06015
1.06036
1.06058
1.06086
1.06111
1.06149
1.0617
1.06231
1.06236
1.06327
1.06318
1.06433
1.0642
1.06549
1.0655
1.0667
1.0434
1.04336
1.04338
1.04343
1.04352
1.04364
1.04379
1.04399
1.04421
1.04447
1.04474
1.04507
1.04538
1.0458
1.0461
1.04669
1.04685
1.04772
1.04769
1.04886
1.0487
1.05004
1.04999
1.05121
1.0266
1.02656
1.0266
1.02666
1.02678
1.02694
1.02715
1.0274
1.02768
1.02801
1.02837
1.02878
1.02918
1.02969
1.03009
1.03075
1.03103
1.03195
1.032
1.03326
1.03311
1.03455
1.03446
1.03577
1.00912
1.00907
1.00913
1.00921
1.00937
1.00957
1.00983
1.01013
1.0105
1.01089
1.01136
1.01184
1.01238
1.01298
1.01352
1.0143
1.01472
1.01579
1.01596
1.01737
1.01729
1.01889
1.01881
1.02029
0.990973
0.990927
0.991001
0.991099
0.991284
0.991515
0.991821
0.992171
0.992605
0.993066
0.993619
0.9942
0.994845
0.995567
0.996258
0.997156
0.997773
0.999005
0.999346
1.00097
1.00104
1.00289
1.00287
1.00464
0.972233
0.972193
0.972265
0.972385
0.972579
0.972844
0.973171
0.973571
0.974035
0.974569
0.975166
0.975841
0.976558
0.977385
0.978201
0.979198
0.980046
0.981332
0.982012
0.983734
0.984109
0.986244
0.98639
0.988585
0.953001
0.952965
0.953035
0.953165
0.953366
0.953644
0.953986
0.954408
0.954896
0.955461
0.956094
0.956812
0.957581
0.958468
0.959362
0.960434
0.961428
0.962746
0.963741
0.965449
0.966244
0.968528
0.968978
0.971737
0.9334
0.933365
0.933432
0.933562
0.933764
0.934043
0.934388
0.934813
0.935308
0.935878
0.936523
0.937251
0.938039
0.93894
0.939868
0.940962
0.942012
0.943353
0.944478
0.946155
0.947255
0.949495
0.950273
0.953478
0.913557
0.91352
0.913583
0.913708
0.913904
0.914175
0.914513
0.914927
0.915414
0.915971
0.916607
0.917318
0.918099
0.918981
0.919902
0.920973
0.922021
0.923334
0.924459
0.926107
0.927218
0.929411
0.930237
0.933437
0.893594
0.893552
0.89361
0.893726
0.893912
0.894169
0.894493
0.894886
0.895356
0.895885
0.896501
0.897177
0.897934
0.898771
0.899664
0.900681
0.901698
0.902945
0.904018
0.905606
0.906606
0.908752
0.909448
0.912386
0.873616
0.873569
0.87362
0.873725
0.873898
0.874136
0.874443
0.874809
0.875255
0.875749
0.876336
0.876967
0.877689
0.878471
0.879321
0.880271
0.881238
0.882401
0.883414
0.884903
0.885825
0.887846
0.888483
0.891202
0.853713
0.853659
0.853705
0.853795
0.853956
0.854172
0.854459
0.854794
0.855215
0.855667
0.856223
0.8568
0.857486
0.858201
0.859008
0.859881
0.860795
0.861861
0.862818
0.864197
0.865047
0.86692
0.867517
0.870028
0.833959
0.833898
0.833943
0.834013
0.834166
0.834353
0.834626
0.834921
0.835323
0.835721
0.836255
0.836764
0.837423
0.838057
0.838828
0.839612
0.840475
0.841443
0.842338
0.843609
0.844394
0.846111
0.846676
0.848978
0.814414
0.814348
0.814392
0.81444
0.814589
0.814742
0.815005
0.815253
0.815644
0.815978
0.8165
0.816928
0.817574
0.818109
0.818865
0.819536
0.820369
0.821227
0.822061
0.823225
0.823955
0.82551
0.826046
0.828141
0.795131
0.795062
0.795098
0.795136
0.795266
0.795402
0.795638
0.795859
0.796216
0.796511
0.796997
0.797367
0.797978
0.798436
0.799157
0.799731
0.800526
0.801277
0.802067
0.803103
0.80379
0.805182
0.805694
0.807582
0.776148
0.776077
0.776101
0.776136
0.776239
0.776369
0.776566
0.776776
0.777082
0.777361
0.777784
0.77813
0.77867
0.779092
0.779741
0.780256
0.780988
0.781641
0.782395
0.783294
0.783945
0.785178
0.785667
0.787354
0.757498
0.757423
0.757438
0.757467
0.75755
0.757667
0.757833
0.758025
0.758289
0.758544
0.758913
0.759232
0.759706
0.760091
0.760668
0.761131
0.761795
0.762365
0.763077
0.763826
0.764461
0.765538
0.766006
0.767496
0.739201
0.739128
0.739133
0.739154
0.73922
0.739322
0.739464
0.739632
0.739862
0.740087
0.740413
0.740695
0.741115
0.741456
0.741971
0.742376
0.742978
0.743467
0.744129
0.744752
0.745369
0.746288
0.746736
0.748035
0.721283
0.721209
0.721206
0.72122
0.721271
0.721357
0.721476
0.72162
0.72182
0.722014
0.7223
0.722543
0.722916
0.723209
0.72367
0.724015
0.72456
0.724971
0.72558
0.726091
0.726693
0.727449
0.727884
0.728995
0.703757
0.703682
0.703673
0.70368
0.703715
0.703788
0.703883
0.704007
0.704177
0.704341
0.70459
0.704795
0.705124
0.70537
0.705779
0.706067
0.706556
0.706894
0.707448
0.707863
0.708437
0.709037
0.709466
0.710394
0.686635
0.68656
0.686547
0.686542
0.686571
0.686622
0.686705
0.6868
0.686947
0.687078
0.687296
0.687462
0.68775
0.68795
0.688313
0.688543
0.688982
0.689249
0.689753
0.690077
0.690612
0.691073
0.69149
0.692248
0.669927
0.669853
0.669829
0.669828
0.66983
0.669884
0.669932
0.670019
0.670132
0.670241
0.670422
0.670555
0.670803
0.670959
0.671277
0.671455
0.671843
0.672045
0.672498
0.67274
0.673231
0.673563
0.673972
0.67457
0.653639
0.653562
0.653543
0.653517
0.653535
0.653544
0.653605
0.653647
0.653754
0.653824
0.653983
0.654077
0.654291
0.654404
0.65468
0.654805
0.655149
0.655286
0.655692
0.655853
0.656301
0.656523
0.65692
0.657365
0.637773
0.637702
0.637666
0.637657
0.637631
0.637667
0.637672
0.63773
0.637789
0.63785
0.63797
0.638037
0.638214
0.638288
0.638524
0.638601
0.6389
0.638979
0.639338
0.639426
0.639828
0.639954
0.640339
0.640633
0.622335
0.622259
0.622236
0.622191
0.622199
0.622171
0.622214
0.622207
0.622281
0.622294
0.622401
0.62243
0.622578
0.622613
0.622813
0.622843
0.623101
0.623123
0.623441
0.623458
0.623821
0.623858
0.624221
0.624376
0.607322
0.607252
0.60721
0.607188
0.607148
0.607156
0.607136
0.607157
0.607175
0.607191
0.607257
0.607266
0.60738
0.60738
0.607544
0.607531
0.607751
0.60772
0.607998
0.607949
0.608274
0.608229
0.608566
0.608593
0.592736
0.592662
0.592632
0.592578
0.592568
0.592521
0.592535
0.592495
0.592533
0.5925
0.59256
0.592532
0.592622
0.592587
0.592718
0.592665
0.592847
0.592766
0.593005
0.592895
0.593185
0.593061
0.59337
0.593283
0.578572
0.578504
0.57846
0.578421
0.578377
0.578352
0.57832
0.578299
0.57829
0.57826
0.578283
0.578238
0.578297
0.578232
0.578332
0.57824
0.578388
0.57826
0.578463
0.578294
0.578549
0.57835
0.578632
0.578442
0.56483
0.564759
0.564724
0.564664
0.564635
0.564577
0.56456
0.564498
0.564498
0.56443
0.564446
0.564369
0.564407
0.564311
0.564383
0.564255
0.56437
0.564199
0.564368
0.564145
0.564367
0.564098
0.564355
0.564068
0.551502
0.551437
0.551393
0.551339
0.551293
0.551239
0.551199
0.551138
0.55111
0.551036
0.551025
0.550931
0.550943
0.550821
0.550866
0.550704
0.550791
0.550578
0.550717
0.550442
0.550637
0.5503
0.550538
0.55016
0.538587
0.538521
0.538481
0.538416
0.538374
0.538303
0.538263
0.538182
0.538147
0.538052
0.538027
0.537911
0.537903
0.537755
0.537775
0.537583
0.537643
0.537392
0.537503
0.537181
0.53735
0.536953
0.537174
0.536712
0.526076
0.526013
0.525969
0.525907
0.525853
0.525782
0.525728
0.52564
0.525591
0.525482
0.525441
0.525306
0.525279
0.525108
0.525105
0.524885
0.52492
0.524634
0.52472
0.524354
0.524501
0.524048
0.524253
0.523715
0.513964
0.513901
0.513861
0.513788
0.51374
0.513653
0.513599
0.513497
0.513438
0.513317
0.51326
0.513109
0.513063
0.512871
0.512848
0.512601
0.512613
0.512296
0.512359
0.511954
0.512079
0.511574
0.511767
0.51116
0.502242
0.502184
0.502136
0.502072
0.502007
0.501929
0.501856
0.501753
0.50168
0.501547
0.501477
0.50131
0.501249
0.501037
0.500995
0.500725
0.500716
0.500369
0.500411
0.49997
0.500076
0.499525
0.499705
0.499036
0.490905
0.490846
0.490805
0.490726
0.490676
0.490573
0.490512
0.490387
0.490314
0.490165
0.490085
0.489902
0.489826
0.489597
0.489537
0.489245
0.489218
0.488844
0.488867
0.488392
0.488481
0.487888
0.488057
0.487329
0.479942
0.479889
0.479839
0.479774
0.4797
0.479616
0.479526
0.479414
0.479317
0.479168
0.479071
0.478879
0.478788
0.478542
0.478466
0.478155
0.478109
0.477712
0.477716
0.477212
0.477285
0.476653
0.476814
0.476028
0.469348
0.469294
0.469251
0.469172
0.469114
0.469003
0.468932
0.468792
0.468705
0.468534
0.468435
0.468226
0.468124
0.467863
0.467773
0.467444
0.467381
0.466962
0.46695
0.466418
0.466476
0.465809
0.465957
0.46513
0.459112
0.459063
0.459013
0.458944
0.458867
0.458774
0.458676
0.458551
0.458439
0.458274
0.458156
0.457941
0.457826
0.457552
0.457448
0.457102
0.457025
0.456586
0.456557
0.456001
0.456044
0.455346
0.455484
0.454616
0.449228
0.449178
0.449134
0.449056
0.448988
0.448878
0.448791
0.448645
0.448541
0.448356
0.448238
0.448009
0.447885
0.447598
0.447482
0.447121
0.447029
0.446573
0.446529
0.445951
0.445981
0.445253
0.44538
0.444475
0.439684
0.439638
0.439591
0.439517
0.439442
0.439335
0.439238
0.439095
0.438978
0.438792
0.438662
0.438426
0.438291
0.437994
0.437866
0.437492
0.437387
0.436915
0.436856
0.436259
0.436275
0.43552
0.43564
0.434697
0.430475
0.43043
0.430383
0.430309
0.430232
0.430125
0.430022
0.429876
0.429753
0.429561
0.429424
0.42918
0.429037
0.428729
0.42859
0.428205
0.428087
0.427602
0.427529
0.426915
0.426917
0.426139
0.426248
0.425274
0.42159
0.421547
0.421502
0.421424
0.421351
0.421234
0.421138
0.420978
0.420859
0.420655
0.420517
0.420262
0.420113
0.419795
0.419648
0.419251
0.419123
0.418624
0.418539
0.41791
0.417899
0.417102
0.417201
0.416196
0.413021
0.412981
0.412933
0.41286
0.412779
0.41267
0.412559
0.412409
0.412274
0.412075
0.411924
0.411667
0.411509
0.411184
0.411028
0.410621
0.410484
0.409974
0.409879
0.409235
0.409214
0.4084
0.408489
0.40746
0.40476
0.40472
0.404676
0.404598
0.404522
0.404403
0.4043
0.404136
0.404008
0.403796
0.403647
0.403381
0.403218
0.402885
0.402724
0.402307
0.402163
0.401641
0.401539
0.400882
0.400853
0.400024
0.400105
0.399058
0.396796
0.39676
0.396714
0.396639
0.39656
0.396442
0.396334
0.396172
0.396036
0.395824
0.395669
0.395398
0.395231
0.394891
0.394724
0.394298
0.39415
0.393616
0.39351
0.392839
0.392806
0.391963
0.392041
0.390979
0.389124
0.389089
0.389044
0.388969
0.388888
0.388773
0.388659
0.388497
0.388358
0.388143
0.387983
0.387709
0.387537
0.387191
0.387019
0.386586
0.386433
0.385891
0.38578
0.385099
0.385061
0.384207
0.38428
0.383209
0.381734
0.3817
0.381656
0.381579
0.381502
0.381379
0.381273
0.3811
0.380966
0.380743
0.380584
0.380303
0.380129
0.379777
0.379601
0.379162
0.379005
0.378454
0.37834
0.377649
0.377608
0.376744
0.376813
0.375732
0.374617
0.374585
0.37454
0.374467
0.374384
0.374267
0.374151
0.373987
0.373842
0.373623
0.373457
0.373175
0.372996
0.372641
0.372461
0.372017
0.371855
0.371299
0.371179
0.370483
0.370436
0.369564
0.369628
0.368539
0.367766
0.367735
0.367691
0.367616
0.367537
0.367415
0.367303
0.367132
0.366991
0.366765
0.3666
0.366313
0.366133
0.365774
0.36559
0.365142
0.364975
0.364415
0.364289
0.363589
0.363536
0.362658
0.362716
0.361621
0.361172
0.361143
0.3611
0.361025
0.360946
0.360823
0.360711
0.360538
0.360396
0.360168
0.360001
0.359712
0.359529
0.359167
0.358979
0.358529
0.358357
0.357794
0.357663
0.356958
0.356901
0.356017
0.356071
0.354969
0.354828
0.354801
0.354757
0.354685
0.354602
0.354484
0.354366
0.354197
0.35405
0.353824
0.353653
0.353363
0.353177
0.352812
0.352622
0.352168
0.351993
0.351427
0.351291
0.350583
0.35052
0.349633
0.349682
0.348575
0.348728
0.348701
0.348659
0.348584
0.348506
0.348381
0.348271
0.348093
0.347952
0.347719
0.347551
0.347256
0.34707
0.346702
0.34651
0.346054
0.345875
0.345307
0.345167
0.344457
0.34439
0.343498
0.343543
0.342432
0.342862
0.342837
0.342794
0.342721
0.342641
0.342519
0.342405
0.34223
0.342085
0.341854
0.341683
0.341387
0.3412
0.34083
0.340637
0.340177
0.339997
0.339426
0.339282
0.338571
0.338501
0.337604
0.337646
0.336533
0.337226
0.3372
0.337159
0.337086
0.337006
0.336884
0.336769
0.336595
0.336449
0.336216
0.336046
0.335748
0.33556
0.335187
0.334994
0.334532
0.334351
0.333776
0.333632
0.332918
0.332843
0.331949
0.331984
0.330872
0.331809
0.331785
0.331745
0.33167
0.331594
0.331468
0.331358
0.331177
0.331037
0.330799
0.330631
0.33033
0.330144
0.329767
0.329576
0.32911
0.32893
0.328352
0.328208
0.32749
0.327414
0.326519
0.326552
0.32544
0.326608
0.326586
0.326545
0.326473
0.326393
0.326271
0.326157
0.325981
0.325836
0.3256
0.325432
0.325128
0.324944
0.324564
0.324375
0.323904
0.323728
0.323145
0.323004
0.322282
0.322207
0.32131
0.321341
0.320231
0.321616
0.321593
0.321554
0.32148
0.321404
0.321279
0.321168
0.320988
0.320848
0.320607
0.320443
0.320135
0.319955
0.319569
0.319385
0.318909
0.318737
0.318148
0.318013
0.317284
0.317217
0.316312
0.316345
0.315238
0.316825
0.316803
0.316765
0.31669
0.316617
0.316488
0.316382
0.316197
0.316061
0.315817
0.315657
0.315344
0.315169
0.314778
0.3146
0.314117
0.313952
0.313355
0.313228
0.312492
0.312433
0.311524
0.311558
0.310455
0.312231
0.31221
0.31217
0.312099
0.312022
0.311898
0.311787
0.311607
0.311469
0.311225
0.311066
0.310751
0.31058
0.310184
0.310012
0.309521
0.309366
0.30876
0.308644
0.307897
0.307845
0.306936
0.30697
0.305872
0.307827
0.307806
0.307769
0.307694
0.307622
0.307493
0.307389
0.307202
0.307071
0.306821
0.306668
0.306348
0.306182
0.305781
0.305616
0.305118
0.304971
0.304358
0.304248
0.303499
0.303452
0.30254
0.302574
0.301483
0.303608
0.303587
0.30355
0.303475
0.303405
0.303274
0.303173
0.302984
0.302855
0.302603
0.302453
0.302131
0.301969
0.301565
0.301404
0.300902
0.30076
0.300142
0.300042
0.299283
0.299242
0.298331
0.298364
0.297277
0.299568
0.299548
0.299509
0.299439
0.299363
0.29924
0.299132
0.298949
0.298817
0.298567
0.298418
0.298093
0.297936
0.297527
0.297373
0.296865
0.296732
0.296106
0.296013
0.295253
0.295213
0.294303
0.294335
0.293253
0.295702
0.29568
0.295648
0.295568
0.295506
0.295366
0.295277
0.295077
0.294961
0.294698
0.294561
0.294227
0.29408
0.293662
0.293519
0.293001
0.292879
0.292246
0.292161
0.291396
0.291361
0.290452
0.290483
0.289407
0.292005
0.291986
0.291948
0.291878
0.291804
0.291679
0.291576
0.291388
0.291265
0.291005
0.290871
0.290532
0.290394
0.289966
0.289836
0.289307
0.289199
0.288555
0.288478
0.287711
0.287678
0.286772
0.286802
0.285733
0.288473
0.288452
0.28842
0.288341
0.288279
0.288141
0.288053
0.287851
0.287743
0.28747
0.287349
0.286998
0.286875
0.286434
0.286318
0.285779
0.285679
0.285032
0.284959
0.284193
0.28416
0.283259
0.283286
0.282225
0.285101
0.28508
0.285049
0.284969
0.28491
0.284767
0.284687
0.284477
0.284379
0.284097
0.283988
0.283626
0.283514
0.283065
0.282957
0.282414
0.282319
0.281671
0.2816
0.280836
0.280803
0.279907
0.279931
0.278879
0.281884
0.281864