/*--------------------------------*- C++ -*----------------------------------*\
  =========                 |
  \\      /  F ield         | OpenFOAM: The Open Source CFD Toolbox
   \\    /   O peration     | Website:  https://openfoam.org
    \\  /    A nd           | Version:  10
     \\/     M anipulation  |
\*---------------------------------------------------------------------------*/
FoamFile
{
    format      ascii;
    class       volScalarField;
    location    "0.17";
    object      p;
}
// * * * * * * * * * * * * * * * * * * * * * * * * * * * * * * * * * * * * * //

dimensions      [1 -1 -2 0 0 0 0];

internalField   nonuniform List<scalar> 
4176
(
1600.81
1601
1601.51
1602.14
1603.21
1604.22
1605.86
1607.25
1609.44
1611.22
1613.93
1616.15
1619.27
1622.03
1625.41
1628.91
1632.19
1636.84
1639.79
1645.78
1648.13
1655.75
1656.94
1665.67
1601.29
1601.47
1601.94
1602.55
1603.51
1604.51
1605.97
1607.35
1609.32
1611.06
1613.53
1615.67
1618.57
1621.17
1624.36
1627.6
1630.75
1635.02
1637.84
1643.4
1645.51
1652.96
1654.2
1663.97
1602.54
1602.73
1603.2
1603.82
1604.8
1605.82
1607.32
1608.71
1610.73
1612.5
1615.03
1617.19
1620.17
1622.8
1626.1
1629.37
1632.64
1637.01
1639.82
1645.53
1647.62
1654.96
1656.1
1665.56
1604.48
1604.67
1605.13
1605.74
1606.7
1607.69
1609.17
1610.53
1612.52
1614.23
1616.74
1618.83
1621.8
1624.33
1627.63
1630.8
1634.06
1638.45
1640.98
1646.86
1648.8
1656.04
1657.1
1665.96
1607.19
1607.38
1607.84
1608.45
1609.4
1610.4
1611.86
1613.23
1615.2
1616.93
1619.41
1621.51
1624.46
1626.99
1630.29
1633.41
1636.78
1641
1643.7
1649.49
1651.5
1658.7
1659.84
1668.69
1610.64
1610.83
1611.28
1611.89
1612.82
1613.82
1615.25
1616.61
1618.55
1620.27
1622.71
1624.8
1627.71
1630.21
1633.48
1636.54
1639.96
1643.97
1646.9
1652.44
1654.52
1661.63
1662.85
1671.79
1614.85
1615.03
1615.48
1616.08
1617.01
1618
1619.42
1620.77
1622.69
1624.4
1626.81
1628.88
1631.77
1634.25
1637.51
1640.51
1643.95
1647.83
1650.85
1656.23
1658.41
1665.41
1666.67
1675.49
1619.8
1619.99
1620.43
1621.03
1621.95
1622.93
1624.33
1625.67
1627.56
1629.25
1631.64
1633.69
1636.54
1638.98
1642.22
1645.17
1648.61
1652.37
1655.47
1660.67
1662.93
1669.82
1671.12
1679.84
1625.52
1625.71
1626.14
1626.74
1627.64
1628.61
1630
1631.32
1633.2
1634.87
1637.23
1639.25
1642.08
1644.48
1647.7
1650.59
1654.03
1657.67
1660.84
1665.87
1668.19
1674.96
1676.29
1684.89
1632
1632.18
1632.62
1633.2
1634.1
1635.06
1636.43
1637.74
1639.59
1641.24
1643.57
1645.56
1648.36
1650.72
1653.91
1656.74
1660.17
1663.7
1666.92
1671.78
1674.19
1680.77
1682.15
1690.62
1639.25
1639.43
1639.86
1640.44
1641.32
1642.27
1643.62
1644.91
1646.74
1648.37
1650.67
1652.63
1655.39
1657.71
1660.88
1663.64
1667.06
1670.48
1673.74
1678.44
1680.9
1687.32
1688.74
1697.06
1647.27
1647.45
1647.87
1648.45
1649.32
1650.25
1651.59
1652.86
1654.66
1656.26
1658.54
1660.46
1663.19
1665.47
1668.59
1671.3
1674.69
1678.02
1681.3
1685.83
1688.35
1694.59
1696.03
1704.21
1656.08
1656.26
1656.67
1657.24
1658.1
1659.02
1660.33
1661.58
1663.36
1664.94
1667.18
1669.07
1671.76
1673.98
1677.08
1679.71
1683.08
1686.31
1689.61
1693.98
1696.54
1702.6
1704.06
1712.08
1665.68
1665.86
1666.26
1666.82
1667.67
1668.57
1669.86
1671.09
1672.84
1674.39
1676.59
1678.45
1681.1
1683.28
1686.33
1688.89
1692.23
1695.36
1698.67
1702.87
1705.47
1711.36
1712.82
1720.68
1676.08
1676.26
1676.66
1677.21
1678.03
1678.92
1680.19
1681.4
1683.12
1684.63
1686.8
1688.61
1691.22
1693.35
1696.36
1698.85
1702.15
1705.18
1708.49
1712.53
1715.16
1720.87
1722.33
1730.02
1687.29
1687.47
1687.86
1688.4
1689.21
1690.08
1691.33
1692.51
1694.19
1695.67
1697.8
1699.57
1702.14
1704.21
1707.17
1709.59
1712.85
1715.78
1719.08
1722.95
1725.61
1731.12
1732.61
1740.1
1699.33
1699.5
1699.89
1700.42
1701.21
1702.07
1703.28
1704.44
1706.08
1707.53
1709.61
1711.33
1713.85
1715.86
1718.78
1721.13
1724.34
1727.16
1730.44
1734.15
1736.84
1742.14
1743.66
1750.95
1712.2
1712.38
1712.75
1713.27
1714.05
1714.88
1716.07
1717.19
1718.8
1720.2
1722.24
1723.91
1726.38
1728.33
1731.19
1733.46
1736.62
1739.34
1742.59
1746.13
1748.84
1753.94
1755.48
1762.56
1725.92
1726.1
1726.46
1726.97
1727.73
1728.54
1729.69
1730.78
1732.36
1733.71
1735.71
1737.32
1739.73
1741.61
1744.41
1746.6
1749.71
1752.33
1755.53
1758.91
1761.64
1766.53
1768.09
1774.95
1740.51
1740.68
1741.04
1741.53
1742.27
1743.05
1744.18
1745.23
1746.76
1748.07
1750.01
1751.57
1753.92
1755.73
1758.47
1760.57
1763.61
1766.13
1769.29
1772.5
1775.24
1779.91
1781.5
1788.14
1755.97
1756.14
1756.48
1756.96
1757.68
1758.43
1759.53
1760.54
1762.03
1763.29
1765.18
1766.68
1768.96
1770.7
1773.37
1775.38
1778.35
1780.75
1783.86
1786.92
1789.65
1794.11
1795.71
1802.12
1772.32
1772.48
1772.82
1773.28
1773.97
1774.7
1775.76
1776.74
1778.18
1779.39
1781.22
1782.65
1784.87
1786.53
1789.12
1791.04
1793.94
1796.23
1799.27
1802.17
1804.89
1809.12
1810.75
1816.92
1789.58
1789.74
1790.06
1790.5
1791.17
1791.87
1792.89
1793.82
1795.21
1796.37
1798.14
1799.5
1801.66
1803.23
1805.75
1807.57
1810.39
1812.56
1815.53
1818.27
1820.98
1824.98
1826.61
1832.54
1807.75
1807.91
1808.22
1808.64
1809.28
1809.95
1810.93
1811.82
1813.15
1814.25
1815.96
1817.25
1819.34
1820.83
1823.27
1824.99
1827.73
1829.76
1832.66
1835.24
1837.92
1841.69
1843.32
1848.99
1826.85
1827.01
1827.3
1827.71
1828.32
1828.96
1829.89
1830.74
1832.02
1833.05
1834.7
1835.92
1837.92
1839.32
1841.68
1843.3
1845.95
1847.86
1850.68
1853.09
1855.74
1859.27
1860.89
1866.3
1846.9
1847.05
1847.34
1847.72
1848.31
1848.91
1849.8
1850.59
1851.82
1852.79
1854.36
1855.5
1857.43
1858.74
1861.02
1862.52
1865.09
1866.87
1869.6
1871.85
1874.45
1877.74
1879.35
1884.48
1867.91
1868.05
1868.33
1868.7
1869.25
1869.81
1870.66
1871.41
1872.57
1873.48
1874.98
1876.04
1877.89
1879.1
1881.28
1882.68
1885.15
1886.8
1889.44
1891.52
1894.06
1897.12
1898.71
1903.58
1889.89
1890.03
1890.29
1890.64
1891.16
1891.69
1892.5
1893.19
1894.29
1895.14
1896.56
1897.54
1899.3
1900.41
1902.5
1903.78
1906.15
1907.66
1910.22
1912.13
1914.6
1917.4
1919
1923.58
1912.86
1913
1913.25
1913.57
1914.07
1914.56
1915.32
1915.96
1917
1917.77
1919.13
1920.02
1921.69
1922.7
1924.69
1925.84
1928.12
1929.49
1931.95
1933.69
1936.08
1938.63
1940.22
1944.51
1936.84
1936.97
1937.2
1937.51
1937.97
1938.43
1939.14
1939.73
1940.71
1941.41
1942.69
1943.49
1945.08
1945.98
1947.87
1948.9
1951.07
1952.29
1954.65
1956.22
1958.53
1960.82
1962.39
1966.38
1961.84
1961.97
1962.19
1962.47
1962.9
1963.32
1963.98
1964.52
1965.44
1966.07
1967.27
1967.98
1969.48
1970.27
1972.06
1972.96
1975.03
1976.1
1978.34
1979.74
1981.96
1984.01
1985.55
1989.22
1987.88
1988.01
1988.2
1988.47
1988.87
1989.25
1989.86
1990.34
1991.2
1991.76
1992.88
1993.5
1994.91
1995.59
1997.29
1998.05
2000.01
2000.92
2003.06
2004.26
2006.39
2008.2
2009.72
2013.06
2014.97
2015.1
2015.28
2015.52
2015.89
2016.23
2016.8
2017.22
2018.01
2018.5
2019.54
2020.07
2021.39
2021.96
2023.56
2024.19
2026.03
2026.79
2028.81
2029.83
2031.84
2033.43
2034.91
2037.92
2043.14
2043.26
2043.43
2043.65
2043.98
2044.29
2044.8
2045.17
2045.9
2046.31
2047.27
2047.71
2048.94
2049.4
2050.89
2051.39
2053.13
2053.72
2055.63
2056.45
2058.35
2059.7
2061.15
2063.81
2072.39
2072.51
2072.66
2072.86
2073.16
2073.43
2073.9
2074.21
2074.87
2075.21
2076.09
2076.44
2077.57
2077.92
2079.31
2079.68
2081.3
2081.74
2083.53
2084.16
2085.95
2087.04
2088.45
2090.77
2102.75
2102.87
2103.01
2103.19
2103.46
2103.69
2104.1
2104.36
2104.95
2105.22
2106.02
2106.27
2107.31
2107.55
2108.84
2109.06
2110.58
2110.85
2112.53
2112.97
2114.64
2115.5
2116.83
2118.8
2134.24
2134.36
2134.48
2134.64
2134.88
2135.07
2135.44
2135.64
2136.17
2136.36
2137.08
2137.24
2138.18
2138.3
2139.49
2139.57
2140.98
2141.09
2142.66
2142.9
2144.47
2145.09
2146.32
2147.93
2166.88
2166.99
2167.1
2167.24
2167.45
2167.6
2167.92
2168.07
2168.53
2168.65
2169.29
2169.35
2170.21
2170.2
2171.28
2171.22
2172.52
2172.46
2173.92
2173.96
2175.42
2175.8
2176.95
2178.2
2200.69
2200.79
2200.89
2201.01
2201.18
2201.3
2201.58
2201.67
2202.07
2202.11
2202.67
2202.64
2203.4
2203.28
2204.25
2204.05
2205.23
2204.99
2206.34
2206.18
2207.53
2207.67
2208.74
2209.63
2235.69
2235.79
2235.87
2235.97
2236.11
2236.2
2236.42
2236.46
2236.79
2236.76
2237.25
2237.12
2237.78
2237.54
2238.41
2238.06
2239.14
2238.71
2239.94
2239.57
2240.81
2240.71
2241.68
2242.25
2271.9
2272
2272.07
2272.15
2272.26
2272.3
2272.48
2272.46
2272.73
2272.62
2273.03
2272.81
2273.38
2273.02
2273.79
2273.29
2274.25
2273.65
2274.76
2274.16
2275.29
2274.93
2275.8
2276.08
2309.35
2309.45
2309.5
2309.56
2309.64
2309.64
2309.77
2309.7
2309.9
2309.72
2310.04
2309.73
2310.21
2309.73
2310.39
2309.74
2310.6
2309.81
2310.82
2309.99
2311.02
2310.38
2311.16
2311.1
2348.06
2348.16
2348.2
2348.24
2348.28
2348.25
2348.32
2348.19
2348.33
2348.07
2348.31
2347.9
2348.29
2347.68
2348.25
2347.44
2348.2
2347.22
2348.13
2347.07
2348
2347.07
2347.77
2347.35
2388.06
2388.15
2388.18
2388.19
2388.2
2388.13
2388.16
2387.97
2388.04
2387.7
2387.86
2387.35
2387.64
2386.91
2387.37
2386.42
2387.07
2385.9
2386.71
2385.41
2386.26
2385.04
2385.67
2384.88
2429.36
2429.45
2429.46
2429.46
2429.43
2429.32
2429.29
2429.05
2429.05
2428.63
2428.71
2428.09
2428.29
2427.44
2427.79
2426.68
2427.23
2425.86
2426.58
2425.04
2425.82
2424.29
2424.87
2423.72
2471.99
2472.08
2472.07
2472.05
2471.99
2471.84
2471.75
2471.45
2471.38
2470.89
2470.87
2470.16
2470.25
2469.28
2469.52
2468.26
2468.69
2467.14
2467.76
2465.97
2466.68
2464.84
2465.39
2463.84
2515.97
2516.06
2516.03
2515.99
2515.89
2515.7
2515.56
2515.19
2515.05
2514.48
2514.38
2513.56
2513.56
2512.45
2512.59
2511.16
2511.5
2509.73
2510.26
2508.22
2508.87
2506.7
2507.26
2505.27
2561.32
2561.4
2561.36
2561.29
2561.16
2560.92
2560.73
2560.3
2560.09
2559.44
2559.25
2558.32
2558.22
2556.98
2557.02
2555.42
2555.66
2553.68
2554.13
2551.81
2552.41
2549.88
2550.47
2548.05
2608.04
2608.12
2608.06
2607.97
2607.8
2607.53
2607.28
2606.79
2606.51
2605.77
2605.49
2604.46
2604.26
2602.89
2602.82
2601.06
2601.19
2599
2599.37
2596.76
2597.33
2594.42
2595.05
2592.21
2656.16
2656.24
2656.17
2656.05
2655.85
2655.53
2655.23
2654.68
2654.32
2653.5
2653.14
2652
2651.7
2650.18
2650.02
2648.08
2648.12
2645.7
2646.01
2643.09
2643.67
2640.35
2640.99
2637.74
2705.69
2705.76
2705.68
2705.54
2705.3
2704.94
2704.58
2703.97
2703.54
2702.63
2702.19
2700.94
2700.55
2698.89
2698.64
2696.5
2696.47
2693.8
2694.07
2690.81
2691.45
2687.69
2688.34
2684.69
2756.64
2756.71
2756.61
2756.45
2756.17
2755.77
2755.36
2754.69
2754.19
2753.19
2752.67
2751.3
2750.82
2749.01
2748.68
2746.34
2746.26
2743.31
2743.58
2739.96
2740.61
2736.49
2737.11
2733.07
2809.01
2809.07
2808.96
2808.78
2808.46
2808.03
2807.56
2806.83
2806.26
2805.18
2804.58
2803.09
2802.54
2800.56
2800.17
2797.62
2797.5
2794.24
2794.58
2790.56
2791.2
2786.75
2787.33
2782.91
2862.8
2862.87
2862.74
2862.54
2862.19
2861.72
2861.2
2860.41
2859.77
2858.61
2857.94
2856.32
2855.71
2853.55
2853.14
2850.32
2850.23
2846.64
2846.98
2842.66
2843.24
2838.49
2839.01
2834.22
2918.03
2918.09
2917.95
2917.73
2917.35
2916.84
2916.27
2915.42
2914.73
2913.47
2912.75
2910.99
2910.36
2907.98
2907.59
2904.47
2904.43
2900.52
2900.82
2896.26
2896.74
2891.72
2892.18
2887.02
2974.68
2974.75
2974.59
2974.36
2973.94
2973.4
2972.78
2971.87
2971.13
2969.77
2969.03
2967.09
2966.49
2963.85
2963.52
2960.1
2960.05
2955.94
2956.13
2951.36
2951.74
2946.45
2946.84
2941.33
3032.76
3032.83
3032.65
3032.41
3031.96
3031.4
3030.72
3029.76
3028.99
3027.5
3026.79
3024.62
3024.08
3021.22
3020.84
3017.28
3017.13
3012.85
3012.94
3007.96
3008.25
3002.69
3003.02
2997.16
3092.26
3092.34
3092.13
3091.91
3091.4
3090.84
3090.1
3089.07
3088.32
3086.68
3085.97
3083.68
3083.07
3080.11
3079.64
3075.95
3075.69
3071.26
3071.24
3066.07
3066.27
3060.45
3060.72
3054.52
3153.18
3153.27
3153.03
3152.82
3152.25
3151.7
3150.91
3149.85
3149.04
3147.35
3146.57
3144.21
3143.52
3140.47
3139.91
3136.11
3135.75
3131.17
3131.05
3125.69
3125.8
3119.74
3119.95
3113.42
3215.52
3215.61
3215.37
3215.14
3214.56
3213.98
3213.13
3212.11
3211.18
3209.47
3208.63
3206.2
3205.43
3202.3
3201.65
3197.75
3197.29
3192.59
3192.37
3186.83
3186.85
3180.56
3180.72
3173.87
3279.27
3279.37
3279.13
3278.87
3278.29
3277.69
3276.79
3275.79
3274.72
3273.08
3272.1
3269.65
3268.81
3265.61
3264.87
3260.88
3260.33
3255.5
3255.19
3249.49
3249.43
3242.91
3243.01
3235.87
3344.44
3344.54
3344.3
3344.03
3343.44
3342.82
3341.89
3340.88
3339.73
3338.13
3337
3334.59
3333.64
3330.37
3329.56
3325.49
3324.85
3319.91
3319.51
3313.65
3313.51
3306.79
3306.83
3299.4
3411.03
3411.13
3410.89
3410.62
3410.01
3409.38
3408.43
3407.4
3406.18
3404.6
3403.35
3400.99
3399.89
3396.61
3395.72
3391.58
3390.85
3385.8
3385.31
3379.31
3379.09
3372.18
3372.17
3364.46
3479.04
3479.14
3478.91
3478.63
3478.01
3477.37
3476.39
3475.36
3474.08
3472.52
3471.17
3468.82
3467.6
3464.33
3463.32
3459.11
3458.31
3453.15
3452.59
3446.46
3446.16
3439.06
3439
3431.04
3548.5
3548.6
3548.36
3548.08
3547.45
3546.8
3545.8
3544.75
3543.43
3541.87
3540.43
3538.09
3536.77
3533.47
3532.38
3528.1
3527.23
3521.96
3521.33
3515.06
3514.69
3507.43
3507.31
3499.11
3619.4
3619.52
3619.27
3618.99
3618.35
3617.69
3616.66
3615.59
3614.22
3612.66
3611.13
3608.79
3607.37
3604.04
3602.87
3598.52
3597.57
3592.21
3591.5
3585.11
3584.67
3577.25
3577.08
3568.66
3691.78
3691.9
3691.64
3691.36
3690.7
3690.03
3688.96
3687.88
3686.45
3684.88
3683.26
3680.92
3679.4
3676.03
3674.78
3670.35
3669.34
3663.87
3663.09
3656.59
3656.07
3648.5
3648.28
3639.66
3765.64
3765.77
3765.5
3765.21
3764.52
3763.83
3762.72
3761.61
3760.12
3758.53
3756.81
3754.46
3752.83
3749.42
3748.09
3743.56
3742.5
3736.92
3736.08
3729.46
3728.87
3721.17
3720.89
3712.09
3840.97
3841.11
3840.82
3840.52
3839.79
3839.07
3837.92
3836.77
3835.22
3833.58
3831.74
3829.39
3827.62
3824.2
3822.76
3818.15
3817.03
3811.35
3810.43
3803.71
3803.05
3795.23
3794.9
3785.93
3917.75
3917.89
3917.58
3917.26
3916.5
3915.73
3914.53
3913.32
3911.69
3910.01
3908.05
3905.7
3903.76
3900.37
3898.76
3894.12
3892.91
3887.13
3886.14
3879.33
3878.6
3870.67
3870.29
3861.18
3995.89
3996.03
3995.71
3995.36
3994.56
3993.75
3992.49
3991.22
3989.52
3987.77
3985.71
3983.34
3981.23
3977.87
3976.07
3971.44
3970.11
3964.26
3963.21
3956.31
3955.51
3947.5
3947.07
3937.83
4075.28
4075.42
4075.08
4074.7
4073.89
4073.02
4071.72
4070.38
4068.62
4066.81
4064.66
4062.28
4059.99
4056.69
4054.67
4050.12
4048.59
4042.74
4041.63
4034.67
4033.8
4025.71
4025.24
4015.9
4155.72
4155.86
4155.53
4155.13
4154.31
4153.41
4152.09
4150.72
4148.92
4147.08
4144.87
4142.46
4140.05
4136.8
4134.57
4130.14
4128.4
4122.61
4121.38
4114.4
4113.48
4105.34
4104.84
4095.42
4237.02
4237.16
4236.85
4236.46
4235.66
4234.77
4233.47
4232.11
4230.31
4228.47
4226.24
4223.86
4221.37
4218.19
4215.8
4211.5
4209.54
4203.89
4202.5
4195.55
4194.58
4186.41
4185.89
4176.42
4318.99
4319.15
4318.88
4318.52
4317.77
4316.94
4315.69
4314.4
4312.67
4310.9
4308.72
4306.4
4303.92
4300.84
4298.37
4294.21
4292.09
4286.58
4285.05
4278.15
4277.15
4268.95
4268.45
4258.93
4401.54
4401.72
4401.49
4401.2
4400.53
4399.8
4398.67
4397.5
4395.9
4394.27
4392.21
4390.04
4387.65
4384.72
4382.26
4378.29
4376.07
4370.76
4369.11
4362.25
4361.25
4353.03
4352.53
4342.98
4484.72
4484.92
4484.76
4484.55
4483.99
4483.39
4482.4
4481.4
4479.98
4478.53
4476.67
4474.71
4472.49
4469.77
4467.44
4463.7
4461.51
4456.43
4454.71
4448
4446.97
4438.69
4438.22
4428.6
4568.79
4569.03
4568.92
4568.8
4568.34
4567.88
4567.04
4566.22
4564.98
4563.76
4562.1
4560.39
4558.39
4555.93
4553.83
4550.35
4548.32
4543.51
4541.89
4535.34
4534.39
4526.05
4525.62
4515.84
4654.27
4654.56
4654.46
4654.44
4654.02
4653.7
4652.95
4652.3
4651.18
4650.16
4648.68
4647.21
4645.41
4643.21
4641.4
4638.09
4636.46
4631.73
4630.56
4624.06
4623.48
4615.16
4614.84
4604.93
4741.9
4742.26
4742.09
4742.19
4741.68
4741.53
4740.66
4740.23
4739.01
4738.22
4736.73
4735.46
4733.75
4731.71
4730.28
4726.78
4725.98
4720.79
4720.57
4713.83
4713.89
4705.71
4705.72
4696.18
4832.58
4832.91
4832.8
4832.76
4832.33
4831.96
4831.18
4830.51
4829.39
4828.4
4826.93
4825.59
4823.84
4821.96
4820.37
4817.05
4816.38
4811.26
4811.3
4804.66
4805.11
4797.07
4797.54
4788.64
4927.19
4927.49
4927.34
4927.19
4926.65
4926.11
4925.16
4924.26
4922.92
4921.67
4919.98
4918.39
4916.39
4914.38
4912.35
4909.33
4908.04
4903.22
4903.12
4896.43
4897.13
4888.92
4889.76
4880.94
5026.45
5026.73
5026.5
5026.22
5025.49
5024.71
5023.48
5022.25
5020.54
5018.89
5016.76
5014.72
5012.24
5009.8
5007.2
5003.94
5001.97
4997.16
4996.5
4989.53
4990.29
4981.59
4982.7
4973.5
5130.83
5131.12
5130.76
5130.37
5129.4
5128.38
5126.79
5125.2
5123
5120.89
5118.14
5115.54
5112.36
5109.27
5105.86
5101.96
5099.18
5093.7
5092.45
5084.65
5085.22
5075.66
5076.89
5066.87
5240.46
5240.8
5240.27
5239.82
5238.59
5237.38
5235.39
5233.53
5230.73
5228.3
5224.73
5221.7
5217.55
5213.78
5209.42
5204.58
5200.93
5194.05
5192.11
5182.97
5182.9
5172.01
5173.07
5161.69
5355.16
5355.45
5354.95
5354.29
5353
5351.49
5349.35
5347.04
5344.04
5340.95
5337.11
5333.25
5328.62
5323.98
5318.69
5313.16
5307.85
5300.31
5296.74
5286.25
5284.84
5272.1
5272.46
5258.91
5474.39
5474.65
5474.15
5473.4
5472.03
5470.37
5468.08
5465.54
5462.32
5458.9
5454.74
5450.43
5445.34
5440.11
5434.15
5427.91
5421.32
5413.58
5407.37
5396.77
5392.88
5378.27
5377.12
5360.3
5597.41
5597.66
5597.17
5596.38
5594.98
5593.26
5590.9
5588.26
5584.93
5581.36
5577.04
5572.51
5567.18
5561.65
5555.33
5548.67
5541.49
5533.33
5525.73
5515.25
5508.39
5493.63
5489.94
5469.24
5723.39
5723.64
5723.17
5722.4
5721.01
5719.3
5716.95
5714.31
5710.98
5707.41
5703.07
5698.53
5693.16
5687.6
5681.2
5674.49
5667.16
5658.93
5651.01
5640.6
5632.72
5618.54
5612.94
5590.42
5851.45
5851.74
5851.29
5850.56
5849.22
5847.57
5845.28
5842.74
5839.48
5836.02
5831.76
5827.36
5822.1
5816.7
5810.43
5803.91
5796.74
5788.73
5781.12
5770.79
5763.72
5749.41
5744.91
5724.27
5980.77
5981.09
5980.68
5980.01
5978.74
5977.2
5975.01
5972.6
5969.47
5966.19
5962.1
5957.93
5952.87
5947.74
5941.73
5935.54
5928.65
5921.07
5913.85
5903.99
5897.51
5883.77
5879.69
5860.48
6110.58
6110.93
6110.56
6109.98
6108.79
6107.37
6105.3
6103.07
6100.1
6097.05
6093.17
6089.28
6084.47
6079.69
6073.98
6068.2
6061.69
6054.61
6047.79
6038.58
6032.53
6019.67
6015.85
5997.96
6240.19
6240.6
6240.26
6239.78
6238.66
6237.4
6235.45
6233.43
6230.63
6227.85
6224.17
6220.63
6216.07
6211.7
6206.31
6200.99
6194.87
6188.36
6181.96
6173.37
6167.83
6155.88
6152.29
6135.72
6369.06
6369.51
6369.15
6368.84
6367.74
6366.7
6364.82
6363.09
6360.38
6357.99
6354.41
6351.36
6346.93
6343.13
6337.94
6333.21
6327.43
6321.52
6315.55
6307.64
6302.5
6291.54
6288.16
6272.93
6496.65
6497.13
6496.79
6496.6
6495.55
6494.72
6492.9
6491.48
6488.84
6486.88
6483.37
6480.87
6476.5
6473.38
6468.25
6464.31
6458.68
6453.46
6447.95
6440.69
6435.93
6425.99
6422.81
6408.91
6622.53
6623.02
6622.77
6622.58
6621.73
6620.91
6619.4
6618.01
6615.76
6613.87
6610.81
6608.45
6604.55
6601.7
6597.03
6593.51
6588.3
6583.74
6578.48
6572.02
6567.63
6558.7
6555.71
6543.13
6746.33
6746.83
6746.65
6746.5
6745.8
6745.05
6743.76
6742.48
6740.54
6738.77
6736.12
6733.9
6730.52
6727.84
6723.73
6720.49
6715.81
6711.76
6706.83
6701.3
6697.16
6689.21
6686.4
6675.12
6867.74
6868.25
6868.13
6868.03
6867.45
6866.8
6865.69
6864.56
6862.86
6861.28
6858.96
6856.96
6853.98
6851.56
6847.92
6845.03
6840.82
6837.27
6832.72
6828.1
6824.08
6817.12
6814.52
6804.51
6986.5
6987.01
6986.95
6986.9
6986.42
6985.88
6984.93
6983.95
6982.48
6981.1
6979.07
6977.31
6974.69
6972.57
6969.35
6966.82
6963.05
6960
6955.87
6951.96
6948.11
6942.19
6939.77
6930.99
7102.38
7102.89
7102.88
7102.88
7102.5
7102.07
7101.26
7100.45
7099.17
7098
7096.23
7094.72
7092.43
7090.6
7087.77
7085.61
7082.27
7079.68
7075.98
7072.7
7069.07
7064.14
7061.9
7054.3
7215.21
7215.72
7215.75
7215.79
7215.52
7215.16
7214.52
7213.83
7212.76
7211.78
7210.26
7209
7207.01
7205.48
7203
7201.2
7198.25
7196.1
7192.81
7190.12
7186.79
7182.81
7180.65
7174.22
7324.83
7325.34
7325.39
7325.52
7325.26
7325.08
7324.49
7324.01
7323.08
7322.31
7321.01
7319.99
7318.28
7317.04
7314.89
7313.43
7310.86
7309.13
7306.23
7304.06
7301.09
7297.96
7295.93
7290.56
7431.13
7431.63
7431.76
7431.83
7431.81
7431.52
7431.24
7430.74
7430.08
7429.43
7428.38
7427.57
7426.13
7425.16
7423.33
7422.19
7419.98
7418.64
7416.12
7414.44
7411.83
7409.44
7407.56
7403.16
7534.04
7534.54
7534.61
7534.93
7534.65
7534.84
7534.29
7534.23
7533.5
7533.16
7532.23
7531.67
7530.46
7529.75
7528.22
7527.39
7525.51
7524.55
7522.39
7521.17
7518.92
7517.14
7515.4
7511.97
7633.47
7633.95
7634.16
7634.23
7634.46
7634.19
7634.28
7633.88
7633.63
7633.24
7632.62
7632.19
7631.24
7630.77
7629.5
7628.97
7627.4
7626.78
7624.96
7624.17
7622.26
7621.04
7619.45
7616.93
7729.43
7729.92
7729.98
7730.45
7730.18
7730.66
7730.15
7730.47
7729.9
7729.95
7729.33
7729.18
7728.41
7728.17
7727.15
7726.89
7725.6
7725.31
7723.79
7723.4
7721.79
7721.06
7719.72
7718.01
7821.84
7822.29
7822.57
7822.65
7823.04
7822.85
7823.19
7822.92
7823.02
7822.84
7822.6
7822.51
7821.98
7821.93
7821.16
7821.14
7820.13
7820.14
7818.9
7818.88
7817.55
7817.29
7816.17
7815.19
7910.78
7911.25
7911.33
7911.88
7911.68
7912.32
7911.92
7912.51
7912.09
7912.47
7912.12
7912.32
7911.92
7912.09
7911.53
7911.74
7910.97
7911.26
7910.3
7910.62
7909.56
7909.74
7908.86
7908.5
7996.21
7996.61
7996.94
7997.05
7997.54
7997.45
7997.96
7997.84
7998.19
7998.21
7998.28
7998.48
7998.31
7998.63
7998.28
7998.7
7998.16
7998.71
7997.99
7998.63
7997.81
7998.41
7997.74
7997.95
8078.21
8078.66
8078.74
8079.35
8079.21
8079.96
8079.69
8080.45
8080.22
8080.82
8080.72
8081.2
8081.12
8081.63
8081.45
8082.07
8081.73
8082.51
8082.02
8082.95
8082.35
8083.33
8082.82
8083.58
8156.79
8157.16
8157.51
8157.66
8158.21
8158.23
8158.83
8158.89
8159.38
8159.62
8159.91
8160.36
8160.48
8161.11
8161.1
8161.89
8161.74
8162.73
8162.43
8163.63
8163.22
8164.54
8164.18
8165.42
8232.06
8232.48
8232.59
8233.2
8233.15
8233.94
8233.83
8234.65
8234.64
8235.37
8235.51
8236.2
8236.38
8237.16
8237.29
8238.24
8238.25
8239.44
8239.31
8240.74
8240.5
8242.13
8241.88
8243.56
8304.06
8304.39
8304.74
8304.93
8305.5
8305.63
8306.27
8306.51
8307.07
8307.52
8307.95
8308.63
8308.97
8309.85
8310.11
8311.21
8311.36
8312.72
8312.74
8314.38
8314.28
8316.19
8316.04
8318.1
8372.88
8373.26
8373.4
8373.98
8374.04
8374.79
8374.88
8375.68
8375.9
8376.69
8377.04
8377.88
8378.28
8379.28
8379.65
8380.87
8381.15
8382.66
8382.81
8384.64
8384.66
8386.82
8386.76
8389.15
8438.61
8438.91
8439.24
8439.49
8440.02
8440.29
8440.9
8441.33
8441.9
8442.55
8443.08
8443.94
8444.45
8445.52
8446
8447.33
8447.72
8449.36
8449.63
8451.63
8451.75
8454.14
8454.14
8456.84
8501.33
8501.67
8501.85
8502.36
8502.56
8503.22
8503.51
8504.25
8504.67
8505.49
8506.01
8506.97
8507.54
8508.7
8509.26
8510.69
8511.18
8512.93
8513.3
8515.45
8515.67
8518.25
8518.33
8521.26
8561.15
8561.44
8561.73
8562.05
8562.5
8562.93
8563.47
8564.06
8564.64
8565.43
8566.04
8567.04
8567.68
8568.91
8569.54
8571.05
8571.63
8573.49
8573.95
8576.22
8576.53
8579.25
8579.35
8582.63
8618.17
8618.45
8618.68
8619.11
8619.44
8620.01
8620.45
8621.16
8621.71
8622.58
8623.21
8624.27
8624.96
8626.25
8626.95
8628.53
8629.19
8631.13
8631.68
8634.06
8634.44
8637.31
8637.46
8640.91
8672.48
8672.74
8673
8673.36
8673.77
8674.28
8674.8
8675.49
8676.09
8676.97
8677.66
8678.75
8679.49
8680.83
8681.59
8683.23
8683.96
8685.98
8686.59
8689.07
8689.51
8692.51
8692.71
8696.32
8724.18
8724.43
8724.67
8725.06
8725.44
8726
8726.5
8727.22
8727.84
8728.75
8729.46
8730.59
8731.38
8732.76
8733.57
8735.27
8736.05
8738.13
8738.81
8741.37
8741.87
8744.98
8745.23
8748.96
8773.38
8773.61
8773.86
8774.24
8774.63
8775.18
8775.7
8776.43
8777.07
8778
8778.74
8779.9
8780.72
8782.14
8783
8784.74
8785.57
8787.7
8788.45
8791.06
8791.62
8794.82
8795.11
8798.97
8820.18
8820.4
8820.64
8821.02
8821.41
8821.96
8822.49
8823.23
8823.89
8824.84
8825.6
8826.78
8827.63
8829.08
8829.97
8831.75
8832.63
8834.8
8835.59
8838.26
8838.87
8842.14
8842.46
8846.44
8864.67
8864.88
8865.11
8865.49
8865.88
8866.44
8866.97
8867.72
8868.39
8869.35
8870.13
8871.33
8872.2
8873.68
8874.59
8876.4
8877.31
8879.52
8880.35
8883.06
8883.71
8887.04
8887.4
8891.47
8906.96
8907.16
8907.39
8907.75
8908.15
8908.7
8909.24
8910
8910.67
8911.65
8912.44
8913.66
8914.54
8916.04
8916.97
8918.81
8919.74
8921.98
8922.83
8925.58
8926.25
8929.62
8930
8934.14
8947.14
8947.32
8947.55
8947.91
8948.3
8948.86
8949.4
8950.16
8950.83
8951.82
8952.61
8953.85
8954.74
8956.26
8957.2
8959.06
8960
8962.27
8963.13
8965.91
8966.59
8970
8970.38
8974.55
8985.31
8985.48
8985.7
8986.06
8986.44
8987
8987.53
8988.3
8988.97
8989.97
8990.77
8992.01
8992.9
8994.44
8995.38
8997.26
8998.2
9000.5
9001.35
9004.17
9004.83
9008.28
9008.65
9012.83
9021.55
9021.71
9021.92
9022.28
9022.66
9023.21
9023.75
9024.51
9025.19
9026.18
9026.98
9028.23
9029.13
9030.67
9031.62
9033.51
9034.45
9036.76
9037.61
9040.44
9041.1
9044.56
9044.93
9049.12
9055.96
9056.11
9056.32
9056.66
9057.04
9057.59
9058.12
9058.89
9059.56
9060.56
9061.35
9062.61
9063.5
9065.05
9066
9067.89
9068.83
9071.15
9072
9074.84
9075.5
9078.96
9079.32
9083.51
9088.62
9088.76
9088.96
9089.3
9089.67
9090.22
9090.75
9091.51
9092.18
9093.18
9093.97
9095.23
9096.12
9097.66
9098.61
9100.51
9101.45
9103.76
9104.61
9107.45
9108.11
9111.57
9111.93
9116.12
9119.61
9119.74
9119.94
9120.28
9120.64
9121.18
9121.7
9122.47
9123.13
9124.13
9124.91
9126.17
9127.05
9128.6
9129.54
9131.43
9132.37
9134.69
9135.54
9138.36
9139.02
9142.47
9142.84
9147.01
9149.01
9149.14
9149.33
9149.66
9150.02
9150.56
9151.08
9151.83
9152.49
9153.48
9154.27
9155.52
9156.4
9157.94
9158.88
9160.76
9161.7
9164
9164.85
9167.67
9168.33
9171.76
9172.13
9176.29
9176.91
9177.03
9177.22
9177.54
9177.89
9178.43
9178.94
9179.69
9180.34
9181.33
9182.1
9183.35
9184.22
9185.76
9186.69
9188.57
9189.5
9191.79
9192.64
9195.44
9196.09
9199.52
9199.87
9204.02
9203.37
9203.48
9203.66
9203.98
9204.33
9204.86
9205.36
9206.11
9206.75
9207.73
9208.5
9209.74
9210.6
9212.13
9213.05
9214.92
9215.84
9218.12
9218.96
9221.75
9222.42
9225.79
9226.15
9230.28
9228.45
9228.56
9228.74
9229.05
9229.39
9229.92
9230.41
9231.16
9231.79
9232.77
9233.52
9234.76
9235.6
9237.13
9238.04
9239.9
9240.81
9243.08
9243.91
9246.67
9247.29
9250.73
9251.05
9255.13
9252.24
9252.34
9252.52
9252.83
9253.16
9253.68
9254.16
9254.9
9255.52
9256.5
9257.23
9258.47
9259.3
9260.83
9261.71
9263.58
9264.46
9266.72
9267.53
9270.28
9270.9
9274.29
9274.61
9278.66
9274.79
9274.89
9275.06
9275.36
9275.69
9276.2
9276.67
9277.41
9278.02
9279
9279.71
9280.95
9281.75
9283.28
9284.14
9286
9286.85
9289.12
9289.9
9292.64
9293.24
9296.6
9296.91
9300.93
9296.16
9296.25
9296.42
9296.72
9297.04
9297.55
9298.01
9298.75
9299.33
9300.31
9301.01
9302.25
9303.02
9304.56
9305.38
9307.25
9308.06
9310.33
9311.07
9313.82
9314.38
9317.72
9318.01
9321.99
9316.41
9316.5
9316.66
9316.96
9317.27
9317.78
9318.22
9318.96
9319.53
9320.51
9321.18
9322.42
9323.17
9324.71
9325.49
9327.37
9328.14
9330.42
9331.1
9333.88
9334.38
9337.71
9337.98
9341.91
9335.59
9335.68
9335.83
9336.13
9336.43
9336.94
9337.37
9338.11
9338.66
9339.64
9340.29
9341.53
9342.25
9343.8
9344.54
9346.43
9347.15
9349.45
9350.09
9352.83
9353.3
9356.62
9356.87
9360.75
9353.76
9353.84
9354
9354.29
9354.58
9355.09
9355.51
9356.24
9356.78
9357.76
9358.38
9359.63
9360.31
9361.87
9362.57
9364.48
9365.15
9367.45
9368.02
9370.82
9371.22
9374.51
9374.74
9378.57
9370.96
9371.05
9371.19
9371.48
9371.77
9372.27
9372.68
9373.41
9373.93
9374.91
9375.51
9376.76
9377.42
9378.97
9379.64
9381.55
9382.17
9384.5
9385.02
9387.8
9388.17
9391.45
9391.65
9395.44
9387.25
9387.33
9387.47
9387.76
9388.04
9388.54
9388.94
9389.67
9390.17
9391.15
9391.72
9392.98
9393.6
9395.16
9395.79
9397.71
9398.31
9400.6
9401.09
9403.87
9404.22
9407.46
9407.65
9411.4
9402.66
9402.74
9402.88
9403.17
9403.43
9403.93
9404.32
9405.05
9405.53
9406.51
9407.06
9408.32
9408.91
9410.48
9411.07
9412.99
9413.52
9415.87
9416.3
9419.07
9419.38
9422.6
9422.78
9426.48
9417.24
9417.32
9417.45
9417.74
9417.99
9418.5
9418.86
9419.6
9420.05
9421.05
9421.56
9422.84
9423.38
9424.97
9425.5
9427.47
9427.93
9430.28
9430.67
9433.43
9433.73
9436.91
9437.08
9440.73
9431.03
9431.1
9431.23
9431.52
9431.76
9432.27
9432.62
9433.36
9433.79
9434.79
9435.27
9436.57
9437.06
9438.67
9439.14
9441.13
9441.55
9443.9
9444.26
9447
9447.28
9450.43
9450.59
9454.18
9444.05
9444.13
9444.25
9444.54
9444.77
9445.29
9445.61
9446.37
9446.76
9447.79
9448.22
9449.54
9449.97
9451.63
9452.05
9454.03
9454.42
9456.76
9457.1
9459.82
9460.08
9463.19
9463.35
9466.89
9456.36
9456.43
9456.55
9456.84
9457.06
9457.59
9457.88
9458.66
9459
9460.06
9460.44
9461.79
9462.18
9463.84
9464.23
9466.21
9466.58
9468.9
9469.23
9471.91
9472.16
9475.24
9475.39
9478.88
9467.98
9468.05
9468.16
9468.46
9468.66
9469.19
9469.47
9470.25
9470.58
9471.64
9471.99
9473.34
9473.71
9475.36
9475.73
9477.7
9478.05
9480.36
9480.67
9483.33
9483.57
9486.61
9486.75
9490.2
9478.93
9479.01
9479.11
9479.41
9479.6
9480.14
9480.4
9481.19
9481.49
9482.55
9482.89
9484.23
9484.59
9486.23
9486.58
9488.54
9488.87
9491.16
9491.45
9494.08
9494.31
9497.32
9497.45
9500.86
9489.26
9489.33
9489.44
9489.73
9489.92
9490.45
9490.7
9491.48
9491.78
9492.83
9493.16
9494.49
9494.84
9496.46
9496.81
9498.74
9499.07
9501.33
9501.61
9504.22
9504.44
9507.41
9507.54
9510.9
9498.98
9499.06
9499.16
9499.45
9499.63
9500.16
9500.41
9501.18
9501.47
9502.51
9502.84
9504.15
9504.49
9506.1
9506.43
9508.35
9508.66
9510.9
9511.17
9513.75
9513.97
9516.9
9517.02
9520.35
9508.13
9508.2
9508.3
9508.59
9508.77
9509.29
9509.53
9510.3
9510.59
9511.62
9511.93
9513.24
9513.56
9515.16
9515.48
9517.38
9517.68
9519.9
9520.16
9522.71
9522.92
9525.82
9525.94
9529.22
9516.73
9516.8
9516.9
9517.18
9517.37
9517.87
9518.12
9518.87
9519.15
9520.17
9520.48
9521.77
9522.08
9523.67
9523.98
9525.86
9526.15
9528.34
9528.6
9531.12
9531.33
9534.19
9534.31
9537.55
9524.8
9524.86
9524.98
9525.23
9525.44
9525.91
9526.18
9526.89
9527.2
9528.18
9528.5
9529.77
9530.08
9531.64
9531.95
9533.81
9534.09
9536.27
9536.51
9539.01
9539.2
9542.04
9542.16
9545.36
9532.36
9532.41
9532.54
9532.77
9533.01
9533.43
9533.74
9534.4
9534.75
9535.68
9536.01
9537.25
9537.57
9539.11
9539.41
9541.26
9541.52
9543.68
9543.92
9546.39
9546.58
9549.38
9549.49
9552.66
9539.43
9539.48
9539.62
9539.83
9540.08
9540.47