/*--------------------------------*- C++ -*----------------------------------*\
  =========                 |
  \\      /  F ield         | OpenFOAM: The Open Source CFD Toolbox
   \\    /   O peration     | Website:  https://openfoam.org
    \\  /    A nd           | Version:  10
     \\/     M anipulation  |
\*---------------------------------------------------------------------------*/
FoamFile
{
    format      ascii;
    class       surfaceScalarField;
    location    "0.17";
    object      phi;
}
// * * * * * * * * * * * * * * * * * * * * * * * * * * * * * * * * * * * * * //

dimensions      [1 0 -1 0 0 0 0];

internalField   nonuniform List<scalar> 
8154
(
-5.83871e-09
-2.21471e-08
-5.69871e-08
-9.22327e-08
-1.72111e-07
-2.26787e-07
-3.708e-07
-4.55279e-07
-6.75631e-07
-8.15902e-07
-1.10647e-06
-1.34003e-06
-1.67011e-06
-2.02979e-06
-2.36349e-06
-2.86798e-06
-3.25551e-06
-3.98617e-06
-4.56573e-06
-5.50489e-06
-6.82064e-06
-7.26273e-06
-6.86054e-06
-0.000277452
-0.000832408
2.40178e-08
-0.00138753
9.62351e-08
-0.00194297
2.13241e-07
-0.0024988
3.77838e-07
-0.00305517
5.76797e-07
-0.00361221
8.22907e-07
-0.00416991
1.08774e-06
-0.00472869
1.3969e-06
-0.00528816
1.7099e-06
-0.00584906
2.05443e-06
-0.00641087
2.40055e-06
-0.0069741
2.74581e-06
-0.00753902
3.11838e-06
-0.00810451
3.43446e-06
-0.00867353
3.84785e-06
-0.00924064
4.12471e-06
-0.00981538
4.5734e-06
-0.0103837
4.92541e-06
-0.0109651
5.13948e-06
-0.0115343
5.28192e-06
-0.012124
5.11891e-06
-0.0126954
4.0343e-06
-0.0132935
2.44146e-06
-0.000277475
-0.000832478
2.63353e-08
-0.00138765
1.04793e-07
-0.00194313
2.34677e-07
-0.00249899
4.10014e-07
-0.00305541
6.34817e-07
-0.00361247
8.89093e-07
-0.00417021
1.19401e-06
-0.00472899
1.50031e-06
-0.00528849
1.86569e-06
-0.00584939
2.18895e-06
-0.00641121
2.59102e-06
-0.00697445
2.89048e-06
-0.00753932
3.29716e-06
-0.00810491
3.53762e-06
-0.00867379
3.90209e-06
-0.00924107
4.10328e-06
-0.00981571
4.38945e-06
-0.0103839
5.00191e-06
-0.0109652
4.66671e-06
-0.0115341
5.23481e-06
-0.0121229
5.33403e-06
-0.0126938
5.04121e-06
-0.013291
4.22253e-06
-0.000277501
-0.000832555
2.12733e-08
-0.00138778
8.49113e-08
-0.00194331
1.88032e-07
-0.00249922
3.30391e-07
-0.00305566
5.01554e-07
-0.00361277
7.0691e-07
-0.00417051
9.22077e-07
-0.00472935
1.16561e-06
-0.00528881
1.39271e-06
-0.00584978
1.64e-06
-0.0064115
1.84391e-06
-0.00697485
2.04748e-06
-0.00753955
2.19568e-06
-0.00810527
2.28247e-06
-0.00867397
2.35167e-06
-0.00924134
2.2046e-06
-0.0098163
2.34269e-06
-0.0103836
1.89856e-06
-0.0109658
1.77959e-06
-0.0115342
1.39178e-06
-0.0121226
1.15766e-06
-0.012693
7.2105e-07
-0.0132868
5.09312e-07
-0.000277522
-0.000832618
2.55071e-08
-0.00138788
1.01868e-07
-0.00194344
2.26009e-07
-0.00249938
3.97704e-07
-0.00305586
6.0535e-07
-0.00361298
8.55309e-07
-0.00417075
1.11897e-06
-0.00472957
1.41979e-06
-0.00528905
1.70108e-06
-0.00584998
2.01502e-06
-0.00641169
2.26975e-06
-0.00697498
2.54614e-06
-0.00753963
2.73222e-06
-0.00810533
2.89402e-06
-0.0086738
2.98348e-06
-0.00924146
2.89596e-06
-0.00981583
2.97362e-06
-0.0103834
2.282e-06
-0.0109654
2.51568e-06
-0.0115339
1.72467e-06
-0.0121222
1.20747e-06
-0.0126927
3.80136e-07
-0.0132863
-1.76135e-07
-0.000277547
-0.000832693
3.36182e-08
-0.001388
1.3422e-07
-0.00194361
2.99152e-07
-0.00249959
5.26366e-07
-0.0030561
8.07735e-07
-0.00361324
1.14141e-06
-0.00417105
1.51154e-06
-0.00472984
1.91839e-06
-0.00528935
2.33764e-06
-0.00585022
2.77146e-06
-0.00641196
3.19189e-06
-0.00697516
3.59383e-06
-0.00753978
3.96293e-06
-0.00810542
4.25785e-06
-0.0086737
4.52028e-06
-0.00924152
4.61359e-06
-0.00981512
4.72973e-06
-0.0103837
4.40021e-06
-0.0109646
4.36537e-06
-0.0115334
3.67158e-06
-0.0121213
3.2111e-06
-0.0126922
2.27e-06
-0.0132864
1.34626e-06
-0.00027758
-0.000832792
3.75372e-08
-0.00138816
1.49873e-07
-0.00194384
3.34342e-07
-0.00249986
5.88397e-07
-0.00305643
9.0421e-07
-0.0036136
1.27816e-06
-0.00417145
1.69584e-06
-0.00473026
2.15323e-06
-0.00528978
2.62961e-06
-0.00585063
3.11913e-06
-0.00641235
3.60024e-06
-0.00697551
4.05614e-06
-0.00754006
4.48055e-06
-0.00810567
4.82067e-06
-0.00867378
5.12198e-06
-0.00924162
5.24825e-06
-0.00981477
5.36858e-06
-0.0103836
5.08281e-06
-0.0109638
4.96707e-06
-0.0115329
4.21284e-06
-0.0121204
3.67243e-06
-0.0126912
2.63803e-06
-0.0132851
1.61279e-06
-0.000277617
-0.000832903
4.13675e-08
-0.00138834
1.65176e-07
-0.00194409
3.68613e-07
-0.00250018
6.48875e-07
-0.0030568
9.97719e-07
-0.00361401
1.41109e-06
-0.0041719
1.87377e-06
-0.00473073
2.38122e-06
-0.00529026
2.91107e-06
-0.00585111
3.45725e-06
-0.0064128
3.99446e-06
-0.00697593
4.50709e-06
-0.00754039
4.98135e-06
-0.00810597
5.36984e-06
-0.00867389
5.70476e-06
-0.00924173
5.86063e-06
-0.00981446
5.99631e-06
-0.0103835
5.72035e-06
-0.0109631
5.59911e-06
-0.0115324
4.806e-06
-0.0121193
4.18989e-06
-0.0126902
2.98848e-06
-0.0132834
1.79849e-06
-0.000277658
-0.000833026
4.5061e-08
-0.00138855
1.79909e-07
-0.00194437
4.01567e-07
-0.00250052
7.06819e-07
-0.00305721
1.08715e-06
-0.00361447
1.53761e-06
-0.0041724
2.04291e-06
-0.00473125
2.59691e-06
-0.0052908
3.17755e-06
-0.00585163
3.77602e-06
-0.0064133
4.36736e-06
-0.00697639
4.93212e-06
-0.00754077
5.45551e-06
-0.0081063
5.88758e-06
-0.00867403
6.25514e-06
-0.00924185
6.43889e-06
-0.00981416
6.57999e-06
-0.0103834
6.33099e-06
-0.0109623
6.17971e-06
-0.0115317
5.3714e-06
-0.0121181
4.80573e-06
-0.012689
3.36271e-06
-0.0132816
2.02204e-06
-0.000277703
-0.00083316
4.87065e-08
-0.00138877
1.94439e-07
-0.00194467
4.34006e-07
-0.0025009
7.63749e-07
-0.00305766
1.17472e-06
-0.00361497
1.66116e-06
-0.00417295
2.20739e-06
-0.00473183
2.80604e-06
-0.00529139
3.4348e-06
-0.00585222
4.08323e-06
-0.00641386
4.72573e-06
-0.0069769
5.34077e-06
-0.00754119
5.91115e-06
-0.00810666
6.38582e-06
-0.0086742
6.78477e-06
-0.00924198
6.99375e-06
-0.00981389
7.13496e-06
-0.0103832
6.90461e-06
-0.0109614
6.73022e-06
-0.0115311
5.89001e-06
-0.0121167
4.90005e-06
-0.0126876
3.69314e-06
-0.0132796
2.21499e-06
-0.000277751
-0.000833304
5.23032e-08
-0.001389
2.08769e-07
-0.001945
4.65972e-07
-0.00250131
8.19787e-07
-0.00305814
1.26076e-06
-0.00361551
1.78228e-06
-0.00417355
2.36809e-06
-0.00473245
3.00964e-06
-0.00529203
3.68414e-06
-0.00585285
4.37976e-06
-0.00641446
5.07023e-06
-0.00697746
5.73255e-06
-0.00754166
6.34741e-06
-0.00810706
6.863e-06
-0.00867439
7.29289e-06
-0.00924211
7.5253e-06
-0.00981364
7.66532e-06
-0.010383
7.44864e-06
-0.0109606
7.24496e-06
-0.0115304
6.39462e-06
-0.0121151
5.5963e-06
-0.0126861
4.03525e-06
-0.0132773
2.3981e-06
-0.000277803
-0.00083346
5.58655e-08
-0.00138926
2.22965e-07
-0.00194535
4.97643e-07
-0.00250174
8.75323e-07
-0.00305866
1.34601e-06
-0.00361609
1.9022e-06
-0.00417418
2.52693e-06
-0.00473312
3.2104e-06
-0.00529272
3.92904e-06
-0.00585353
4.66975e-06
-0.00641512
5.40531e-06
-0.00697807
6.11182e-06
-0.00754216
6.76796e-06
-0.00810748
7.32216e-06
-0.00867461
7.78226e-06
-0.00924224
8.0394e-06
-0.0098134
8.18553e-06
-0.0103828
7.97111e-06
-0.0109597
7.7416e-06
-0.0115296
6.85829e-06
-0.0121136
6.0062e-06
-0.0126844
4.35614e-06
-0.0132749
2.58554e-06
-0.000277859
-0.000833626
5.93856e-08
-0.00138953
2.36998e-07
-0.00194572
5.28981e-07
-0.00250221
9.30338e-07
-0.00305921
1.43053e-06
-0.00361671
2.02121e-06
-0.00417486
2.68456e-06
-0.00473383
3.40948e-06
-0.00529346
4.17135e-06
-0.00585426
4.95568e-06
-0.00641582
5.73399e-06
-0.00697872
6.48172e-06
-0.0075427
7.17551e-06
-0.00810794
7.76476e-06
-0.00867486
8.2522e-06
-0.00924238
8.53238e-06
-0.00981317
8.68506e-06
-0.0103826
8.46817e-06
-0.0109588
8.20367e-06
-0.0115287
7.28293e-06
-0.0121119
6.37416e-06
-0.0126827
4.65103e-06
-0.0132723
2.75564e-06
-0.000277918
-0.000833803
6.2862e-08
-0.00138982
2.50865e-07
-0.00194612
5.59971e-07
-0.00250271
9.84814e-07
-0.0030598
1.51434e-06
-0.00361737
2.1394e-06
-0.00417558
2.84128e-06
-0.00473459
3.60757e-06
-0.00529424
4.41238e-06
-0.00585503
5.23966e-06
-0.00641656
6.05933e-06
-0.0069794
6.84603e-06
-0.00754328
7.57425e-06
-0.00810842
8.19476e-06
-0.00867512
8.70587e-06
-0.00924252
9.00597e-06
-0.00981294
9.16285e-06
-0.0103823
8.94644e-06
-0.0109579
8.64217e-06
-0.0115278
7.67626e-06
-0.0121102
6.70515e-06
-0.0126808
4.89529e-06
-0.0132695
2.90306e-06
-0.00027798
-0.00083399
6.62963e-08
-0.00139013
2.64563e-07
-0.00194655
5.90593e-07
-0.00250323
1.03868e-06
-0.00306042
1.59728e-06
-0.00361807
2.25649e-06
-0.00417635
2.99674e-06
-0.00473539
3.80435e-06
-0.00529506
4.65206e-06
-0.00585585
5.52218e-06
-0.00641734
6.38271e-06
-0.00698013
7.20717e-06
-0.00754389
7.96757e-06
-0.00810892
8.61598e-06
-0.00867541
9.14663e-06
-0.00924267
9.46255e-06
-0.0098127
9.622e-06
-0.010382
9.408e-06
-0.0109569
9.06177e-06
-0.0115268
8.05067e-06
-0.0121084
7.01043e-06
-0.0126788
5.05456e-06
-0.0132666
3.02901e-06
-0.000278046
-0.000834187
6.96946e-08
-0.00139045
2.78111e-07
-0.00194699
6.20863e-07
-0.00250379
1.09189e-06
-0.00306108
1.67917e-06
-0.0036188
2.3721e-06
-0.00417715
3.1503e-06
-0.00473623
3.99891e-06
-0.00529592
4.88936e-06
-0.0058567
5.80235e-06
-0.00641815
6.70382e-06
-0.00698088
7.56586e-06
-0.00754453
8.35764e-06
-0.00810945
9.03192e-06
-0.00867572
9.57865e-06
-0.00924282
9.90544e-06
-0.00981247
1.00635e-05
-0.0103817
9.8495e-06
-0.0109559
9.46245e-06
-0.0115257
8.41265e-06
-0.0121064
7.30879e-06
-0.0126767
5.27576e-06
-0.0132636
3.16129e-06
-0.000278116
-0.000834394
7.30596e-08
-0.00139079
2.91519e-07
-0.00194746
6.50779e-07
-0.00250437
1.1444e-06
-0.00306177
1.75983e-06
-0.00361958
2.48579e-06
-0.00417799
3.30111e-06
-0.00473711
4.18994e-06
-0.00529683
5.1225e-06
-0.0058576
6.07804e-06
-0.00641901
7.02054e-06
-0.00698166
7.92053e-06
-0.0075452
8.74415e-06
-0.00810999
9.44414e-06
-0.00867603
1.00057e-05
-0.00924297
1.03399e-05
-0.00981225
1.04901e-05
-0.0103813
1.02635e-05
-0.0109548
9.84273e-06
-0.0115246
8.75477e-06
-0.0121044
7.58893e-06
-0.0126746
5.49379e-06
-0.0132604
3.28497e-06
-0.000278189
-0.000834612
7.63813e-08
-0.00139115
3.04744e-07
-0.00194795
6.80234e-07
-0.00250499
1.19598e-06
-0.00306249
1.83886e-06
-0.00362039
2.59689e-06
-0.00417888
3.44812e-06
-0.00473804
4.37583e-06
-0.00529778
5.34918e-06
-0.00585853
6.34625e-06
-0.0064199
7.32929e-06
-0.00698248
8.26737e-06
-0.00754589
9.1237e-06
-0.00811054
9.85048e-06
-0.00867636
1.04281e-05
-0.00924311
1.077e-05
-0.00981201
1.09112e-05
-0.0103808
1.06681e-05
-0.0109537
1.02127e-05
-0.0115235
9.0871e-06
-0.0121023
7.85874e-06
-0.0126724
5.69389e-06
-0.0132571
3.40117e-06
-0.000278265
-0.00083484
7.9634e-08
-0.00139153
3.17681e-07
-0.00194847
7.09013e-07
-0.00250563
1.24628e-06
-0.00306325
1.91574e-06
-0.00362124
2.70465e-06
-0.0041798
3.59029e-06
-0.00473901
4.5551e-06
-0.00529877
5.56731e-06
-0.00585951
6.60409e-06
-0.00642083
7.62629e-06
-0.00698333
8.60181e-06
-0.0075466
9.49125e-06
-0.00811111
1.02461e-05
-0.00867669
1.08419e-05
-0.00924325
1.11936e-05
-0.00981175
1.13278e-05
-0.0103804
1.10705e-05
-0.0109526
1.05764e-05
-0.0115222
9.41631e-06
-0.0121001
8.12403e-06
-0.0126701
5.88835e-06
-0.0132537
3.51315e-06
-0.000278344
-0.000835077
8.27598e-08
-0.00139191
3.30112e-07
-0.001949
7.36652e-07
-0.00250629
1.29456e-06
-0.00306403
1.98945e-06
-0.00362212
2.80779e-06
-0.00418076
3.72603e-06
-0.00474002
4.7258e-06
-0.0052998
5.77443e-06
-0.00586053
6.84838e-06
-0.0064218
7.90735e-06
-0.00698422
8.91848e-06
-0.00754735
9.84026e-06
-0.00811169
1.06236e-05
-0.00867704
1.12397e-05
-0.00924337
1.16042e-05
-0.00981148
1.17353e-05
-0.0103799
1.14663e-05
-0.0109514
1.09332e-05
-0.0115209
9.7451e-06
-0.0120978
8.39215e-06
-0.0126677
6.08213e-06
-0.0132501
3.62372e-06
-0.000278427
-0.000835323
8.56821e-08
-0.00139232
3.41739e-07
-0.00194956
7.62533e-07
-0.00250699
1.33982e-06
-0.00306485
2.0586e-06
-0.00362303
2.9046e-06
-0.00418176
3.85338e-06
-0.00474106
4.88573e-06
-0.00530087
5.96804e-06
-0.00586158
7.07612e-06
-0.00642281
8.16872e-06
-0.00698514
9.2125e-06
-0.00754813
1.01644e-05
-0.0081123
1.0975e-05
-0.00867739
1.16123e-05
-0.0092435
1.19922e-05
-0.00981121
1.21252e-05
-0.0103793
1.18489e-05
-0.0109502
1.12808e-05
-0.0115195
1.00735e-05
-0.0120955
8.66447e-06
-0.0126652
6.28217e-06
-0.0132465
3.73685e-06
-0.000278512
-0.000835579
8.83127e-08
-0.00139274
3.52221e-07
-0.00195013
7.85918e-07
-0.0025077
1.38083e-06
-0.00306569
2.12148e-06
-0.00362398
2.99287e-06
-0.00418279
3.96976e-06
-0.00474214
5.03201e-06
-0.00530197
6.14508e-06
-0.00586266
7.28401e-06
-0.00642384
8.40665e-06
-0.00698608
9.47934e-06
-0.00754893
1.04578e-05
-0.00811293
1.12928e-05
-0.00867777
1.19499e-05
-0.00924362
1.23455e-05
-0.00981092
1.24844e-05
-0.0103787
1.22081e-05
-0.010949
1.16191e-05
-0.0115181
1.03934e-05
-0.0120931
8.93433e-06
-0.0126626
6.48913e-06
-0.0132428
3.8543e-06
-0.0002786
-0.000835842
9.05664e-08
-0.00139317
3.61219e-07
-0.00195073
8.06063e-07
-0.00250844
1.41633e-06
-0.00306656
2.17619e-06
-0.00362495
3.0701e-06
-0.00418384
4.07207e-06
-0.00474325
5.16115e-06
-0.00530311
6.30174e-06
-0.00586378
7.46809e-06
-0.00642491
8.61704e-06
-0.00698706
9.71454e-06
-0.00754976
1.07153e-05
-0.00811357
1.15705e-05
-0.00867816
1.22438e-05
-0.00924375
1.26528e-05
-0.00981064
1.27975e-05
-0.0103781
1.25246e-05
-0.0109478
1.19258e-05
-0.0115167
1.06834e-05
-0.0120907
9.18307e-06
-0.0126599
6.69319e-06
-0.0132389
3.9716e-06
-0.000278691
-0.000836112
9.23737e-08
-0.00139362
3.68452e-07
-0.00195133
8.22324e-07
-0.0025092
1.44515e-06
-0.00306745
2.2209e-06
-0.00362595
3.13367e-06
-0.00418493
4.15695e-06
-0.00474438
5.26903e-06
-0.00530427
6.43342e-06
-0.00586493
7.62342e-06
-0.006426
8.79482e-06
-0.00698805
9.91298e-06
-0.0075506
1.09316e-05
-0.00811423
1.18022e-05
-0.00867856
1.24871e-05
-0.00924389
1.29052e-05
-0.00981036
1.30525e-05
-0.0103775
1.27809e-05
-0.0109465
1.21714e-05
-0.0115151
1.09201e-05
-0.0120882
9.38556e-06
-0.0126572
6.86811e-06
-0.013235
4.07089e-06
-0.000278783
-0.000836388
9.36877e-08
-0.00139407
3.73723e-07
-0.00195196
8.34222e-07
-0.00250997
1.46636e-06
-0.00306836
2.25404e-06
-0.00362697
3.18121e-06
-0.00418604
4.22103e-06
-0.00474554
5.35132e-06
-0.00530545
6.53485e-06
-0.00586609
7.74411e-06
-0.00642712
8.93371e-06
-0.00698907
1.00683e-05
-0.00755147
1.11004e-05
-0.00811491
1.19816e-05
-0.00867897
1.26731e-05
-0.00924403
1.3095e-05
-0.00981008
1.32408e-05
-0.0103769
1.29668e-05
-0.0109453
1.2345e-05
-0.0115136
1.10881e-05
-0.0120856
9.5156e-06
-0.0126544
6.96899e-06
-0.0132309
4.11769e-06
-0.000278876
-0.000836667
9.44977e-08
-0.00139453
3.76979e-07
-0.00195259
8.41596e-07
-0.00251075
1.47957e-06
-0.00306928
2.27484e-06
-0.003628
3.21137e-06
-0.00418716
4.26216e-06
-0.00474672
5.40499e-06
-0.00530666
6.60199e-06
-0.00586728
7.82543e-06
-0.00642824
9.02843e-06
-0.00699009
1.01755e-05
-0.00755234
1.12168e-05
-0.00811559
1.2105e-05
-0.00867939
1.27982e-05
-0.00924417
1.322e-05
-0.00980981
1.33584e-05
-0.0103762
1.30789e-05
-0.010944
1.24433e-05
-0.011512
1.11837e-05
-0.0120831
9.56279e-06
-0.0126515
6.95835e-06
-0.0132267
4.08323e-06
-0.000278971
-0.000836949
9.51846e-08
-0.00139499
3.79733e-07
-0.00195322
8.47818e-07
-0.00251155
1.4907e-06
-0.00307022
2.29237e-06
-0.00362905
3.23689e-06
-0.0041883
4.29734e-06
-0.00474792
5.45164e-06
-0.00530787
6.66182e-06
-0.00586847
7.90005e-06
-0.00642939
9.11871e-06
-0.00699113
1.02818e-05
-0.00755322
1.13379e-05
-0.00811627
1.22394e-05
-0.00867981
1.29423e-05
-0.0092443
1.33713e-05
-0.00980952
1.35111e-05
-0.0103756
1.32333e-05
-0.0109427
1.25934e-05
-0.0115104
1.13367e-05
-0.0120805
9.68996e-06
-0.0126486
7.04609e-06
-0.0132226
4.16841e-06
-0.000279066
-0.000837233
9.54811e-08
-0.00139546
3.80919e-07
-0.00195386
8.50483e-07
-0.00251235
1.49545e-06
-0.00307116
2.29987e-06
-0.00363011
3.2479e-06
-0.00418945
4.31285e-06
-0.00474912
5.47295e-06
-0.00530911
6.69052e-06
-0.00586969
7.93797e-06
-0.00643054
9.16759e-06
-0.00699218
1.0343e-05
-0.00755412
1.14122e-05
-0.00811696
1.23263e-05
-0.00868023
1.304e-05
-0.00924443
1.34771e-05
-0.00980924
1.36204e-05
-0.0103749
1.33444e-05
-0.0109415
1.27007e-05
-0.0115087
1.14453e-05
-0.0120778
9.79386e-06
-0.0126457
7.1315e-06
-0.0132185
4.31397e-06
-0.000279161
-0.000837518
9.52763e-08
-0.00139593
3.80096e-07
-0.00195451
8.48624e-07
-0.00251315
1.49214e-06
-0.00307211
2.29473e-06
-0.00363117
3.24068e-06
-0.00419061
4.30353e-06
-0.00475034
5.46194e-06
-0.00531035
6.67871e-06
-0.00587091
7.92683e-06
-0.00643171
9.15897e-06
-0.00699324
1.0339e-05
-0.00755503
1.1415e-05
-0.00811766
1.23373e-05
-0.00868066
1.30593e-05
-0.00924456
1.35036e-05
-0.00980896
1.365e-05
-0.0103743
1.33749e-05
-0.0109402
1.27256e-05
-0.0115071
1.14721e-05
-0.0120752
9.81832e-06
-0.0126427
7.15984e-06
-0.0132143
3.98468e-06
-0.000279256
-0.000837803
9.46064e-08
-0.00139639
3.7742e-07
-0.00195515
8.42622e-07
-0.00251395
1.48152e-06
-0.00307305
2.27827e-06
-0.00363223
3.2173e-06
-0.00419177
4.27236e-06
-0.00475155
5.42261e-06
-0.00531159
6.63131e-06
-0.00587214
7.87221e-06
-0.00643289
9.09866e-06
-0.00699431
1.02755e-05
-0.00755595
1.13512e-05
-0.00811837
1.22766e-05
-0.0086811
1.30046e-05
-0.0092447
1.34565e-05
-0.00980869
1.3609e-05
-0.0103736
1.33378e-05
-0.010939
1.26843e-05
-0.0115054
1.14282e-05
-0.0120725
9.7554e-06
-0.0126398
7.14625e-06
-0.01321
3.93353e-06
-0.000279351
-0.000838085
9.34967e-08
-0.00139686
3.72999e-07
-0.00195579
8.3276e-07
-0.00251474
1.46419e-06
-0.00307399
2.25157e-06
-0.00363328
3.17953e-06
-0.00419291
4.2221e-06
-0.00475275
5.35888e-06
-0.00531283
6.55358e-06
-0.00587336
7.78065e-06
-0.00643406
8.99412e-06
-0.00699539
1.01601e-05
-0.00755687
1.12281e-05
-0.00811909
1.21502e-05
-0.00868155
1.28801e-05
-0.00924484
1.33391e-05
-0.00980841
1.35018e-05
-0.0103729
1.32422e-05
-0.0109377
1.25946e-05
-0.0115037
1.13412e-05
-0.0120699
9.64456e-06
-0.012637
7.08867e-06
-0.0132057
4.19676e-06
-0.000279444
-0.000838364
9.19729e-08
-0.00139732
3.66941e-07
-0.00195642
8.19295e-07
-0.00251553
1.44065e-06
-0.00307491
2.21552e-06
-0.00363432
3.12885e-06
-0.00419405
4.15504e-06
-0.00475394
5.27419e-06
-0.00531405
6.45037e-06
-0.00587457
7.65861e-06
-0.00643522
8.85345e-06
-0.00699645
1.00022e-05
-0.00755778
1.10555e-05
-0.00811981
1.19674e-05
-0.00868201
1.26931e-05
-0.009245
1.31557e-05
-0.00980815
1.33295e-05
-0.0103723
1.30881e-05
-0.0109365
1.24609e-05
-0.011502
1.123e-05
-0.0120673
9.54244e-06
-0.012634
7.01446e-06
-0.0132015
4.16434e-06
-0.000279536
-0.000838638
9.00736e-08
-0.00139777
3.59399e-07
-0.00195704
8.02562e-07
-0.0025163
1.41147e-06
-0.00307582
2.171e-06
-0.00363534
3.06659e-06
-0.00419516
4.07313e-06
-0.00475511
5.17133e-06
-0.00531526
6.32567e-06
-0.00587576
7.51168e-06
-0.00643637
8.68417e-06
-0.0069975
9.81146e-06
-0.00755869
1.08448e-05
-0.00812053
1.17405e-05
-0.00868247
1.2455e-05
-0.00924516
1.29149e-05
-0.00980791
1.30959e-05
-0.0103716
1.28734e-05
-0.0109352
1.22753e-05
-0.0115003
1.10836e-05
-0.0120648
9.43239e-06
-0.0126312
6.93591e-06
-0.0131974
4.11872e-06
-0.000279626
-0.000838907
8.78565e-08
-0.00139821
3.50595e-07
-0.00195764
7.83036e-07
-0.00251706
1.37744e-06
-0.00307672
2.11916e-06
-0.00363635
2.99423e-06
-0.00419626
3.97824e-06
-0.00475626
5.05268e-06
-0.00531644
6.18259e-06
-0.00587693
7.34405e-06
-0.00643749
8.49212e-06
-0.00699852
9.59586e-06
-0.00755958
1.06067e-05
-0.00812124
1.14824e-05
-0.00868292
1.21803e-05
-0.00924534
1.26308e-05
-0.00980769
1.28118e-05
-0.010371
1.26031e-05
-0.010934
1.20344e-05
-0.0114986
1.08898e-05
-0.0120623
9.28893e-06
-0.0126283
6.85556e-06
-0.0131932
4.0641e-06
-0.000279714
-0.00083917
8.53951e-08
-0.00139864
3.40817e-07
-0.00195824
7.61329e-07
-0.0025178
1.33957e-06
-0.00307759
2.06141e-06
-0.00363733
2.91357e-06
-0.00419733
3.87248e-06
-0.00475739
4.92058e-06
-0.00531759
6.02372e-06
-0.00587807
7.15873e-06
-0.00643859
8.28112e-06
-0.00699953
9.36068e-06
-0.00756046
1.03487e-05
-0.00812193
1.12039e-05
-0.00868337
1.18832e-05
-0.00924551
1.23202e-05
-0.00980748
1.24941e-05
-0.0103704
1.22909e-05
-0.0109329
1.17438e-05
-0.011497
1.06443e-05
-0.0120598
9.10687e-06
-0.0126256
6.7735e-06
-0.0131892
4.00508e-06
-0.000279799
-0.000839425
8.27719e-08
-0.00139906
3.30384e-07
-0.00195881
7.38131e-07
-0.00251852
1.29901e-06
-0.00307844
1.9994e-06
-0.00363828
2.82675e-06
-0.00419838
3.75833e-06
-0.00475849
4.77767e-06
-0.00531873
5.8517e-06
-0.00587919
6.9582e-06
-0.00643967
8.05357e-06
-0.00700051
9.10856e-06
-0.00756131
1.00745e-05
-0.0081226
1.09107e-05
-0.0086838
1.15731e-05
-0.00924567
1.19971e-05
-0.00980728
1.21615e-05
-0.0103699
1.19573e-05
-0.0109318
1.14198e-05
-0.0114955
1.03514e-05
-0.0120575
8.87243e-06
-0.0126228
6.64729e-06
-0.0131851
3.92819e-06
-0.000279882
-0.000839672
8.00628e-08
-0.00139947
3.19598e-07
-0.00195937
7.14103e-07
-0.00251922
1.25689e-06
-0.00307926
1.93481e-06
-0.00363921
2.73597e-06
-0.00419939
3.63849e-06
-0.00475956
4.62697e-06
-0.00531983
5.6695e-06
-0.00588028
6.74513e-06
-0.00644072
7.81143e-06
-0.00700147
8.84064e-06
-0.00756214
9.78464e-06
-0.00812326
1.06036e-05
-0.00868422
1.12525e-05
-0.00924583
1.16677e-05
-0.00980707
1.18269e-05
-0.0103693
1.16227e-05
-0.0109307
1.10891e-05
-0.011494
1.00374e-05
-0.0120552
8.58992e-06
-0.0126201
6.41916e-06
-0.0131812
3.81812e-06
-0.000279962
-0.000839911
7.73262e-08
-0.00139986
3.08691e-07
-0.00195991
6.89762e-07
-0.00251989
1.21412e-06
-0.00308006
1.86903e-06
-0.00364011
2.64319e-06
-0.00420038
3.51547e-06
-0.00476059
4.47144e-06
-0.0053209
5.48034e-06
-0.00588134
6.52255e-06
-0.00644174
7.55712e-06
-0.00700241
8.55799e-06
-0.00756296
9.47835e-06
-0.0081239
1.02798e-05
-0.00868463
1.09177e-05
-0.00924598
1.13289e-05
-0.00980686
1.14905e-05
-0.0103688
1.12943e-05
-0.0109296
1.07709e-05
-0.0114926
9.73638e-06
-0.0120531
8.31089e-06
-0.0126175
6.1864e-06
-0.0131774
3.67526e-06
-0.000280039
-0.000840142
7.45935e-08
-0.00140024
2.97789e-07
-0.00196044
6.65403e-07
-0.00252054
1.17124e-06
-0.00308084
1.80295e-06
-0.00364098
2.54972e-06
-0.00420133
3.39106e-06
-0.0047616
4.31341e-06
-0.00532194
5.28702e-06
-0.00588237
6.29348e-06
-0.00644274
7.2934e-06
-0.00700333
8.26249e-06
-0.00756376
9.15549e-06
-0.00812454
9.93648e-06
-0.00868504
1.05624e-05
-0.00924614
1.09712e-05
-0.00980665
1.11416e-05
-0.0103682
1.09625e-05
-0.0109286
1.04629e-05
-0.0114911
9.45529e-06
-0.0120509
8.0568e-06
-0.0126149
5.969e-06
-0.0131737
3.4893e-06
-0.000280114
-0.000840365
7.18644e-08
-0.00140061
2.86895e-07
-0.00196094
6.41039e-07
-0.00252117
1.12832e-06
-0.00308158
1.73671e-06
-0.00364182
2.45586e-06
-0.00420225
3.26583e-06
-0.00476257
4.15377e-06
-0.00532294
5.09087e-06
-0.00588336
6.05974e-06
-0.0064437
7.02229e-06
-0.00700422
7.95586e-06
-0.00756454
8.81681e-06
-0.00812516
9.57208e-06
-0.00868544
1.01815e-05
-0.0092463
1.05844e-05
-0.00980646
1.07637e-05
-0.0103677
1.06059e-05
-0.0109276
1.01437e-05
-0.0114897
9.17955e-06
-0.0120488
7.83464e-06
-0.0126124
5.78866e-06
-0.0131702
3.31628e-06
-0.000280185
-0.000840579
6.91157e-08
-0.00140096
2.7592e-07
-0.00196143
6.16487e-07
-0.00252178
1.08503e-06
-0.0030823
1.66987e-06
-0.00364263
2.36107e-06
-0.00420314
3.13917e-06
-0.0047635
3.99198e-06
-0.0053239
4.89155e-06
-0.00588432
5.82132e-06
-0.00644463
6.74431e-06
-0.00700507
7.63903e-06
-0.00756529
8.46331e-06
-0.00812577
9.18683e-06
-0.00868584
9.77301e-06
-0.00924647
1.01624e-05
-0.00980629
1.03437e-05
-0.0103673
1.02014e-05
-0.0109266
9.77979e-06
-0.0114884
8.86694e-06
-0.0120468
7.6082e-06
-0.0126099
5.64343e-06
-0.0131669
3.29181e-06
-0.000280254
-0.000840786
6.62972e-08
-0.0014013
2.64668e-07
-0.00196189
5.91313e-07
-0.00252236
1.04064e-06
-0.00308299
1.60129e-06
-0.00364341
2.26375e-06
-0.00420399
3.00903e-06
-0.0047644
3.82555e-06
-0.00532483
4.68627e-06
-0.00588524
5.57528e-06
-0.00644552
6.45671e-06
-0.00700589
7.3096e-06
-0.00756601
8.09329e-06
-0.00812636
8.77952e-06
-0.00868623
9.33582e-06
-0.00924665
9.7025e-06
-0.00980613
9.87452e-06
-0.0103669
9.73449e-06
-0.0109257
9.34337e-06
-0.0114871
8.47221e-06
-0.0120448
7.30443e-06
-0.0126076
5.43352e-06
-0.0131636
3.22672e-06
-0.000280321
-0.000840984
6.33388e-08
-0.00140163
2.5285e-07
-0.00196234
5.64878e-07
-0.00252292
9.94024e-07
-0.00308365
1.52927e-06
-0.00364415
2.1615e-06
-0.0042048
2.87215e-06
-0.00476525
3.65039e-06
-0.00532571
4.46993e-06
-0.00588611
5.31594e-06
-0.00644637
6.15289e-06
-0.00700667
6.96131e-06
-0.00756669
7.70001e-06
-0.00812691
8.34539e-06
-0.00868658
8.86457e-06
-0.00924681
9.20272e-06
-0.00980598
9.35031e-06
-0.0103665
9.20171e-06
-0.0109248
8.81832e-06
-0.0114859
7.97721e-06
-0.0120429
6.87795e-06
-0.0126054
5.1028e-06
-0.0131603
3.04437e-06
-0.000280384
-0.000841173
6.04931e-08
-0.00140194
2.41474e-07
-0.00196277
5.39454e-07
-0.00252346
9.49251e-07
-0.00308428
1.46017e-06
-0.00364486
2.06352e-06
-0.00420558
2.74108e-06
-0.00476607
3.48297e-06
-0.00532656
4.26347e-06
-0.00588695
5.06934e-06
-0.00644718
5.86475e-06
-0.00700741
6.63274e-06
-0.00756734
7.33002e-06
-0.00812743
7.94003e-06
-0.00868692
8.42569e-06
-0.00924696
8.74126e-06
-0.00980582
8.86312e-06
-0.0103661
8.7086e-06
-0.010924
8.32251e-06
-0.0114848
7.51102e-06
-0.0120411
6.45549e-06
-0.0126033
4.76682e-06
-0.0131573
2.81851e-06
-0.000280444
-0.000841353
5.79674e-08
-0.00140223
2.31395e-07
-0.00196318
5.16985e-07
-0.00252396
9.09789e-07
-0.00308488
1.39947e-06
-0.00364553
1.9777e-06
-0.00420632
2.62672e-06
-0.00476684
3.33736e-06
-0.00532736
4.08513e-06
-0.00588774
4.85751e-06
-0.00644794
5.61997e-06
-0.00700811
6.35571e-06
-0.00756794
7.02341e-06
-0.00812791
7.60778e-06
-0.00868722
8.07625e-06
-0.00924708
8.37935e-06
-0.00980567
8.49583e-06
-0.0103657
8.34164e-06
-0.0109231
7.97437e-06
-0.0114837
7.19054e-06
-0.0120394
6.19839e-06
-0.0126014
4.5711e-06
-0.0131545
2.74367e-06
-0.000280502
-0.000841527
5.5229e-08
-0.00140252
2.20477e-07
-0.00196357
4.92673e-07
-0.00252445
8.67136e-07
-0.00308546
1.33389e-06
-0.00364618
1.88504e-06
-0.00420703
2.50324e-06
-0.00476759
3.1801e-06
-0.00532813
3.89242e-06
-0.0058885
4.62844e-06
-0.00644868
5.35513e-06
-0.00700878
6.0557e-06
-0.00756853
6.69151e-06
-0.00812837
7.24787e-06
-0.00868751
7.69787e-06
-0.0092472
7.98711e-06
-0.00980552
8.10013e-06
-0.0103653
7.94701e-06
-0.0109224
7.60042e-06
-0.0114827
6.84229e-06
-0.0120378
5.90052e-06
-0.0125995
4.32867e-06
-0.0131517
2.66507e-06
-0.000280557
-0.000841692
5.22495e-08
-0.00140279
2.08608e-07
-0.00196394
4.66277e-07
-0.00252492
8.20876e-07
-0.00308601
1.26285e-06
-0.0036468
1.78474e-06
-0.0042077
2.36971e-06
-0.0047683
3.01008e-06
-0.00532886
3.6841e-06
-0.00588922
4.38079e-06
-0.00644938
5.06868e-06
-0.00700942
5.73111e-06
-0.00756908
6.3325e-06
-0.00812882
6.85825e-06
-0.00868779
7.28707e-06
-0.00924732
7.56015e-06
-0.00980537
7.67141e-06
-0.010365
7.52339e-06
-0.0109216
7.20656e-06
-0.0114818
6.47966e-06
-0.0120362
5.5775e-06
-0.0125979
4.03947e-06
-0.0131491
2.4681e-06
-0.00028061
-0.000841848
4.9008e-08
-0.00140305
1.95708e-07
-0.0019643
4.3761e-07
-0.00252536
7.70689e-07
-0.00308653
1.18584e-06
-0.00364738
1.67616e-06
-0.00420834
2.22535e-06
-0.00476897
2.82648e-06
-0.00532955
3.45931e-06
-0.0058899
4.11358e-06
-0.00645004
4.75974e-06
-0.00701002
5.38105e-06
-0.00756961
5.94598e-06
-0.00812924
6.43842e-06
-0.00868805
6.84331e-06
-0.00924744
7.09608e-06
-0.00980522
7.20603e-06
-0.0103646
7.06428e-06
-0.0109208
6.78827e-06
-0.0114809
6.10208e-06
-0.0120347
5.2822e-06
-0.0125963
4.04806e-06
-0.0131466
2.31535e-06
-0.000280659
-0.000841995
4.54888e-08
-0.00140329
1.81714e-07
-0.00196463
4.06524e-07
-0.00252577
7.16283e-07
-0.00308702
1.10241e-06
-0.00364793
1.55864e-06
-0.00420894
2.06936e-06
-0.0047696
2.62836e-06
-0.0053302
3.21703e-06
-0.00589054
3.82564e-06
-0.00645065
4.42714e-06
-0.00701059
5.0043e-06
-0.0075701
5.53115e-06
-0.00812963
5.98789e-06
-0.0086883
6.36687e-06
-0.00924755
6.59535e-06
-0.00980507
6.70469e-06
-0.0103644
6.56626e-06
-0.0109201
6.3271e-06
-0.01148
5.6822e-06
-0.0120332
4.97248e-06
-0.0125948
3.62295e-06
-0.0131443
2.15841e-06
-0.000280704
-0.000842131
4.16904e-08
-0.00140351
1.66609e-07
-0.00196494
3.72943e-07
-0.00252615
6.57486e-07
-0.00308747
1.01223e-06
-0.00364844
1.43169e-06
-0.0042095
1.90104e-06
-0.00477018
2.41483e-06
-0.0053308
2.95621e-06
-0.00589114
3.51574e-06
-0.00645123
4.06966e-06
-0.00701112
4.59943e-06
-0.00757056
5.08682e-06
-0.00813001
5.50532e-06
-0.00868852
5.85739e-06
-0.00924766
6.05885e-06
-0.00980492
6.17365e-06
-0.0103641
6.03636e-06
-0.0109195
5.82195e-06
-0.0114793
5.18536e-06
-0.0120318
4.6071e-06
-0.0125934
3.31521e-06
-0.0131421
1.97891e-06
-0.000280746
-0.000842256
3.763e-08
-0.00140372
1.50436e-07
-0.00196522
3.36911e-07
-0.00252651
5.9429e-07
-0.00308789
9.15221e-07
-0.00364891
1.29511e-06
-0.00421002
1.72004e-06
-0.00477072
2.18538e-06
-0.00533136
2.67615e-06
-0.00589169
3.18289e-06
-0.00645176
3.68637e-06
-0.00701161
4.16536e-06
-0.00757098
4.6123e-06
-0.00813036
4.98932e-06
-0.00868871
5.31397e-06
-0.00924777
5.48543e-06
-0.00980477
5.61484e-06
-0.0103639
5.47891e-06
-0.0109188
5.33306e-06
-0.0114787
5.03526e-06
-0.0120305
4.09573e-06
-0.012592
3.00423e-06
-0.0131401
1.78795e-06
-0.000280784
-0.000842369
3.33401e-08
-0.0014039
1.33289e-07
-0.00196547
2.98574e-07
-0.00252682
5.26904e-07
-0.00308827
8.11569e-07
-0.00364933
1.14912e-06
-0.00421048
1.52657e-06
-0.00477121
1.94009e-06
-0.00533186
2.37671e-06
-0.0058922
2.82655e-06
-0.00645224
3.27691e-06
-0.00701206
3.7016e-06
-0.00757135
4.10816e-06
-0.00813069
4.43941e-06
-0.00868888
4.73881e-06
-0.00924789
4.87411e-06
-0.00980463
5.02378e-06
-0.0103637
4.87717e-06
-0.0109181
4.82036e-06
-0.0114782
4.33811e-06
-0.0120294
3.66045e-06
-0.0125908
2.72153e-06
-0.0131384
1.61053e-06
-0.000280817
-0.000842469
2.88398e-08
-0.00140407
1.15243e-07
-0.0019657
2.58101e-07
-0.00252711
4.55617e-07
-0.0030886
7.0171e-07
-0.00364971
9.94336e-07
-0.00421089
1.32151e-06
-0.00477165
1.67993e-06
-0.00533231
2.05882e-06
-0.00589264
2.44713e-06
-0.00645266
2.84215e-06
-0.00701247
3.20817e-06
-0.00757167
3.57683e-06
-0.00813099
3.85548e-06
-0.00868902
4.13979e-06
-0.00924803
4.22968e-06
-0.00980446
4.42456e-06
-0.0103637
4.57102e-06
-0.0109176
4.15157e-06
-0.0114776
3.74861e-06
-0.0120285
3.19825e-06
-0.0125897
2.38917e-06
-0.0131367
1.41362e-06
-0.000280846
-0.000842555
2.40898e-08
-0.00140421
9.62924e-08
-0.0019659
2.15635e-07
-0.00252735
3.80855e-07
-0.00308889
5.86419e-07
-0.00365003
8.31892e-07