/*--------------------------------*- C++ -*----------------------------------*\
  =========                 |
  \\      /  F ield         | OpenFOAM: The Open Source CFD Toolbox
   \\    /   O peration     | Website:  https://openfoam.org
    \\  /    A nd           | Version:  10
     \\/     M anipulation  |
\*---------------------------------------------------------------------------*/
FoamFile
{
    format      ascii;
    class       volScalarField;
    location    "0.17";
    object      rho;
}
// * * * * * * * * * * * * * * * * * * * * * * * * * * * * * * * * * * * * * //

dimensions      [1 -3 0 0 0 0 0];

internalField   nonuniform List<scalar> 
4176
(
0.0308519
0.0308548
0.0308613
0.0308713
0.0308848
0.0309008
0.0309221
0.0309431
0.0309726
0.0309987
0.0310355
0.031068
0.0311101
0.0311508
0.0311955
0.0312472
0.0312902
0.0313582
0.0313963
0.0314823
0.0315139
0.0316192
0.0316394
0.0317535
0.0308596
0.0308623
0.0308678
0.0308774
0.0308888
0.0309042
0.0309223
0.0309425
0.0309679
0.0309927
0.0310249
0.0310551
0.0310927
0.0311299
0.0311708
0.0312171
0.0312568
0.0313173
0.0313527
0.0314296
0.0314567
0.0315569
0.0315777
0.0317064
0.0308789
0.0308817
0.0308875
0.0308974
0.0309093
0.0309251
0.0309441
0.0309648
0.0309915
0.0310168
0.0310506
0.0310816
0.0311211
0.0311591
0.0312023
0.0312498
0.0312919
0.0313549
0.0313904
0.031471
0.0314984
0.0315973
0.0316162
0.0317372
0.0309075
0.0309102
0.0309158
0.0309254
0.0309371
0.0309523
0.0309709
0.0309909
0.031017
0.0310414
0.0310747
0.0311043
0.0311435
0.0311798
0.0312227
0.0312683
0.03131
0.0313731
0.031404
0.031487
0.0315119
0.0316096
0.0316273
0.0317394
0.0309469
0.0309497
0.0309552
0.0309649
0.0309764
0.0309918
0.0310102
0.0310304
0.0310563
0.031081
0.031114
0.031144
0.0311828
0.0312193
0.0312623
0.0313072
0.031351
0.0314109
0.0314455
0.0315264
0.031553
0.0316501
0.0316694
0.031783
0.0309963
0.030999
0.0310045
0.0310141
0.0310254
0.0310407
0.0310586
0.0310788
0.0311041
0.0311287
0.0311609
0.0311907
0.0312289
0.031265
0.0313076
0.0313515
0.0313956
0.0314526
0.0314906
0.0315675
0.031595
0.0316909
0.031711
0.0318262
0.0310561
0.0310589
0.0310643
0.0310738
0.031085
0.0311002
0.031118
0.0311379
0.031163
0.0311874
0.0312194
0.0312488
0.0312867
0.0313224
0.0313649
0.031408
0.0314523
0.0315077
0.0315466
0.0316215
0.0316503
0.0317446
0.0317651
0.0318782
0.0311262
0.0311289
0.0311342
0.0311437
0.0311547
0.0311698
0.0311873
0.0312071
0.0312317
0.0312559
0.0312874
0.0313165
0.031354
0.0313891
0.0314313
0.0314734
0.0315179
0.0315714
0.0316115
0.0316837
0.0317136
0.0318064
0.0318273
0.0319391
0.0312066
0.0312094
0.0312146
0.031224
0.0312348
0.0312498
0.031267
0.0312866
0.031311
0.0313348
0.031366
0.0313947
0.0314317
0.0314662
0.0315082
0.0315494
0.0315939
0.0316456
0.0316867
0.0317564
0.0317872
0.0318782
0.0318995
0.0320096
0.0312974
0.0313001
0.0313053
0.0313146
0.0313252
0.03134
0.031357
0.0313764
0.0314004
0.0314239
0.0314546
0.0314829
0.0315195
0.0315533
0.0315949
0.0316352
0.0316796
0.0317297
0.0317715
0.0318388
0.0318706
0.031959
0.031981
0.0320892
0.0313986
0.0314013
0.0314064
0.0314156
0.0314261
0.0314407
0.0314574
0.0314766
0.0315002
0.0315233
0.0315536
0.0315814
0.0316176
0.0316507
0.0316919
0.0317313
0.0317754
0.031824
0.0318663
0.0319312
0.0319641
0.0320496
0.0320722
0.0321784
0.0315103
0.031513
0.0315179
0.0315271
0.0315373
0.0315518
0.0315682
0.0315871
0.0316103
0.0316331
0.0316629
0.0316902
0.0317258
0.0317583
0.031799
0.0318374
0.0318812
0.0319283
0.031971
0.0320335
0.0320668
0.0321503
0.0321729
0.0322771
0.0316325
0.0316352
0.0316401
0.0316491
0.0316591
0.0316734
0.0316895
0.0317081
0.0317309
0.0317533
0.0317826
0.0318094
0.0318445
0.0318762
0.0319164
0.0319537
0.0319972
0.0320428
0.0320858
0.0321458
0.0321799
0.0322606
0.0322834
0.0323854
0.0317654
0.031768
0.0317728
0.0317817
0.0317915
0.0318055
0.0318213
0.0318395
0.0318619
0.0318839
0.0319127
0.0319389
0.0319734
0.0320044
0.032044
0.0320803
0.0321233
0.0321674
0.0322106
0.0322681
0.0323026
0.032381
0.0324037
0.0325033
0.0319089
0.0319116
0.0319162
0.031925
0.0319346
0.0319484
0.0319637
0.0319817
0.0320036
0.032025
0.0320533
0.0320789
0.0321128
0.032143
0.032182
0.0322172
0.0322597
0.0323023
0.0323454
0.0324006
0.0324357
0.0325112
0.0325341
0.0326311
0.0320633
0.0320659
0.0320704
0.032079
0.0320884
0.0321019
0.0321169
0.0321344
0.0321559
0.0321768
0.0322045
0.0322294
0.0322627
0.032292
0.0323304
0.0323645
0.0324064
0.0324474
0.0324904
0.0325431
0.0325786
0.0326513
0.0326746
0.0327687
0.0322285
0.0322311
0.0322355
0.032244
0.032253
0.0322663
0.0322809
0.032298
0.0323189
0.0323393
0.0323664
0.0323906
0.0324231
0.0324516
0.0324892
0.0325222
0.0325635
0.032603
0.0326456
0.0326959
0.0327318
0.0328015
0.0328252
0.0329163
0.0324047
0.0324073
0.0324115
0.0324199
0.0324287
0.0324416
0.0324558
0.0324725
0.0324928
0.0325126
0.032539
0.0325624
0.0325942
0.0326217
0.0326585
0.0326904
0.0327309
0.0327689
0.0328111
0.032859
0.0328952
0.0329619
0.0329859
0.033074
0.0325921
0.0325946
0.0325987
0.0326069
0.0326153
0.032628
0.0326417
0.0326579
0.0326777
0.0326968
0.0327225
0.0327451
0.0327761
0.0328026
0.0328385
0.0328692
0.0329089
0.0329454
0.032987
0.0330325
0.0330689
0.0331326
0.0331569
0.0332418
0.0327906
0.0327931
0.032797
0.032805
0.0328131
0.0328255
0.0328387
0.0328544
0.0328735
0.032892
0.0329169
0.0329387
0.0329688
0.0329942
0.0330293
0.0330586
0.0330975
0.0331324
0.0331734
0.0332164
0.0332529
0.0333135
0.0333381
0.0334199
0.0330004
0.0330029
0.0330067
0.0330144
0.0330222
0.0330342
0.0330469
0.0330621
0.0330805
0.0330983
0.0331224
0.0331433
0.0331725
0.0331969
0.0332309
0.033259
0.0332969
0.03333
0.0333703
0.0334111
0.0334475
0.033505
0.0335298
0.0336083
0.0332217
0.0332241
0.0332277
0.0332352
0.0332427
0.0332542
0.0332664
0.033281
0.0332988
0.0333158
0.0333391
0.0333591
0.0333873
0.0334105
0.0334435
0.0334702
0.0335071
0.0335385
0.0335779
0.0336163
0.0336527
0.0337069
0.0337319
0.0338071
0.0334544
0.0334568
0.0334602
0.0334675
0.0334746
0.0334857
0.0334973
0.0335113
0.0335284
0.0335446
0.033567
0.0335861
0.0336133
0.0336353
0.0336672
0.0336925
0.0337283
0.033758
0.0337964
0.0338326
0.0338687
0.0339195
0.0339446
0.0340163
0.0336988
0.0337011
0.0337043
0.0337114
0.033718
0.0337288
0.0337397
0.0337532
0.0337694
0.0337849
0.0338063
0.0338244
0.0338506
0.0338714
0.0339021
0.033926
0.0339606
0.0339885
0.0340258
0.0340596
0.0340953
0.034143
0.034168
0.034236
0.0339548
0.0339571
0.0339601
0.033967
0.0339732
0.0339834
0.0339938
0.0340066
0.034022
0.0340366
0.0340571
0.0340741
0.0340993
0.0341188
0.0341484
0.0341708
0.0342042
0.0342303
0.0342664
0.034298
0.0343332
0.0343774
0.0344024
0.0344665
0.0342226
0.0342249
0.0342277
0.0342343
0.03424
0.0342499
0.0342596
0.0342717
0.0342863
0.0343
0.0343196
0.0343354
0.0343595
0.0343777
0.0344061
0.0344269
0.0344591
0.0344833
0.0345183
0.0345474
0.034582
0.034623
0.0346477
0.0347079
0.0345023
0.0345045
0.0345071
0.0345134
0.0345188
0.0345281
0.0345372
0.0345486
0.0345624
0.0345752
0.0345937
0.0346085
0.0346313
0.0346482
0.0346753
0.0346946
0.0347255
0.0347479
0.0347815
0.0348084
0.0348422
0.0348796
0.0349044
0.0349608
0.0347939
0.034796
0.0347984
0.0348045
0.0348094
0.0348183
0.0348267
0.0348375
0.0348504
0.0348622
0.0348797
0.0348933
0.034915
0.0349305
0.0349562
0.0349739
0.0350034
0.0350239
0.0350563
0.0350808
0.0351135
0.0351476
0.0351722
0.0352247
0.0350975
0.0350996
0.0351018
0.0351076
0.0351121
0.0351205
0.0351282
0.0351383
0.0351503
0.0351613
0.0351777
0.0351901
0.0352105
0.0352246
0.035249
0.035265
0.0352931
0.0353117
0.0353427
0.0353648
0.0353967
0.0354269
0.0354515
0.0355
0.0354133
0.0354153
0.0354173
0.0354228
0.0354268
0.0354348
0.0354418
0.0354512
0.0354623
0.0354724
0.0354877
0.0354989
0.0355181
0.0355308
0.0355537
0.0355681
0.0355947
0.0356113
0.0356408
0.0356606
0.0356913
0.0357181
0.0357427
0.0357864
0.0357412
0.0357432
0.0357449
0.0357502
0.0357538
0.0357612
0.0357676
0.0357763
0.0357865
0.0357956
0.0358099
0.0358199
0.0358379
0.0358491
0.0358706
0.0358833
0.0359084
0.0359229
0.0359509
0.0359683
0.0359978
0.0360212
0.0360456
0.0360849
0.0360815
0.0360834
0.0360849
0.0360899
0.036093
0.0361
0.0361057
0.0361136
0.036123
0.0361311
0.0361443
0.0361532
0.0361699
0.0361796
0.0361998
0.0362107
0.0362343
0.0362467
0.0362732
0.0362881
0.0363162
0.0363365
0.0363604
0.0363953
0.0364341
0.036436
0.0364373
0.036442
0.0364447
0.0364512
0.0364561
0.0364634
0.0364718
0.036479
0.0364911
0.0364988
0.0365143
0.0365225
0.0365413
0.0365504
0.0365726
0.0365829
0.0366077
0.0366201
0.0366469
0.0366638
0.0366875
0.0367178
0.0367992
0.036801
0.0368022
0.0368066
0.0368088
0.0368148
0.0368191
0.0368256
0.0368332
0.0368394
0.0368504
0.0368569
0.0368711
0.0368779
0.0368953
0.0369027
0.0369233
0.0369315
0.0369548
0.0369646
0.0369899
0.0370035
0.037027
0.0370524
0.0371769
0.0371786
0.0371796
0.0371838
0.0371855
0.037191
0.0371946
0.0372004
0.0372071
0.0372123
0.0372223
0.0372275
0.0372405
0.0372458
0.0372618
0.0372675
0.0372867
0.0372927
0.0373145
0.0373218
0.0373455
0.0373559
0.0373787
0.0373994
0.0375672
0.0375689
0.0375696
0.0375736
0.0375749
0.0375799
0.0375828
0.0375879
0.0375937
0.037598
0.0376068
0.0376109
0.0376226
0.0376265
0.0376411
0.0376449
0.0376626
0.0376666
0.0376869
0.0376916
0.037714
0.037721
0.0377429
0.0377589
0.0379703
0.0379719
0.0379725
0.0379762
0.037977
0.0379816
0.0379838
0.0379883
0.0379931
0.0379965
0.0380043
0.0380071
0.0380175
0.0380199
0.0380331
0.0380352
0.0380514
0.0380532
0.0380721
0.0380742
0.0380952
0.0380992
0.0381199
0.0381311
0.0383862
0.0383878
0.0383881
0.0383916
0.038392
0.0383961
0.0383977
0.0384015
0.0384055
0.0384079
0.0384146
0.0384163
0.0384254
0.0384264
0.0384381
0.0384383
0.0384531
0.0384527
0.0384701
0.0384696
0.0384894
0.0384901
0.0385098
0.0385162
0.0388151
0.0388167
0.0388168
0.0388201
0.03882
0.0388237
0.0388246
0.0388277
0.0388309
0.0388324
0.038838
0.0388385
0.0388464
0.0388459
0.0388562
0.0388546
0.0388678
0.0388652
0.0388811
0.038878
0.0388963
0.038894
0.0389128
0.0389144
0.0392571
0.0392587
0.0392586
0.0392616
0.0392611
0.0392644
0.0392646
0.0392671
0.0392694
0.03927
0.0392746
0.0392739
0.0392806
0.0392785
0.0392875
0.039284
0.0392958
0.0392909
0.0393054
0.0392995
0.0393165
0.0393108
0.0393286
0.039326
0.0397124
0.0397139
0.0397136
0.0397164
0.0397154
0.0397183
0.0397179
0.0397197
0.0397211
0.0397208
0.0397243
0.0397225
0.0397279
0.0397245
0.0397322
0.0397268
0.0397371
0.0397299
0.039743
0.0397343
0.0397498
0.0397409
0.0397573
0.0397512
0.040181
0.0401825
0.040182
0.0401845
0.0401831
0.0401855
0.0401845
0.0401856
0.0401861
0.040185
0.0401874
0.0401844
0.0401887
0.0401837
0.0401901
0.0401829
0.0401919
0.0401823
0.0401942
0.0401825
0.0401968
0.0401843
0.0401997
0.0401891
0.0406631
0.0406645
0.0406638
0.0406661
0.0406643
0.0406663
0.0406645
0.040665
0.0406646
0.0406626
0.040664
0.0406598
0.0406628
0.0406564
0.0406615
0.0406525
0.0406601
0.0406482
0.0406589
0.0406443
0.0406573
0.0406413
0.0406557
0.0406405
0.0411588
0.0411602
0.0411593
0.0411613
0.041159
0.0411606
0.0411582
0.0411579
0.0411567
0.0411537
0.0411541
0.0411487
0.0411505
0.0411426
0.0411464
0.0411355
0.0411418
0.0411277
0.0411371
0.0411197
0.0411317
0.0411118
0.0411257
0.0411057
0.0416682
0.0416695
0.0416684
0.0416702
0.0416675
0.0416685
0.0416654
0.0416645
0.0416624
0.0416585
0.0416578
0.0416513
0.0416518
0.0416425
0.041645
0.0416322
0.0416372
0.0416208
0.0416288
0.0416086
0.0416195
0.0415962
0.0416094
0.041585
0.0421913
0.0421926
0.0421913
0.0421928
0.0421896
0.0421902
0.0421865
0.0421849
0.0421819
0.042177
0.0421753
0.0421675
0.0421669
0.042156
0.0421572
0.0421425
0.0421462
0.0421275
0.0421343
0.0421111
0.0421213
0.042094
0.042107
0.0420776
0.0427282
0.0427295
0.042728
0.0427293
0.0427256
0.0427258
0.0427213
0.042719
0.0427151
0.0427094
0.0427065
0.0426975
0.0426957
0.0426833
0.0426832
0.0426666
0.042669
0.0426479
0.0426535
0.0426273
0.0426368
0.0426057
0.0426186
0.0425839
0.043279
0.0432802
0.0432785
0.0432796
0.0432754
0.0432751
0.04327
0.043267
0.0432622
0.0432555
0.0432516
0.0432414
0.0432383
0.0432245
0.043223
0.0432045
0.0432056
0.0431821
0.0431867
0.0431572
0.0431661
0.0431307
0.0431441
0.0431044
0.0438436
0.0438448
0.0438429
0.0438437
0.0438391
0.0438383
0.0438325
0.0438289
0.0438232
0.0438155
0.0438106
0.0437991
0.0437949
0.0437795
0.0437768
0.0437563
0.0437563
0.0437301
0.043734
0.043701
0.0437095
0.0436694
0.0436837
0.0436387
0.044422
0.0444232
0.044421
0.0444216
0.0444165
0.0444154
0.0444088
0.0444045
0.044398
0.0443894
0.0443834
0.0443707
0.0443653
0.0443484
0.0443445
0.0443219
0.0443208
0.044292
0.0442953
0.0442588
0.0442672
0.0442225
0.0442367
0.0441871
0.0450141
0.0450153
0.045013
0.0450134
0.0450078
0.0450062
0.044999
0.044994
0.0449866
0.0449771
0.0449701
0.0449562
0.0449497
0.0449311
0.0449262
0.0449014
0.0448995
0.0448678
0.0448706
0.0448302
0.0448395
0.0447895
0.0448039
0.0447496
0.04562
0.0456211
0.0456186
0.0456187
0.0456128
0.0456108
0.0456029
0.0455973
0.045589
0.0455785
0.0455706
0.0455554
0.045548
0.0455276
0.0455218
0.0454948
0.0454922
0.0454576
0.0454601
0.0454153
0.0454253
0.0453713
0.045385
0.0453265
0.0462394
0.0462405
0.0462378
0.0462377
0.0462313
0.0462289
0.0462204
0.0462142
0.0462051
0.0461937
0.0461849
0.0461684
0.0461601
0.0461379
0.0461315
0.0461019
0.0460991
0.0460608
0.0460644
0.0460151
0.0460245
0.0459671
0.0459803
0.0459175
0.0468722
0.0468733
0.0468704
0.0468701
0.0468633
0.0468606
0.0468514
0.0468446
0.0468348
0.0468224
0.0468129
0.0467949
0.046786
0.0467618
0.0467551
0.0467226
0.0467203
0.0466779
0.046682
0.0466293
0.0466379
0.0465774
0.0465897
0.0465229
0.0475183
0.0475193
0.0475163
0.0475158
0.0475086
0.0475055
0.0474958
0.0474883
0.0474779
0.0474645
0.0474545
0.0474349
0.0474258
0.0473992
0.0473928
0.0473571
0.0473553
0.0473097
0.0473126
0.047258
0.0472652
0.0472017
0.0472134
0.0471426
0.0481773
0.0481784
0.0481752
0.0481746
0.0481669
0.0481636
0.0481533
0.0481453
0.0481343
0.0481198
0.0481097
0.048088
0.0480794
0.0480498
0.0480442
0.0480055
0.048003
0.0479556
0.0479575
0.0479004
0.0479066
0.0478403
0.0478511
0.0477766
0.0488491
0.0488504
0.0488469
0.0488463
0.0488382
0.0488347
0.0488238
0.0488152
0.048804
0.048788
0.0487784
0.0487542
0.0487463
0.0487143
0.0487082
0.0486682
0.0486645
0.0486156
0.0486158
0.0485569
0.048562
0.048493
0.048503
0.0484249
0.0495336
0.049535
0.0495311
0.0495308
0.049522
0.0495186
0.049507
0.0494977
0.0494868
0.0494692
0.0494596
0.0494343
0.0494254
0.0493928
0.0493852
0.0493444
0.0493393
0.0492889
0.0492882
0.0492272
0.049231
0.0491597
0.0491689
0.0490874
0.0502306
0.050232
0.0502278
0.0502277
0.0502182
0.050215
0.0502028
0.0501933
0.0501817
0.0501637
0.0501533
0.0501274
0.0501176
0.0500842
0.0500756
0.0500337
0.0500275
0.049976
0.0499737
0.0499111
0.0499141
0.0498402
0.0498488
0.0497639
0.0509396
0.0509411
0.0509369
0.0509365
0.0509271
0.0509235
0.0509106
0.0509018
0.0508888
0.0508708
0.0508596
0.0508332
0.0508226
0.0507885
0.0507789
0.0507362
0.0507287
0.0506762
0.0506728
0.0506087
0.0506104
0.0505345
0.0505422
0.0504543
0.0516607
0.0516622
0.0516581
0.0516575
0.051648
0.0516442
0.0516309
0.0516223
0.0516077
0.0515908
0.051578
0.0515516
0.0515402
0.0515055
0.0514951
0.0514514
0.0514431
0.0513895
0.051385
0.0513195
0.0513203
0.0512422
0.0512494
0.0511585
0.0523937
0.0523951
0.052391
0.0523904
0.0523807
0.0523769
0.0523633
0.0523547
0.0523392
0.0523228
0.0523083
0.0522827
0.05227
0.052235
0.0522237
0.0521794
0.05217
0.0521156
0.0521099
0.0520432
0.052043
0.0519633
0.0519695
0.0518761
0.0531384
0.0531399
0.0531357
0.0531351
0.0531253
0.0531214
0.0531075
0.0530989
0.0530827
0.0530667
0.053051
0.053026
0.0530117
0.0529768
0.0529647
0.0529197
0.0529095
0.0528542
0.0528475
0.0527798
0.0527786
0.0526971
0.0527029
0.0526069
0.0538947
0.0538962
0.0538921
0.0538914
0.0538815
0.0538776
0.0538635
0.0538548
0.0538382
0.0538224
0.0538057
0.053781
0.0537656
0.0537306
0.0537176
0.053672
0.0536611
0.0536049
0.0535973
0.0535286
0.0535265
0.0534437
0.0534485
0.0533504
0.0546627
0.0546643
0.0546601
0.0546595
0.0546495
0.0546456
0.0546312
0.0546224
0.0546054
0.0545897
0.0545721
0.0545476
0.0545311
0.0544963
0.0544822
0.0544361
0.0544245
0.0543676
0.0543589
0.0542895
0.0542864
0.0542023
0.0542066
0.0541064
0.0554424
0.0554441
0.0554398
0.0554393
0.055429
0.0554251
0.0554104
0.0554016
0.0553841
0.0553685
0.0553501
0.0553256
0.0553082
0.0552731
0.0552582
0.0552117
0.0551994
0.0551414
0.0551323
0.0550618
0.0550579
0.0549726
0.0549762
0.0548743
0.0562339
0.0562356
0.0562312
0.0562307
0.0562202
0.0562163
0.0562012
0.0561923
0.0561742
0.0561586
0.0561392
0.0561149
0.0560964
0.0560611
0.0560454
0.0559983
0.0559854
0.0559268
0.0559165
0.0558454
0.0558406
0.0557544
0.0557573
0.0556539
0.0570369
0.0570387
0.0570342
0.0570336
0.0570228
0.0570187
0.0570033
0.0569941
0.0569754
0.0569596
0.0569392
0.0569149
0.0568954
0.0568599
0.0568433
0.0567955
0.0567819
0.0567225
0.0567118
0.0566396
0.0566341
0.0565469
0.0565492
0.0564445
0.0578514
0.0578533
0.0578485
0.0578479
0.0578367
0.0578323
0.0578163
0.0578068
0.0577875
0.0577714
0.0577498
0.0577257
0.0577046
0.0576692
0.0576514
0.0576031
0.057589
0.057529
0.0575172
0.0574444
0.0574381
0.0573503
0.0573519
0.0572461
0.0586767
0.0586786
0.0586736
0.0586728
0.0586612
0.0586564
0.0586399
0.0586298
0.0586098
0.0585932
0.0585705
0.0585465
0.0585236
0.0584888
0.058469
0.0584211
0.0584058
0.058345
0.0583329
0.0582593
0.0582523
0.0581639
0.0581649
0.0580582
0.0595118
0.0595137
0.0595086
0.0595075
0.0594956
0.0594903
0.0594732
0.0594626
0.0594418
0.0594246
0.0594009
0.0593769
0.0593523
0.0593181
0.0592961
0.059249
0.0592323
0.059171
0.0591583
0.0590844
0.0590767
0.0589879
0.0589882
0.058881
0.0603551
0.060357
0.0603518
0.0603504
0.0603383
0.0603326
0.0603151
0.060304
0.0602826
0.0602649
0.0602405
0.0602163
0.06019
0.0601567
0.0601325
0.0600865
0.0600676
0.0600069
0.0599936
0.0599195
0.059911
0.059822
0.0598219
0.0597142
0.0612046
0.0612065
0.0612013
0.0611999
0.0611877
0.0611819
0.0611643
0.0611529
0.0611313
0.0611133
0.0610884
0.0610642
0.0610368
0.0610042
0.060978
0.0609336
0.0609121
0.0608533
0.0608384
0.0607645
0.0607554
0.0606667
0.060666
0.0605584
0.0620579
0.0620598
0.0620549
0.0620536
0.0620418
0.0620362
0.0620189
0.0620078
0.0619864
0.0619687
0.0619439
0.06192
0.0618922
0.0618604
0.0618328
0.06179
0.0617666
0.0617091
0.061693
0.0616197
0.0616102
0.0615216
0.061521
0.0614134
0.0629132
0.0629154
0.0629108
0.06291
0.0628988
0.062894
0.0628774
0.0628672
0.0628468
0.06283
0.062806
0.0627831
0.0627556
0.0627252
0.0626969
0.062656
0.0626308
0.0625757
0.0625576
0.0624858
0.0624758
0.0623877
0.0623869
0.0622797
0.0637697
0.063772
0.0637681
0.0637681
0.0637577
0.0637542
0.0637389
0.0637302
0.0637113
0.0636962
0.0636737
0.0636526
0.0636264
0.0635978
0.0635701
0.0635313
0.0635058
0.0634528
0.0634331
0.0633631
0.0633527
0.0632647
0.0632641
0.0631573
0.0646282
0.0646309
0.0646275
0.0646285
0.0646192
0.0646172
0.0646035
0.0645967
0.0645799
0.0645669
0.0645466
0.0645279
0.0645038
0.0644778
0.0644517
0.0644156
0.0643906
0.0643407
0.0643207
0.0642523
0.0642418
0.0641537
0.0641532
0.0640465
0.065492
0.065495
0.0654921
0.0654941
0.0654859
0.0654853
0.0654732
0.0654684
0.0654535
0.0654429
0.065425
0.065409
0.0653874
0.0653642
0.0653408
0.0653076
0.0652847
0.065238
0.065219
0.0651533
0.0651435
0.0650555
0.0650553
0.0649475
0.0663667
0.0663702
0.0663674
0.0663704
0.0663625
0.0663634
0.066352
0.066349
0.0663353
0.0663269
0.0663107
0.0662972
0.0662777
0.0662573
0.0662372
0.0662057
0.0661875
0.0661414
0.0661282
0.0660626
0.0660574
0.0659704
0.0659712
0.0658629
0.06726
0.0672643
0.0672606
0.067265
0.0672558
0.0672586
0.0672456
0.0672449
0.0672298
0.0672238
0.0672073
0.0671958
0.0671772
0.0671582
0.0671422
0.0671082
0.0670996
0.0670481
0.067045
0.0669774
0.0669789
0.0668942
0.0668988
0.0667962
0.0681814
0.0681852
0.0681824
0.0681848
0.0681767
0.0681767
0.068165
0.0681611
0.0681472
0.0681385
0.0681223
0.0681097
0.0680904
0.0680734
0.0680545
0.0680234
0.0680145
0.067965
0.0679635
0.0678978
0.067903
0.0678201
0.0678292
0.0677345
0.069139
0.0691425
0.0691391
0.0691406
0.069131
0.0691293
0.0691154
0.0691092
0.0690927
0.0690813
0.0690624
0.069047
0.069025
0.069006
0.0689825
0.0689547
0.0689381
0.0688926
0.0688886
0.0688225
0.0688296
0.0687451
0.0687576
0.0686633
0.0701395
0.0701427
0.0701384
0.0701385
0.0701269
0.0701229
0.0701058
0.0700964
0.0700758
0.0700602
0.0700366
0.0700164
0.0699893
0.0699655
0.069936
0.0699051
0.0698815
0.0698352
0.0698258
0.0697565
0.0697638
0.0696742
0.069689
0.0695906
0.071186
0.0711895
0.0711837
0.0711828
0.0711687
0.0711624
0.0711417
0.0711287
0.0711032
0.0710828
0.071053
0.071027
0.0709925
0.070962
0.0709243
0.0708863
0.0708546
0.0708009
0.0707847
0.0707069
0.0707116
0.0706134
0.0706288
0.0705221
0.0722788
0.0722827
0.0722751
0.0722739
0.0722571
0.0722491
0.0722244
0.0722091
0.0721774
0.0721545
0.0721162
0.0720864
0.0720421
0.0720049
0.0719577
0.07191
0.0718698
0.0718008
0.0717785
0.0716863
0.0716837
0.0715721
0.071585
0.0714646
0.0734143
0.0734177
0.0734108
0.0734072
0.0733903
0.0733792
0.0733537
0.0733336
0.0733011
0.073271
0.0732315
0.0731928
0.0731451
0.0730991
0.0730432
0.0729893
0.0729316
0.072858
0.0728172
0.0727129
0.0726956
0.0725654
0.07257
0.0724277
0.0745861
0.0745893
0.0745823
0.0745782
0.0745605
0.0745484
0.0745215
0.0744998
0.0744652
0.0744327
0.0743902
0.0743481
0.0742963
0.0742453
0.0741837
0.0741231
0.074054
0.0739798
0.0739116
0.073809
0.0737653
0.0736176
0.0736056
0.0734302
0.0757862
0.0757893
0.0757824
0.0757781
0.0757603
0.0757479
0.0757206
0.0756984
0.0756631
0.0756298
0.0755863
0.0755428
0.0754893
0.0754363
0.0753722
0.0753084
0.0752354
0.075157
0.0750782
0.0749779
0.0749043
0.0747597
0.0747206
0.0745075
0.0770058
0.0770089
0.0770022
0.0769983
0.0769806
0.0769688
0.0769417
0.07692
0.0768851
0.0768522
0.0768091
0.076766
0.0767132
0.0766604
0.0765968
0.0765334
0.0764606
0.0763826
0.0763032
0.0762042
0.0761248
0.0759884
0.0759318
0.0757069
0.0782363
0.0782397
0.0782333
0.07823
0.0782128
0.0782018
0.0781755
0.078155
0.0781212
0.0780898
0.0780481
0.0780068
0.0779556
0.0779051
0.0778436
0.0777828
0.0777125
0.0776376
0.0775632
0.0774653
0.0773981
0.07726
0.0772199
0.0770222
0.0794697
0.0794734
0.0794674
0.0794648
0.0794484
0.0794386
0.0794134
0.0793945
0.0793622
0.0793328
0.0792932
0.0792544
0.0792058
0.0791583
0.0791
0.0790427
0.0789764
0.078906
0.0788364
0.078744
0.0786826
0.0785522
0.0785151
0.0783319
0.0806991
0.080703
0.0806974
0.0806957
0.0806801
0.0806717
0.0806478
0.0806307
0.0806003
0.0805733
0.080536
0.0805002
0.0804545
0.0804106
0.0803558
0.0803029
0.0802405
0.0801757
0.0801104
0.0800248
0.0799679
0.0798473
0.0798126
0.079643
0.081918
0.0819225
0.0819171
0.0819165
0.0819016
0.0818948
0.0818721
0.0818573
0.0818286
0.0818044
0.0817693
0.0817371
0.081694
0.0816544
0.0816031
0.0815546
0.0814969
0.0814374
0.0813769
0.0812976
0.081246
0.0811348
0.0811024
0.0809466
0.0831219
0.083127
0.0831212
0.0831223
0.0831076
0.0831031
0.083081
0.0830692
0.0830413
0.0830212
0.0829871
0.0829598
0.0829181
0.0828842
0.0828349
0.0827925
0.0827381
0.0826849
0.082629
0.0825564
0.0825088
0.0824076
0.0823776
0.0822352
0.0843062
0.0843116
0.0843061
0.0843084
0.084294
0.0842916
0.0842702
0.0842614
0.0842343
0.0842183
0.084185
0.0841631
0.0841221
0.0840948
0.0840465
0.0840116
0.0839592
0.0839122
0.0838609
0.0837957
0.0837513
0.0836603
0.0836325
0.0835034
0.0854676
0.085473
0.0854684
0.0854706
0.0854584
0.0854559
0.0854377
0.0854289
0.085406
0.0853901
0.0853619
0.0853407
0.0853051
0.0852796
0.0852365
0.0852052
0.0851573
0.0851168
0.0850684
0.08501
0.0849699
0.0848886
0.084863
0.0847467
0.0866031
0.0866085
0.0866046
0.0866072
0.0865963
0.0865946
0.0865784
0.0865707
0.0865508
0.0865361
0.0865118
0.0864919
0.0864614
0.0864374
0.0864002
0.0863711
0.0863288
0.0862925
0.0862475
0.0861989
0.086161
0.0860891
0.0860652
0.0859616
0.0877107
0.0877159
0.0877125
0.0877157
0.0877058
0.0877052
0.0876905
0.0876844
0.0876666
0.0876539
0.0876326
0.0876149
0.0875882
0.0875667
0.0875339
0.0875081
0.0874704
0.087439
0.0873981
0.0873569
0.0873215
0.0872584
0.0872368
0.0871452
0.0887877
0.0887932
0.0887902
0.0887939
0.0887849
0.0887854
0.0887721
0.0887676
0.0887519
0.088741
0.0887224
0.0887071
0.0886837
0.0886651
0.0886363
0.0886139
0.0885806
0.0885534
0.0885169
0.0884824
0.088448
0.0883954
0.0883753
0.0882955
0.0898337
0.089839
0.0898364
0.0898406
0.0898325
0.089834
0.0898221
0.089819
0.0898051
0.0897962
0.0897801
0.089767
0.0897467
0.0897308
0.0897057
0.0896866
0.0896575
0.0896345
0.0896023
0.089573
0.0895415
0.0894977
0.0894796
0.0894108
0.0908468
0.0908521
0.0908498
0.0908547
0.090847
0.0908498
0.0908387
0.0908374
0.090825
0.0908181
0.0908041
0.0907934
0.0907759
0.0907627
0.090741
0.0907252
0.0906997
0.0906807
0.0906523
0.0906285
0.0906002
0.0905643
0.090548
0.0904895
0.0918266
0.0918317
0.09183
0.0918347
0.0918286
0.0918314
0.0918224
0.0918216
0.0918114
0.0918058
0.0917942
0.0917855
0.0917707
0.09176
0.0917415
0.0917285
0.0917069
0.0916913
0.0916672
0.0916474
0.0916228
0.0915949
0.0915792
0.0915307
0.0927722
0.0927777
0.0927754
0.0927821
0.0927744
0.0927804
0.0927702
0.0927726
0.0927624
0.0927594
0.0927492
0.0927428
0.0927304
0.0927221
0.0927065
0.0926966
0.092678
0.0926662
0.0926452
0.0926302
0.0926088
0.0925872
0.0925733
0.0925335
0.0936841
0.0936887
0.0936882
0.0936926
0.0936891
0.0936918
0.0936865
0.0936866
0.0936805
0.0936772
0.0936699
0.0936648
0.0936548
0.0936487
0.093636
0.0936286
0.0936133
0.0936044
0.0935873
0.0935758
0.0935583
0.0935417
0.0935292
0.0934983
0.094561
0.0945666
0.094564
0.0945725
0.0945645
0.0945737
0.0945635
0.0945698
0.0945609
0.0945619
0.0945545
0.0945521
0.0945438
0.0945399
0.0945296
0.0945248
0.0945122
0.0945066
0.0944923
0.0944849
0.09447
0.0944585
0.0944475
0.0944247
0.0954045
0.0954086
0.0954091
0.0954131
0.095412
0.0954145
0.0954124
0.0954132
0.0954106
0.0954093
0.0954057
0.0954037
0.0953979
0.0953958
0.0953878
0.0953853
0.0953753
0.0953723
0.095361
0.0953567
0.0953451
0.0953377
0.0953289
0.0953132
0.0962132
0.0962187
0.0962167
0.0962248
0.0962191
0.0962281
0.0962206
0.0962281
0.0962216
0.0962252
0.0962205
0.0962214
0.0962167
0.0962166
0.0962107
0.0962104
0.0962029
0.0962025
0.0961937
0.0961927
0.0961833
0.0961799
0.0961736
0.0961641
0.0969895
0.0969934
0.0969939
0.0969989
0.0969977
0.0970024
0.0970007
0.0970039
0.0970029
0.0970041
0.0970032
0.0970039
0.0970016
0.0970029
0.096999
0.0970007
0.0969952
0.0969973
0.0969909
0.0969928
0.0969861
0.0969866
0.0969821
0.0969778
0.0977317
0.0977366
0.0977362
0.0977422
0.0977407
0.0977466
0.0977444
0.0977499
0.0977479
0.097752
0.0977506
0.0977537
0.0977522
0.0977552
0.0977531
0.0977565
0.0977533
0.0977573
0.0977533
0.0977577
0.0977533
0.097757
0.0977549
0.0977551
0.0984429
0.0984466
0.0984469
0.0984532
0.0984509
0.0984587
0.0984558
0.0984625
0.0984614
0.0984657
0.0984662
0.0984698
0.09847
0.0984742
0.0984737
0.0984788
0.0984771
0.0984834
0.0984811
0.0984882
0.0984855
0.0984927
0.0984919
0.0984966
0.0991214
0.0991254
0.0991267
0.0991305
0.0991327
0.0991356
0.0991385
0.0991412
0.0991441
0.0991474
0.0991495
0.0991539
0.0991553
0.0991608
0.0991616
0.0991682
0.0991683
0.099176
0.0991756
0.0991847
0.0991841
0.0991938
0.0991945
0.099203
0.0997702
0.0997738
0.0997741
0.0997806
0.0997787
0.0997874
0.0997847
0.0997935
0.0997926
0.0997996
0.0998008
0.099807
0.0998091
0.0998157
0.0998178
0.0998257
0.099827
0.0998366
0.0998375
0.0998488
0.0998492
0.0998617
0.0998635
0.0998755
0.100388
0.100392
0.100394
0.100397
0.1004
0.100403
0.100408
0.10041
0.100415
0.100419
0.100423
0.100429
0.100433
0.10044
0.100443
0.100452
0.100455
0.100466
0.100468
0.100481
0.100483
0.100498
0.1005
0.100515
0.100978
0.100981
0.100983
0.100988
0.100989
0.100995
0.100996
0.101003
0.101004
0.101012
0.101015
0.101022
0.101026
0.101035
0.101039
0.101049
0.101052
0.101065
0.101068
0.101082
0.101085
0.101102
0.101105
0.101123
0.10154
0.101543
0.101545
0.101549
0.101551
0.101556
0.101559
0.101564
0.101569
0.101574
0.101579
0.101587
0.101592
0.101601
0.101606
0.101617
0.101621
0.101634
0.101639
0.101655
0.101658
0.101677
0.10168
0.101702
0.102075
0.102077
0.10208
0.102082
0.102087
0.102089
0.102095
0.102099
0.102105
0.102111
0.102116
0.102124
0.102129
0.102139
0.102145
0.102157
0.102162
0.102176
0.102181
0.102198
0.102203
0.102224
0.102227
0.102251
0.102584
0.102587
0.102588
0.102593
0.102593
0.102602
0.102602
0.102611
0.102613
0.102622
0.102626
0.102635
0.102641
0.102651
0.102657
0.10267
0.102676
0.102691
0.102697
0.102715
0.10272
0.102742
0.102747
0.102771
0.103068
0.10307
0.103073
0.103074
0.103081
0.103081
0.10309
0.103091
0.1031
0.103105
0.103113
0.10312
0.103127
0.103138
0.103145
0.103158
0.103164
0.10318
0.103187
0.103206
0.103211
0.103235
0.103239
0.103266
0.103528
0.103531
0.103532
0.103537
0.103537
0.103546
0.103546
0.103556
0.103558
0.103568
0.103572
0.103583
0.103589
0.1036
0.103607
0.103621
0.103628
0.103645
0.103652
0.103672
0.103678
0.103702
0.103707
0.103735
0.103966
0.103967
0.10397
0.103972
0.103977
0.10398
0.103987
0.10399
0.103998
0.104004
0.104012
0.10402
0.104028
0.104039
0.104047
0.104061
0.104069
0.104086
0.104093
0.104113
0.10412
0.104145
0.10415
0.10418
0.104381
0.104383
0.104385
0.104388
0.104391
0.104396
0.1044
0.104407
0.104412
0.104421
0.104427
0.104437
0.104444
0.104456
0.104464
0.104478
0.104487
0.104504
0.104512
0.104533
0.10454
0.104565
0.104571
0.104602
0.104775
0.104777
0.104779
0.104783
0.104785
0.104791
0.104794
0.104802
0.104806
0.104815
0.104822
0.104832
0.104839
0.104851
0.10486
0.104874
0.104883
0.1049
0.104909
0.10493
0.104938
0.104963
0.104969
0.105002
0.10515
0.105151
0.105154
0.105156
0.105161
0.105163
0.105171
0.105174
0.105183
0.105189
0.105197
0.105206
0.105214
0.105227
0.105235
0.10525
0.105259
0.105277
0.105285
0.105307
0.105315
0.105341
0.105348
0.10538
0.105505
0.105507
0.105508
0.105512
0.105514
0.105521
0.105523
0.105532
0.105535
0.105546
0.105551
0.105562
0.10557
0.105582
0.105591
0.105606
0.105615
0.105633
0.105642
0.105664
0.105672
0.105698
0.105705
0.105738
0.105842
0.105843
0.105846
0.105848
0.105853
0.105856
0.105862
0.105866
0.105874
0.105881
0.105889
0.105899
0.105907
0.10592
0.105928
0.105943
0.105952
0.105971
0.105979
0.106002
0.10601
0.106037