/*--------------------------------*- C++ -*----------------------------------*\
  =========                 |
  \\      /  F ield         | OpenFOAM: The Open Source CFD Toolbox
   \\    /   O peration     | Website:  https://openfoam.org
    \\  /    A nd           | Version:  10
     \\/     M anipulation  |
\*---------------------------------------------------------------------------*/
FoamFile
{
    format      ascii;
    class       volScalarField;
    location    "0.17";
    object      T;
}
// * * * * * * * * * * * * * * * * * * * * * * * * * * * * * * * * * * * * * //

dimensions      [0 0 0 1 0 0 0];

internalField   nonuniform List<scalar> 
4176
(
180.352
180.356
180.376
180.388
180.429
180.451
180.51
180.544
180.617
180.665
180.754
180.814
180.918
180.99
181.106
181.196
181.312
181.434
181.54
181.706
181.782
182.016
182.029
182.331
180.361
180.366
180.386
180.399
180.44
180.463
180.522
180.558
180.632
180.683
180.772
180.834
180.94
181.014
181.133
181.225
181.345
181.469
181.577
181.747
181.824
182.067
182.084
182.416
180.389
180.394
180.413
180.426
180.466
180.488
180.546
180.582
180.653
180.703
180.79
180.851
180.954
181.027
181.144
181.233
181.351
181.472
181.578
181.743
181.816
182.054
182.071
182.413
180.44
180.445
180.465
180.477
180.517
180.54
180.597
180.633
180.704
180.754
180.841
180.902
181.006
181.077
181.196
181.284
181.404
181.526
181.627
181.798
181.868
182.102
182.117
182.444
180.515
180.52
180.539
180.551
180.591
180.613
180.67
180.705
180.776
180.825
180.911
180.971
181.074
181.144
181.262
181.348
181.47
181.59
181.688
181.86
181.929
182.161
182.176
182.492
180.614
180.619
180.638
180.65
180.69
180.712
180.768
180.803
180.873
180.922
181.007
181.066
181.169
181.238
181.355
181.44
181.563
181.677
181.781
181.949
182.019
182.249
182.266
182.583
180.737
180.742
180.761
180.773
180.812
180.833
180.889
180.923
180.992
181.041
181.125
181.184
181.285
181.354
181.469
181.553
181.676
181.786
181.894
182.055
182.128
182.354
182.373
182.688
180.884
180.889
180.907
180.919
180.958
180.979
181.034
181.068
181.136
181.184
181.267
181.325
181.425
181.493
181.607
181.689
181.813
181.918
182.029
182.185
182.26
182.482
182.503
182.814
181.054
181.059
181.078
181.089
181.127
181.148
181.202
181.236
181.303
181.351
181.432
181.49
181.589
181.655
181.768
181.849
181.971
182.073
182.185
182.336
182.413
182.63
182.653
182.959
181.249
181.254
181.272
181.283
181.321
181.341
181.395
181.428
181.494
181.541
181.621
181.678
181.775
181.841
181.953
182.031
182.153
182.252
182.365
182.51
182.59
182.801
182.826
183.126
181.467
181.472
181.49
181.501
181.538
181.558
181.611
181.643
181.709
181.755
181.834
181.889
181.985
182.049
182.16
182.237
182.357
182.453
182.566
182.706
182.786
182.994
183.019
183.314
181.709
181.713
181.731
181.742
181.779
181.798
181.851
181.882
181.947
181.992
182.07
182.124
182.219
182.281
182.39
182.465
182.584
182.677
182.79
182.925
183.008
183.208
183.235
183.524
181.974
181.979
181.997
182.007
182.043
182.062
182.114
182.145
182.208
182.252
182.329
182.382
182.475
182.536
182.643
182.716
182.834
182.924
183.036
183.167
183.249
183.444
183.471
183.755
182.264
182.268
182.286
182.295
182.331
182.35
182.4
182.43
182.493
182.536
182.611
182.663
182.754
182.814
182.919
182.99
183.106
183.193
183.305
183.431
183.514
183.702
183.73
184.008
182.577
182.581
182.598
182.608
182.643
182.661
182.711
182.74
182.801
182.843
182.917
182.967
183.057
183.115
183.218
183.287
183.401
183.485
183.596
183.717
183.8
183.983
184.01
184.282
182.913
182.918
182.935
182.944
182.979
182.996
183.045
183.073
183.133
183.173
183.246
183.295
183.382
183.439
183.539
183.606
183.718
183.799
183.909
184.025
184.109
184.285
184.312
184.578
183.274
183.278
183.295
183.303
183.338
183.354
183.402
183.429
183.488
183.527
183.598
183.645
183.731
183.785
183.884
183.949
184.058
184.136
184.244
184.355
184.439
184.609
184.636
184.895
183.658
183.662
183.679
183.687
183.72
183.736
183.783
183.809
183.866
183.904
183.973
184.019
184.102
184.155
184.251
184.314
184.421
184.496
184.602
184.708
184.792
184.955
184.983
185.234
184.066
184.07
184.086
184.094
184.127
184.141
184.187
184.212
184.268
184.304
184.371
184.415
184.497
184.547
184.641
184.701
184.805
184.878
184.982
185.083
185.166
185.323
185.351
185.595
184.497
184.501
184.517
184.524
184.557
184.57
184.615
184.639
184.693
184.728
184.793
184.835
184.914
184.963
185.054
185.111
185.213
185.282
185.384
185.48
185.562
185.712
185.741
185.977
184.953
184.957
184.972
184.979
185.01
185.023
185.067
185.089
185.142
185.175
185.238
185.278
185.355
185.401
185.49
185.544
185.643
185.708
185.808
185.899
185.98
186.124
186.153
186.381
185.432
185.435
185.451
185.457
185.487
185.499
185.542
185.562
185.613
185.645
185.706
185.744
185.818
185.862
185.948
185.999
186.095
186.157
186.254
186.341
186.421
186.557
186.586
186.806
185.934
185.938
185.953
185.958
185.988
185.999
186.04
186.059
186.109
186.138
186.197
186.233
186.305
186.346
186.429
186.477
186.57
186.629
186.723
186.804
186.883
187.013
187.042
187.253
186.461
186.464
186.478
186.483
186.512
186.522
186.562
186.579
186.627
186.655
186.712
186.745
186.814
186.853
186.933
186.978
187.068
187.122
187.214
187.291
187.368
187.49
187.518
187.722
187.01
187.013
187.027
187.031
187.06
187.068
187.107
187.123
187.168
187.194
187.249
187.28
187.346
187.382
187.46
187.501
187.588
187.639
187.727
187.799
187.873
187.989
188.016
188.212
187.583
187.586
187.6
187.603
187.63
187.637
187.675
187.689
187.733
187.757
187.809
187.838
187.901
187.934
188.009
188.047
188.13
188.177
188.262
188.33
188.402
188.51
188.536
188.724
188.179
188.182
188.195
188.198
188.224
188.23
188.266
188.279
188.321
188.342
188.392
188.418
188.479
188.509
188.581
188.615
188.695
188.738
188.82
188.882
188.952
189.054
189.079
189.258
188.798
188.801
188.813
188.815
188.841
188.845
188.88
188.891
188.931
188.951
188.998
189.022
189.08
189.107
189.175
189.206
189.283
189.322
189.4
189.458
189.525
189.619
189.643
189.813
189.439
189.442
189.454
189.456
189.48
189.484
189.517
189.526
189.564
189.582
189.627
189.648
189.703
189.727
189.792
189.819
189.892
189.927
190.002
190.055
190.118
190.206
190.23
190.39
190.104
190.106
190.118
190.119
190.142
190.145
190.176
190.184
190.22
190.235
190.278
190.296
190.349
190.369
190.431
190.455
190.524
190.555
190.627
190.674
190.735
190.815
190.836
190.99
190.791
190.793
190.805
190.804
190.827
190.828
190.858
190.864
190.899
190.912
190.952
190.967
191.017
191.034
191.093
191.113
191.179
191.205
191.274
191.316
191.373
191.447
191.466
191.611
191.5
191.502
191.513
191.512
191.534
191.534
191.563
191.567
191.599
191.61
191.648
191.661
191.707
191.722
191.777
191.793
191.856
191.878
191.942
191.979
192.033
192.1
192.118
192.254
192.231
192.233
192.244
192.242
192.263
192.261
192.289
192.291
192.322
192.331
192.366
192.376
192.42
192.431
192.484
192.496
192.555
192.573
192.633
192.665
192.715
192.776
192.792
192.919
192.984
192.986
192.996
192.994
193.014
193.011
193.037
193.038
193.067
193.073
193.106
193.114
193.155
193.163
193.212
193.221
193.276
193.289
193.347
193.373
193.42
193.474
193.488
193.606
193.759
193.761
193.77
193.767
193.787
193.783
193.808
193.806
193.833
193.838
193.868
193.873
193.912
193.916
193.963
193.967
194.02
194.028
194.082
194.103
194.146
194.194
194.206
194.314
194.555
194.557
194.566
194.562
194.581
194.576
194.599
194.596
194.622
194.624
194.652
194.654
194.69
194.691
194.735
194.736
194.785
194.789
194.839
194.855
194.894
194.937
194.946
195.044
195.372
195.374
195.383
195.379
195.396
195.39
195.412
195.408
195.431
195.431
195.457
195.457
195.49
195.488
195.529
195.526
195.572
195.572
195.618
195.629
195.665
195.701
195.707
195.796
196.211
196.213
196.221
196.216
196.233
196.225
196.246
196.24
196.262
196.26
196.284
196.281
196.311
196.306
196.344
196.338
196.38
196.376
196.419
196.425
196.456
196.487
196.49
196.57
197.07
197.072
197.08
197.074
197.09
197.082
197.101
197.094
197.114
197.11
197.132
197.126
197.154
197.146
197.18
197.17
197.209
197.201
197.24
197.242
197.27
197.294
197.294
197.366
197.95
197.951
197.959
197.953
197.968
197.959
197.977
197.968
197.986
197.98
198
197.992
198.018
198.006
198.038
198.024
198.06
198.048
198.083
198.08
198.104
198.123
198.12
198.183
198.85
198.852
198.859
198.852
198.867
198.856
198.873
198.863
198.88
198.872
198.889
198.879
198.902
198.888
198.917
198.899
198.932
198.915
198.947
198.939
198.96
198.973
198.967
199.022
199.771
199.772
199.779
199.772
199.785
199.774
199.79
199.778
199.793
199.783
199.799
199.787
199.807
199.79
199.816
199.795
199.825
199.804
199.832
199.819
199.836
199.843
199.834
199.882
200.712
200.713
200.719
200.711
200.724
200.712
200.727
200.713
200.727
200.715
200.729
200.714
200.732
200.712
200.735
200.711
200.738
200.713
200.738
200.719
200.735
200.734
200.723
200.762
201.672
201.673
201.679
201.671
201.683
201.67
201.683
201.669
201.68
201.667
201.678
201.661
201.677
201.654
201.675
201.648
201.672
201.642
201.665
201.64
201.653
201.647
201.633
201.664
202.652
202.653
202.659
202.65
202.661
202.647
202.66
202.643
202.654
202.638
202.648
202.629
202.642
202.616
202.634
202.604
202.625
202.591
202.611
202.581
202.593
202.579
202.563
202.586
203.652
203.652
203.658
203.649
203.659
203.644
203.655
203.638
203.646
203.629
203.637
203.615
203.626
203.598
203.613
203.579
203.598
203.559
203.578
203.542
203.551
203.531
203.514
203.528
204.67
204.671
204.676
204.666
204.676
204.66
204.67
204.651
204.658
204.639
204.644
204.621
204.629
204.599
204.611
204.574
204.59
204.547
204.563
204.523
204.53
204.502
204.486
204.49
205.707
205.708
205.713
205.702
205.711
205.694
205.703
205.683
205.688
205.668
205.671
205.645
205.652
205.618
205.628
205.588
205.601
205.554
205.568
205.522
205.528
205.493
205.477
205.471
206.763
206.763
206.768
206.757
206.765
206.747
206.755
206.733
206.737
206.715
206.716
206.688
206.692
206.656
206.664
206.62
206.631
206.58
206.591
206.54
206.545
206.503
206.485
206.472
207.836
207.836
207.84
207.829
207.836
207.817
207.824
207.801
207.804
207.78
207.779
207.749
207.751
207.712
207.718
207.671
207.679
207.624
207.634
207.576
207.581
207.53
207.514
207.491
208.926
208.926
208.93
208.918
208.925
208.905
208.911
208.887
208.888
208.862
208.86
208.828
208.828
208.786
208.789
208.739
208.746
208.686
208.694
208.63
208.636
208.576
208.56
208.53
210.033
210.033
210.037
210.024
210.031
210.01
210.014
209.989
209.989
209.961
209.958
209.923
209.922
209.877
209.878
209.825
209.83
209.765
209.773
209.703
209.707
209.641
209.626
209.586
211.156
211.156
211.16
211.147
211.152
211.131
211.134
211.108
211.106
211.077
211.072
211.036
211.032
210.985
210.985
210.927
210.931
210.861
210.87
210.792
210.797
210.724
210.707
210.661
212.295
212.295
212.298
212.285
212.29
212.267
212.27
212.242
212.239
212.209
212.202
212.164
212.159
212.108
212.108
212.046
212.05
211.975
211.981
211.899
211.903
211.824
211.807
211.753
213.448
213.448
213.451
213.437
213.442
213.419
213.42
213.392
213.388
213.356
213.348
213.307
213.302
213.247
213.247
213.18
213.185
213.103
213.112
213.023
213.026
212.942
212.923
212.863
214.616
214.615
214.618
214.604
214.608
214.584
214.585
214.556
214.551
214.517
214.509
214.465
214.46
214.401
214.402
214.328
214.335
214.249
214.255
214.164
214.164
214.076
214.056
213.989
215.796
215.796
215.799
215.784
215.788
215.764
215.764
215.733
215.728
215.692
215.684
215.637
215.633
215.57
215.571
215.494
215.499
215.409
215.415
215.32
215.318
215.226
215.205
215.132
216.99
216.99
216.992
216.977
216.98
216.956
216.955
216.923
216.918
216.88
216.873
216.822
216.818
216.753
216.753
216.673
216.677
216.586
216.588
216.491
216.488
216.391
216.37
216.29
218.195
218.195
218.197
218.182
218.184
218.16
218.158
218.126
218.12
218.081
218.073
218.022
218.016
217.95
217.948
217.867
217.869
217.775
217.777
217.677
217.671
217.571
217.549
217.464
219.411
219.411
219.413
219.398
219.4
219.376
219.373
219.341
219.334
219.295
219.285
219.233
219.227
219.159
219.156
219.074
219.074
218.979
218.978
218.876
218.87
218.765
218.743
218.652
220.638
220.638
220.64
220.625
220.626
220.602
220.598
220.567
220.558
220.52
220.509
220.456
220.448
220.381
220.375
220.293
220.292
220.195
220.193
220.088
220.08
219.974
219.95
219.855
221.875
221.875
221.877
221.862
221.863
221.838
221.835
221.804
221.793
221.756
221.742
221.691
221.682
221.613
221.606
221.524
221.521
221.422
221.42
221.313
221.304
221.194
221.17
221.07
223.121
223.121
223.123
223.108
223.109
223.084
223.08
223.05
223.037
223.001
222.985
222.935
222.924
222.856
222.848
222.765
222.761
222.661
222.658
222.548
222.539
222.426
222.402
222.298
224.376
224.376
224.378
224.363
224.365
224.339
224.335
224.305
224.292
224.256
224.239
224.19
224.176
224.11
224.099
224.017
224.01
223.911
223.906
223.795
223.784
223.67
223.645
223.538
225.64
225.64
225.642
225.627
225.628
225.603
225.599
225.568
225.555
225.52
225.501
225.453
225.437
225.371
225.36
225.277
225.269
225.169
225.164
225.051
225.04
224.923
224.898
224.788
226.912
226.913
226.915
226.899
226.901
226.875
226.871
226.84
226.826
226.792
226.771
226.725
226.707
226.642
226.628
226.546
226.537
226.437
226.43
226.316
226.304
226.186
226.161
226.047
228.192
228.193
228.195
228.179
228.181
228.155
228.151
228.12
228.105
228.071
228.05
228.003
227.985
227.919
227.905
227.822
227.812
227.711
227.704
227.589
227.577
227.457
227.431
227.315
229.481
229.481
229.483
229.468
229.469
229.443
229.438
229.407
229.392
229.358
229.335
229.289
229.269
229.204
229.189
229.105
229.095
228.993
228.984
228.87
228.856
228.735
228.709
228.591
230.776
230.777
230.778
230.763
230.764
230.738
230.732
230.701
230.685
230.651
230.626
230.581
230.559
230.495
230.478
230.394
230.383
230.28
230.271
230.156
230.142
230.02
229.994
229.874
232.078
232.079
232.08
232.065
232.065
232.039
232.033
232.001
231.984
231.95
231.924
231.879
231.855
231.791
231.774
231.687
231.676
231.574
231.563
231.449
231.433
231.311
231.284
231.164
233.386
233.386
233.388
233.371
233.372
233.345
233.338
233.305
233.288
233.253
233.225
233.181
233.154
233.092
233.073
232.986
232.974
232.871
232.86
232.745
232.729
232.607
232.58
232.458
234.696
234.697
234.698
234.681
234.682
234.654
234.647
234.613
234.595
234.56
234.531
234.487
234.457
234.397
234.374
234.29
234.275
234.174
234.161
234.047
234.03
233.908
233.881
233.759
236.007
236.008
236.009
235.992
235.992
235.964
235.957
235.923
235.904
235.868
235.839
235.795
235.764
235.705
235.679
235.598
235.582
235.479
235.466
235.353
235.336
235.214
235.187
235.065
237.316
237.316
237.318
237.301
237.301
237.273
237.266
237.232
237.213
237.178
237.148
237.105
237.072
237.015
236.987
236.909
236.889
236.791
236.775
236.664
236.646
236.525
236.498
236.376
238.618
238.619
238.621
238.604
238.605
238.578
238.572
238.539
238.521
238.487
238.457
238.416
238.383
238.328
238.298
238.224
238.201
238.105
238.089
237.978
237.961
237.84
237.815
237.693
239.913
239.914
239.917
239.901
239.903
239.877
239.873
239.841
239.825
239.793
239.765
239.726
239.694
239.642
239.612
239.541
239.516
239.425
239.409
239.297
239.282
239.163
239.138
239.016
241.199
241.2
241.204
241.189
241.194
241.169
241.167
241.138
241.125
241.095
241.071
241.035
241.006
240.956
240.928
240.861
240.837
240.749
240.731
240.624
240.608
240.489
240.466
240.345
242.48
242.482
242.486
242.473
242.479
242.456
242.457
242.431
242.421
242.395
242.373
242.342
242.315
242.271
242.245
242.183
242.16
242.077
242.062
241.956
241.942
241.824
241.801
241.679
243.761
243.764
243.769
243.757
243.764
243.743
243.746
243.723
243.715
243.692
243.674
243.647
243.624
243.583
243.563
243.504
243.486
243.407
243.394
243.294
243.282
243.165
243.145
243.021
245.052
245.055
245.06
245.049
245.056
245.038
245.041
245.021
245.013
244.994
244.977
244.953
244.933
244.896
244.88
244.823
244.814
244.732
244.732
244.629
244.627
244.512
244.496
244.375
246.363
246.367
246.371
246.361
246.368
246.349
246.352
246.331
246.324
246.306
246.289
246.266
246.246
246.212
246.199
246.142
246.14
246.057
246.065
245.963
245.968
245.856
245.847
245.734
247.707
247.71
247.715
247.702
247.709
247.688
247.69
247.667
247.659
247.637
247.619
247.595
247.573
247.54
247.522
247.469
247.464
247.384
247.394
247.293
247.303
247.192
247.189
247.083
249.093
249.095
249.1
249.085
249.09
249.066
249.066
249.038
249.027
249
248.978
248.949
248.922
248.886
248.861
248.809
248.795
248.72
248.722
248.621
248.633
248.519
248.521
248.413
250.528
250.53
250.533
250.517
250.519
250.492
250.487
250.455
250.437
250.406
250.376
250.341
250.306
250.263
250.229
250.172
250.147
250.068
250.063
249.956
249.967
249.844
249.85
249.734
252.013
252.015
252.016
251.999
251.998
251.968
251.958
251.922
251.898
251.861
251.822
251.78
251.735
251.683
251.637
251.571
251.535
251.443
251.428
251.308
251.313
251.177
251.183
251.052
253.545
253.547
253.547
253.529
253.526
253.492
253.479
253.439
253.409
253.367
253.321
253.272
253.217
253.156
253.098
253.021
252.969
252.864
252.835
252.697
252.69
252.532
252.534
252.38
255.118
255.119
255.12
255.099
255.096
255.059
255.045
255
254.969
254.92
254.871
254.814
254.754
254.684
254.616
254.532
254.46
254.352
254.294
254.149
254.116
253.936
253.923
253.734
256.72
256.721
256.722
256.701
256.697
256.66
256.644
256.598
256.565
256.514
256.462
256.402
256.338
256.263
256.19
256.1
256.016
255.906
255.823
255.679
255.612
255.42
255.382
255.147
258.341
258.342
258.343
258.321
258.318
258.281
258.265
258.219
258.186
258.135
258.083
258.022
257.957
257.882
257.806
257.715
257.627
257.515
257.422
257.282
257.19
257.004
256.939
256.668
259.967
259.969
259.97
259.949
259.946
259.91
259.895
259.85
259.817
259.768
259.717
259.659
259.595
259.522
259.447
259.358
259.272
259.164
259.071
258.935
258.843
258.662
258.593
258.325
261.589
261.59
261.592
261.572
261.57
261.535
261.522
261.479
261.448
261.401
261.353
261.297
261.236
261.167
261.095
261.012
260.929
260.827
260.739
260.61
260.527
260.352
260.294
260.051
263.195
263.197
263.199
263.18
263.179
263.146
263.135
263.094
263.065
263.022
262.976
262.925
262.867
262.803
262.736
262.659
262.581
262.486
262.404
262.285
262.209
262.045
261.993
261.77
264.778
264.781
264.784
264.765
264.766
264.734
264.725
264.687
264.661
264.621
264.579
264.532
264.478
264.42
264.357
264.287
264.213
264.128
264.051
263.941
263.872
263.722
263.673
263.47
266.332
266.335
266.338
266.321
266.323
266.293
266.285
266.251
266.227
266.192
266.151
266.111
266.059
266.008
265.949
265.886
265.818
265.741
265.67
265.57
265.507
265.371
265.325
265.14
267.851
267.854
267.857
267.842
267.844
267.818
267.811
267.78
267.757
267.727
267.688
267.655
267.605
267.562
267.504
267.452
267.386
267.32
267.255
267.161
267.106
266.983
266.94
266.774
269.331
269.333
269.338
269.323
269.327
269.302
269.297
269.269
269.249
269.222
269.187
269.158
269.111
269.075
269.021
268.976
268.915
268.857
268.795
268.715
268.662
268.554
268.512
268.365
270.768
270.771
270.776
270.762
270.768
270.743
270.742
270.715
270.699
270.674
270.644
270.617
270.576
270.543
270.495
270.456
270.399
270.35
270.293
270.222
270.174
270.078
270.04
269.909
272.16
272.164
272.17
272.156
272.164
272.14
272.142
272.116
272.104
272.08
272.054
272.03
271.995
271.965
271.923
271.888
271.838
271.795
271.741
271.685
271.636
271.554
271.518
271.404
273.508
273.511
273.518
273.504
273.514
273.491
273.495
273.47
273.461
273.44
273.418
273.397
273.366
273.34
273.303
273.272
273.227
273.191
273.142
273.095
273.05
272.98
272.946
272.848
274.807
274.811
274.818
274.805
274.815
274.794
274.799
274.777
274.77
274.752
274.733
274.715
274.688
274.666
274.633
274.608
274.567
274.537
274.492
274.455
274.411
274.354
274.322
274.238
276.059
276.063
276.071
276.058
276.071
276.048
276.058
276.035
276.032
276.015
276
275.984
275.961
275.942
275.914
275.893
275.857
275.833
275.793
275.762
275.721
275.677
275.644
275.575
277.263
277.267
277.274
277.265
277.273
277.259
277.263
277.247
277.243
277.231
277.216
277.204
277.184
277.169
277.144
277.128
277.096
277.077
277.04
277.017
276.979
276.945
276.915
276.858
278.42
278.422
278.434
278.416
278.438
278.41
278.43
278.404
278.41
278.395
278.386
278.375
278.358
278.346
278.325
278.312
278.285
278.27
278.238
278.22
278.187
278.162
278.133
278.087
279.528
279.533
279.537
279.536
279.536
279.535
279.53
279.527
279.519
279.516
279.503
279.498
279.483
279.474
279.456
279.447
279.423
279.413
279.384
279.373
279.342
279.325
279.298
279.263
280.591
280.591
280.607
280.584
280.617
280.579
280.613
280.58
280.597
280.58
280.579
280.57
280.56
280.554
280.538
280.532
280.512
280.506
280.482
280.474
280.448
280.438
280.412
280.387
281.606
281.612
281.613
281.618
281.611
281.621
281.609
281.618
281.605
281.611
281.599
281.599
281.588
281.586
281.572
281.57
281.553
281.551
281.529
281.527
281.503
281.498
281.475
281.459
282.578
282.578
282.593
282.573
282.604
282.57
282.605
282.573
282.595
282.578
282.583
282.577
282.572
282.571
282.56
282.561
282.546
282.547
282.529
282.531
282.51
282.511
282.489
282.482
283.503
283.509
283.51
283.515
283.511
283.521
283.511
283.523
283.511
283.521
283.511
283.516
283.509
283.511
283.502
283.505
283.493
283.498
283.482
283.488
283.469
283.474
283.456
283.456
284.388
284.389
284.401
284.388
284.41
284.389
284.414
284.394
284.412
284.401
284.407
284.405
284.404
284.406
284.4
284.405
284.395
284.403
284.389
284.399
284.383
284.393
284.375
284.382
285.229
285.234
285.237
285.24
285.241
285.245
285.244
285.251
285.246
285.255
285.25
285.257
285.253
285.259
285.254
285.261
285.254
285.264
285.253
285.265
285.252
285.266
285.25
285.263
286.033
286.034
286.042
286.037
286.049
286.042
286.055
286.049
286.058
286.057
286.061
286.064
286.064
286.07
286.067
286.076
286.071
286.083
286.074
286.089
286.077
286.095
286.08
286.099
286.795
286.799
286.802
286.804
286.808
286.81
286.815
286.818
286.82
286.825
286.827
286.833
286.833
286.841
286.84
286.85
286.847
286.861
286.854
286.871
286.861
286.882
286.868
286.892
287.521
287.523
287.53
287.527
287.537
287.534
287.543
287.544
287.548
287.554
287.556
287.564
287.565
287.574
287.574
287.586
287.584
287.6
287.594
287.614
287.604
287.628
287.617
287.644
288.211
288.215
288.216
288.222
288.221
288.23
288.23
288.236
288.24
288.245
288.25
288.257
288.26
288.27
288.271
288.284
288.283
288.301
288.296
288.318
288.311
288.337
288.325
288.356
288.866
288.868
288.875
288.871
288.884
288.878
288.891
288.89
288.897
288.903
288.907
288.916
288.919
288.93
288.933
288.946
288.947
288.966
288.963
288.986
288.979
289.007
288.998
289.03
289.488
289.493
289.491
289.502
289.495
289.512
289.505
289.519
289.518
289.529
289.531
289.541
289.545
289.557
289.56
289.575
289.577
289.596
289.594
289.619
289.614
289.643
289.636
289.668
290.079
290.08
290.087
290.083
290.098
290.089
290.107
290.101
290.116
290.116
290.126
290.133
290.139
290.151
290.155
290.17
290.173
290.193
290.193
290.218
290.215
290.244
290.234
290.277
290.639
290.644
290.642
290.653
290.646
290.664
290.654
290.674
290.667
290.684
290.684
290.697
290.701
290.715
290.719
290.735
290.739
290.76
290.76
290.787
290.784
290.815
290.807
290.847
291.171
291.172
291.178
291.176
291.188
291.182
291.199
291.193
291.21
291.209
291.221
291.228
291.235
291.248
291.254
291.27
291.275
291.296
291.297
291.324
291.322
291.355
291.347
291.389
291.674
291.678
291.678
291.686
291.684
291.696
291.692
291.708
291.705
291.72
291.722
291.736
291.74
291.755
291.76
291.777
291.782
291.804
291.806
291.834
291.832
291.866
291.86
291.901
292.153
292.154
292.158
292.16
292.165
292.169
292.175
292.18
292.188
292.195
292.202
292.213
292.22
292.234
292.24
292.257
292.262
292.285
292.287
292.316
292.314
292.35
292.342
292.386
292.605
292.608
292.61
292.612
292.619
292.62
292.629
292.632
292.641
292.648
292.656
292.666
292.673
292.688
292.694
292.712
292.718
292.74
292.744
292.772
292.771
292.808
292.802
292.843
293.034
293.037
293.037
293.044
293.042
293.055
293.051
293.067
293.065
293.08
293.083
293.097
293.102
293.118
293.124
293.142
293.148
293.171
293.175
293.204
293.202
293.24
293.233
293.278
293.441
293.442
293.446
293.446
293.455
293.453
293.467
293.464
293.479
293.481
293.493
293.502
293.51
293.524
293.532
293.55
293.556
293.579
293.583
293.612
293.612
293.649
293.643
293.687
293.825
293.828
293.828
293.834
293.834
293.844
293.843
293.857
293.857
293.871
293.874
293.888
293.894
293.91
293.917
293.935
293.941
293.964
293.969
293.998
293.998
294.035
294.03
294.073
294.19
294.192
294.194
294.197
294.201
294.206
294.211
294.218
294.224
294.233
294.24
294.252
294.259
294.274
294.282
294.3
294.306
294.33
294.334
294.364
294.364
294.4
294.394
294.44
294.535
294.537
294.54
294.541
294.548
294.548
294.558
294.56
294.571
294.577
294.586
294.597
294.604
294.619
294.627
294.645
294.651
294.674
294.68
294.708
294.71
294.744
294.741
294.783
294.862
294.864
294.865
294.871
294.87
294.882
294.878
294.893
294.892
294.907
294.91
294.925
294.93
294.946
294.953
294.972
294.978
295.002
295.006
295.035
295.037
295.071
295.067
295.111
295.172
295.173
295.176
295.177
295.184
295.184
295.195
295.195
295.207
295.212
295.222
295.232
295.24
295.254
295.262
295.281
295.287
295.31
295.315
295.343
295.345
295.38
295.376
295.419
295.465
295.467
295.468
295.472
295.474
295.481
295.483
295.493
295.496
295.508
295.513
295.526
295.532
295.547
295.555
295.573
295.579
295.602
295.607
295.636
295.637
295.673
295.669
295.71
295.742
295.744
295.745
295.749
295.75
295.759
295.76
295.77
295.773
295.784
295.789
295.802
295.809
295.824
295.832
295.849
295.856
295.879
295.883
295.912
295.912
295.949
295.944
295.987
296.006
296.006
296.009
296.009
296.017
296.016
296.027
296.028
296.039
296.044
296.053
296.064
296.071
296.086
296.093
296.111
296.118
296.14
296.145
296.173
296.174
296.211
296.206
296.247
296.253
296.256
296.256
296.261
296.26
296.27
296.269
296.282
296.282
296.295
296.299
296.312
296.319
296.333
296.341
296.359
296.366
296.388
296.392
296.42
296.422
296.455
296.453
296.493
296.49
296.49
296.493
296.494
296.499
296.502
296.508
296.513
296.52
296.528
296.535
296.546
296.554
296.568
296.575
296.593
296.6
296.621
296.627
296.653
296.654
296.691
296.685
296.727
296.712
296.713
296.715
296.717
296.722
296.723
296.731
296.735
296.743
296.75
296.758
296.768
296.776
296.789
296.797
296.814
296.821
296.843
296.847
296.874
296.876
296.91
296.907
296.946
296.923
296.924
296.925
296.93
296.929
296.939
296.937
296.95
296.95
296.963
296.967
296.979
296.986
297
297.007
297.024
297.031
297.052
297.057
297.083
297.084
297.12
297.115
297.155
297.123
297.123
297.126
297.126
297.132
297.133
297.142
297.144
297.153
297.159
297.167
297.177
297.184
297.198
297.205
297.222
297.229
297.25
297.254
297.281
297.284
297.313
297.312
297.351
297.311
297.313
297.314
297.317
297.319
297.324
297.328
297.335
297.339
297.349
297.354
297.366
297.372
297.386
297.393
297.409
297.416
297.437
297.441
297.469
297.469
297.502
297.499
297.536
297.491
297.491
297.492
297.497
297.496
297.505
297.504
297.515
297.516
297.528
297.531
297.544
297.549
297.564
297.57
297.587
297.593
297.614
297.619
297.642
297.645
297.677
297.675
297.711
297.659
297.66
297.663
297.662
297.67
297.668
297.679
297.679
297.689
297.694
297.702
297.712
297.718
297.732
297.738
297.755
297.761
297.782
297.784
297.812
297.814
297.842
297.841
297.877
297.819
297.821
297.82
297.826
297.825
297.833
297.832
297.844
297.844
297.856
297.859
297.872
297.877
297.89
297.896
297.914
297.918
297.94
297.944
297.967
297.968
298.001
297.998
298.032
297.971
297.972
297.972
297.977
297.976
297.984
297.984
297.994
297.996
298.006
298.011
298.022
298.028
298.041
298.046
298.064
298.069
298.089
298.091
298.12
298.118
298.149
298.147
298.181
298.114
298.113
298.118
298.114
298.126
298.119
298.135
298.13
298.143
298.145
298.155
298.163
298.17
298.183
298.188
298.205
298.209
298.231
298.235
298.257
298.26
298.288
298.287
298.32
298.249
298.252
298.247
298.26
298.247
298.27
298.255
298.278
298.268
298.287
298.286
298.3
298.303
298.318
298.322
298.34
298.344
298.364
298.367
298.392
298.392
298.422
298.42
298.453
298.377
298.375
298.383
298.375
298.391
298.38
298.399
298.39
298.406
298.406
298.416
298.425
298.431
298.444
298.448
298.466
298.468
298.491
298.491
298.518
298.517
298.547
298.544
298.576
298.497
298.499
298.497
298.504
298.501
298.511
298.509
298.52
298.52
298.532
298.534
298.546
298.55
298.565
298.567
298.586
298.589
298.609
298.611
298.636
298.637
298.665
298.663
298.694
298.611
298.612
298.612
298.618
298.614
298.626
298.621
298.635
298.632
298.646
298.646
298.66
298.663
298.677
298.681
298.697
298.701
298.721
298.723
298.747
298.747
298.776
298.773
298.805
298.719
298.718
298.724
298.717
298.732
298.722
298.741
298.732
298.748
298.748
298.757
298.765
298.769
298.784
298.787
298.804
298.806
298.829
298.829
298.854
298.854
298.882
298.88
298.909
298.819
298.823
298.817
298.831
298.817
298.84
298.824
298.848
298.836
298.856
298.852
298.868
298.869
298.884
298.887
298.905
298.907
298.927
298.929
298.952
298.952
298.979
298.977
299.008
298.917
298.914
298.922
298.914
298.93
298.918
298.936
298.929
298.943
298.944
298.952
298.961
298.965
298.979
298.982
298.999
299.002
299.021
299.024
299.046
299.047
299.074
299.072
299.101
299.005
299.008
299.004
299.014
299.006
299.021
299.014
299.028
299.025
299.038
299.039
299.051
299.053
299.068
299.071
299.087
299.089
299.11
299.11
299.134
299.134
299.16
299.159
299.187
299.091
299.091
299.093
299.093
299.097
299.1
299.103
299.109
299.112
299.121
299.124
299.135
299.138
299.152
299.154
299.171
299.174
299.193
299.195
299.217
299.218
299.244
299.242
299.27
299.17
299.17
299.172
299.172
299.177
299.177
299.184
299.186
299.193
299.199
299.203
299.214
299.217
299.23
299.233
299.249
299.252
299.271
299.271
299.294
299.294
299.32
299.319
299.346
299.244
299.246
299.245
299.251
299.248
299.257
299.254
299.265
299.264
299.275
299.277
299.289
299.29
299.304
299.307
299.323
299.325
299.344
299.346
299.368
299.369
299.393
299.391
299.419
299.314
299.314
299.317
299.317
299.321
299.322
299.328
299.331
299.336
299.343
299.346
299.357
299.359
299.372
299.376
299.393
299.393
299.413
299.413
299.434