/*--------------------------------*- C++ -*----------------------------------*\
  =========                 |
  \\      /  F ield         | OpenFOAM: The Open Source CFD Toolbox
   \\    /   O peration     | Website:  https://openfoam.org
    \\  /    A nd           | Version:  10
     \\/     M anipulation  |
\*---------------------------------------------------------------------------*/
FoamFile
{
    format      ascii;
    class       volVectorField;
    location    "0.17";
    object      U;
}
// * * * * * * * * * * * * * * * * * * * * * * * * * * * * * * * * * * * * * //

dimensions      [0 1 -1 0 0 0 0];

internalField   nonuniform List<vector> 
4176
(
(497.465 -0.0147247 -2.81933e-09)
(497.451 0.0647023 8.98303e-10)
(497.425 0.000255347 -2.4017e-10)
(497.378 0.0916994 3.82229e-11)
(497.321 0.0495447 1.22164e-10)
(497.249 0.0910551 -1.79416e-10)
(497.156 0.124172 -3.31026e-10)
(497.065 0.0621867 -1.01698e-10)
(496.93 0.223373 1.10923e-10)
(496.825 0.00666343 1.8228e-10)
(496.648 0.342311 1.04476e-10)
(496.526 -0.0670929 2.22088e-10)
(496.315 0.467592 2.51173e-10)
(496.168 -0.137289 3.11109e-11)
(495.933 0.565417 -1.29888e-10)
(495.749 -0.133235 -1.11944e-10)
(495.513 0.526026 -1.93416e-10)
(495.263 0.0262303 -1.29301e-10)
(495.05 0.332224 1.85266e-10)
(494.706 0.325635 1.88102e-10)
(494.552 -0.0193359 -3.72302e-11)
(494.074 0.77432 -1.22061e-10)
(494.044 -0.519317 1.24256e-11)
(493.42 1.44507 6.6608e-11)
(497.446 0.00434864 -2.81889e-09)
(497.432 0.115524 8.9894e-10)
(497.406 0.0753133 -2.40502e-10)
(497.357 0.204601 3.75792e-11)
(497.3 0.184809 1.2237e-10)
(497.225 0.265766 -1.79386e-10)
(497.131 0.320077 -3.32118e-10)
(497.037 0.297271 -1.019e-10)
(496.9 0.480322 1.11435e-10)
(496.791 0.299775 1.8255e-10)
(496.612 0.660804 1.04217e-10)
(496.485 0.280711 2.2238e-10)
(496.27 0.848147 2.49903e-10)
(496.118 0.260574 3.12675e-11)
(495.877 1.01009 -1.29762e-10)
(495.69 0.304423 -1.11641e-10)
(495.446 1.03972 -1.94774e-10)
(495.192 0.513241 -1.29453e-10)
(494.973 0.911769 1.84391e-10)
(494.622 0.85778 1.87792e-10)
(494.468 0.625862 -3.72122e-11)
(493.969 1.33368 -1.24455e-10)
(493.933 0.122443 1.3191e-11)
(493.246 1.99506 6.61643e-11)
(497.39 0.0226983 -2.82288e-09)
(497.376 0.162178 8.98103e-10)
(497.351 0.146491 -2.4241e-10)
(497.302 0.308942 3.86909e-11)
(497.248 0.312412 1.2231e-10)
(497.173 0.427955 -1.8027e-10)
(497.084 0.504195 -3.29977e-10)
(496.989 0.516495 -1.00515e-10)
(496.858 0.72103 1.13246e-10)
(496.749 0.57442 1.82891e-10)
(496.576 0.958569 1.03477e-10)
(496.451 0.608098 2.21993e-10)
(496.24 1.20393 2.5196e-10)
(496.093 0.636142 3.15111e-11)
(495.855 1.42629 -1.30059e-10)
(495.674 0.716145 -1.10668e-10)
(495.432 1.52019 -1.97795e-10)
(495.186 0.968453 -1.31206e-10)
(494.971 1.45455 1.85215e-10)
(494.63 1.34641 1.87547e-10)
(494.483 1.24509 -3.81904e-11)
(493.994 1.8848 -1.21944e-10)
(493.959 0.835999 1.34105e-11)
(493.248 2.61119 6.70336e-11)
(497.286 0.0414323 -2.82125e-09)
(497.272 0.209681 9.01644e-10)
(497.247 0.218986 -2.43376e-10)
(497.198 0.415258 4.18806e-11)
(497.145 0.442381 1.21812e-10)
(497.069 0.593309 -1.8477e-10)
(496.98 0.691749 -3.30427e-10)
(496.886 0.74012 -1.03498e-10)
(496.754 0.966232 1.06325e-10)
(496.646 0.854715 1.8641e-10)
(496.472 1.26189 1.04594e-10)
(496.348 0.94244 2.20671e-10)
(496.135 1.56659 2.53945e-10)
(495.99 1.02033 3.01219e-11)
(495.748 1.85116 -1.37224e-10)
(495.57 1.1376 -1.12133e-10)
(495.324 2.01459 -1.95684e-10)
(495.074 1.42896 -1.31682e-10)
(494.869 2.00663 1.87644e-10)
(494.517 1.8432 1.87111e-10)
(494.376 1.85564 -4.10148e-11)
(493.893 2.42264 -1.22906e-10)
(493.864 1.52298 1.15587e-11)
(493.183 3.2079 5.74571e-11)
(497.135 0.0597629 -2.82291e-09)
(497.121 0.2562 9.07849e-10)
(497.097 0.289904 -2.39436e-10)
(497.048 0.519441 4.20239e-11)
(496.995 0.569515 1.25334e-10)
(496.92 0.755475 -1.79468e-10)
(496.832 0.875218 -3.32858e-10)
(496.739 0.959661 -1.01782e-10)
(496.609 1.2061 1.11594e-10)
(496.502 1.13018 1.84382e-10)
(496.329 1.55866 1.04942e-10)
(496.207 1.27123 2.23968e-10)
(495.996 1.92185 2.50949e-10)
(495.854 1.39808 2.93098e-11)
(495.612 2.26888 -1.35336e-10)
(495.439 1.55227 -1.14917e-10)
(495.189 2.5099 -1.97061e-10)
(494.944 1.87212 -1.30995e-10)
(494.742 2.55166 1.82331e-10)
(494.389 2.34108 1.93044e-10)
(494.249 2.45008 -3.33435e-11)
(493.772 2.94841 -1.20091e-10)
(493.742 2.16559 1.50875e-11)
(493.081 3.76577 6.81795e-11)
(496.935 0.0780857 -2.83446e-09)
(496.921 0.302423 9.05389e-10)
(496.897 0.360667 -2.37865e-10)
(496.848 0.623037 3.72477e-11)
(496.796 0.696345 1.14452e-10)
(496.722 0.916785 -1.84616e-10)
(496.635 1.05826 -3.3095e-10)
(496.541 1.17815 -1.06158e-10)
(496.413 1.44538 1.1194e-10)
(496.306 1.40457 1.89858e-10)
(496.135 1.85456 1.05356e-10)
(496.013 1.59918 2.18616e-10)
(495.804 2.27549 2.48616e-10)
(495.663 1.77572 3.18875e-11)
(495.422 2.68329 -1.38399e-10)
(495.252 1.9712 -1.1257e-10)
(494.997 3.00053 -1.86841e-10)
(494.765 2.31499 -1.28236e-10)
(494.549 3.10117 1.92282e-10)
(494.207 2.8379 1.95343e-10)
(494.063 3.04621 -3.76158e-11)
(493.59 3.47632 -1.30955e-10)
(493.554 2.81252 1.17926e-11)
(492.892 4.32268 6.83254e-11)
(496.687 0.0962311 -2.83225e-09)
(496.673 0.347982 9.02062e-10)
(496.649 0.43064 -2.53757e-10)
(496.601 0.725194 3.7395e-11)
(496.549 0.821719 1.29376e-10)
(496.475 1.07588 -1.83797e-10)
(496.389 1.23919 -3.42831e-10)
(496.297 1.39371 -1.02037e-10)
(496.17 1.68192 1.18222e-10)
(496.064 1.67546 1.85094e-10)
(495.895 2.14701 1.02659e-10)
(495.774 1.92334 2.30018e-10)
(495.567 2.62474 2.64815e-10)
(495.427 2.14971 3.3964e-11)
(495.187 3.09161 -1.34007e-10)
(495.022 2.38848 -1.09512e-10)
(494.764 3.48014 -1.96613e-10)
(494.543 2.75965 -1.34017e-10)
(494.317 3.64859 1.86906e-10)
(493.988 3.32289 1.93046e-10)
(493.838 3.64118 -3.90612e-11)
(493.372 4.00373 -1.31173e-10)
(493.332 3.46919 1.40206e-11)
(492.671 4.88492 7.32897e-11)
(496.39 0.114239 -2.84642e-09)
(496.376 0.393074 9.12009e-10)
(496.352 0.499991 -2.3339e-10)
(496.304 0.82633 4.09381e-11)
(496.254 0.945923 1.16821e-10)
(496.18 1.23337 -1.80961e-10)
(496.095 1.41837 -3.26853e-10)
(496.003 1.60711 -1.03709e-10)
(495.878 1.91614 9.97482e-11)
(495.773 1.94375 1.82577e-10)
(495.606 2.43653 1.13606e-10)
(495.486 2.24461 2.24684e-10)
(495.28 2.97038 2.39688e-10)
(495.143 2.52074 2.54832e-11)
(494.904 3.49543 -1.27001e-10)
(494.742 2.80325 -1.17833e-10)
(494.483 3.95237 -1.9331e-10)
(494.271 3.20193 -1.1759e-10)
(494.038 4.19135 1.90868e-10)
(493.722 3.80345 1.78515e-10)
(493.565 4.23428 -3.92785e-11)
(493.107 4.5263 -1.15188e-10)
(493.063 4.12058 1.14243e-11)
(492.41 5.43992 4.99878e-11)
(496.044 0.132067 -2.85669e-09)
(496.031 0.437611 8.98127e-10)
(496.007 0.568559 -2.5526e-10)
(495.96 0.926238 2.87816e-11)
(495.91 1.06867 1.16986e-10)
(495.837 1.38893 -1.89382e-10)
(495.753 1.59538 -3.42678e-10)
(495.662 1.81786 -1.07345e-10)
(495.538 2.14742 1.06103e-10)
(495.434 2.20874 1.79493e-10)
(495.269 2.72237 1.01883e-10)
(495.15 2.56211 2.23524e-10)
(494.946 3.31156 2.48513e-10)
(494.812 2.88776 2.69447e-11)
(494.574 3.8938 -1.33704e-10)
(494.416 3.2142 -1.14978e-10)
(494.157 4.4161 -1.97915e-10)
(493.953 3.64123 -1.28821e-10)
(493.715 4.7273 1.87536e-10)
(493.41 4.27735 1.85565e-10)
(493.247 4.82485 -4.1269e-11)
(492.798 5.04414 -1.26408e-10)
(492.751 4.76756 1.31017e-11)
(492.107 5.98829 6.62588e-11)
(495.651 0.149711 -2.83899e-09)
(495.637 0.481603 9.26549e-10)
(495.614 0.63634 -2.36492e-10)
(495.567 1.02494 5.20174e-11)
(495.517 1.18995 1.35798e-10)
(495.445 1.54258 -1.7239e-10)
(495.362 1.7702 -3.2628e-10)
(495.272 2.02599 -9.04187e-11)
(495.15 2.37575 1.24314e-10)
(495.047 2.4704 1.96202e-10)
(494.883 3.00445 1.20247e-10)
(494.767 2.87572 2.3976e-10)
(494.565 3.64815 2.67476e-10)
(494.433 3.25054 3.98126e-11)
(494.196 4.28665 -1.20111e-10)
(494.042 3.621 -1.04427e-10)
(493.783 4.8717 -1.84398e-10)
(493.587 4.07677 -1.18021e-10)
(493.344 5.2557 2.01514e-10)
(493.051 4.74476 1.97323e-10)
(492.883 5.41108 -2.91646e-11)
(492.444 5.55563 -1.14381e-10)
(492.393 5.40808 2.24747e-11)
(491.759 6.52832 7.53289e-11)
(495.208 0.167145 -2.85777e-09)
(495.195 0.524994 9.14797e-10)
(495.172 0.703238 -2.46124e-10)
(495.125 1.12232 4.45653e-11)
(495.077 1.30962 1.29283e-10)
(495.005 1.69417 -1.80404e-10)
(494.923 1.94264 -3.31844e-10)
(494.834 2.23129 -9.26087e-11)
(494.713 2.60087 1.22415e-10)
(494.612 2.72846 1.94477e-10)
(494.45 3.28241 1.20625e-10)
(494.336 3.185 2.42634e-10)
(494.136 3.97968 2.7054e-10)
(494.006 3.60849 4.17277e-11)
(493.771 4.67347 -1.15451e-10)
(493.621 4.02296 -9.861e-11)
(493.363 5.31906 -1.77227e-10)
(493.174 4.50801 -1.11982e-10)
(492.928 5.77571 2.12058e-10)
(492.646 5.20573 2.08252e-10)
(492.472 5.99074 -4.08602e-11)
(492.046 6.05912 -1.48422e-10)
(491.99 6.04222 -6.79515e-12)
(491.367 7.05954 4.41008e-11)
(494.718 0.184346 -2.86389e-09)
(494.704 0.567741 9.17137e-10)
(494.682 0.769176 -2.49362e-10)
(494.635 1.21828 3.91567e-11)
(494.588 1.42756 1.24441e-10)
(494.516 1.84357 -1.86446e-10)
(494.436 2.11256 -3.40447e-10)
(494.348 2.43362 -1.02944e-10)
(494.229 2.82262 1.1235e-10)
(494.129 2.98274 1.85005e-10)
(493.969 3.55607 1.10159e-10)
(493.856 3.48971 2.33762e-10)
(493.659 4.30588 2.60005e-10)
(493.532 3.96122 3.22001e-11)
(493.299 5.05389 -1.30017e-10)
(493.153 4.41946 -1.12491e-10)
(492.896 5.75821 -1.94614e-10)
(492.714 4.93461 -1.25529e-10)
(492.464 6.28681 1.93701e-10)
(492.195 5.66019 1.89952e-10)
(492.016 6.56185 -3.59467e-11)
(491.602 6.55297 -1.19229e-10)
(491.543 6.66937 1.90977e-11)
(490.93 7.5814 7.0511e-11)
(494.178 0.201286 -2.87039e-09)
(494.165 0.609785 9.16298e-10)
(494.143 0.834052 -2.55505e-10)
(494.097 1.3127 3.32599e-11)
(494.05 1.5436 1.16366e-10)
(493.979 1.9906 -1.98863e-10)
(493.9 2.27975 -3.55485e-10)
(493.813 2.63276 -1.19907e-10)
(493.696 3.04076 9.54229e-11)
(493.597 3.23301 1.66375e-10)
(493.44 3.82516 8.4006e-11)
(493.329 3.78955 2.07994e-10)
(493.134 4.62642 2.27553e-10)
(493.01 4.30828 2.68028e-11)
(492.779 5.42746 -1.06149e-10)
(492.638 4.80981 -9.53311e-11)
(492.381 6.18901 -1.76786e-10)
(492.206 5.35615 -1.13317e-10)
(491.955 6.78825 2.06336e-10)
(491.697 6.10675 2.00456e-10)
(491.513 7.12439 -2.78191e-11)
(491.112 7.03706 -1.14169e-10)
(491.05 7.28771 2.43774e-11)
(490.449 8.09335 7.35823e-11)
(493.59 0.217941 -2.86885e-09)
(493.576 0.651073 9.40253e-10)
(493.555 0.897775 -2.56457e-10)
(493.509 1.40546 1.4017e-11)
(493.463 1.65758 1.13591e-10)
(493.394 2.13508 -1.90106e-10)
(493.316 2.44398 -3.35025e-10)
(493.23 2.8285 -8.28556e-11)
(493.115 3.25506 1.14809e-10)
(493.018 3.47901 1.66976e-10)
(492.862 4.08942 9.71491e-11)
(492.754 4.08424 2.31822e-10)
(492.561 4.94102 2.70237e-10)
(492.44 4.64933 4.61582e-11)
(492.212 5.79382 -1.39293e-10)
(492.075 5.1935 -1.36418e-10)
(491.82 6.61107 -2.13435e-10)
(491.652 5.77207 -1.32124e-10)
(491.398 7.27959 2.00701e-10)
(491.152 6.5451 2.06328e-10)
(490.964 7.6775 -4.01908e-11)
(490.576 7.51018 -1.43117e-10)
(490.511 7.89602 7.50939e-12)
(489.923 8.59487 7.07578e-11)
(492.952 0.234287 -2.89091e-09)
(492.939 0.691554 9.01205e-10)
(492.918 0.960255 -2.47906e-10)
(492.873 1.49643 7.06747e-11)
(492.828 1.76933 1.39471e-10)
(492.759 2.27681 -1.8745e-10)
(492.683 2.60502 -3.55699e-10)
(492.598 3.02054 -1.29059e-10)
(492.485 3.4652 1.12044e-10)
(492.39 3.72043 2.0928e-10)
(492.237 4.34855 1.18073e-10)
(492.131 4.37347 2.26427e-10)
(491.94 5.24939 2.36283e-10)
(491.823 4.98402 2.47154e-11)
(491.597 6.15264 -1.15204e-10)
(491.465 5.57007 -1.07435e-10)
(491.212 7.02393 -2.03482e-10)
(491.05 6.18163 -1.43657e-10)
(490.796 7.76024 1.60168e-10)
(490.561 6.97488 1.77394e-10)
(490.369 8.22085 -2.72519e-11)
(489.994 7.97155 -1.18958e-10)
(489.927 8.493 7.64546e-12)
(489.352 9.08542 4.53453e-11)
(492.265 0.250303 -2.88234e-09)
(492.252 0.731183 9.5209e-10)
(492.231 1.02141 -2.55234e-10)
(492.187 1.5855 1.09601e-11)
(492.143 1.87869 1.12302e-10)
(492.075 2.41558 -1.88234e-10)
(492.001 2.7626 -3.28398e-10)
(491.918 3.2086 -7.59487e-11)
(491.806 3.67085 1.16257e-10)
(491.713 3.95691 1.6869e-10)
(491.563 4.60217 1.03992e-10)
(491.46 4.65685 2.40678e-10)
(491.272 5.55116 2.81154e-10)
(491.158 5.31199 2.13471e-11)
(490.934 6.5036 -1.71657e-10)
(490.807 5.93907 -1.32971e-10)
(490.556 7.42723 -2.04105e-10)
(490.401 6.58402 -1.18928e-10)
(490.146 8.2294 2.16264e-10)
(489.923 7.39587 1.84092e-10)
(489.728 8.75375 -6.62265e-11)
(489.366 8.42084 -1.32285e-10)
(489.296 9.07809 2.09953e-11)
(488.736 9.5643 8.2858e-11)
(491.529 0.265967 -2.90379e-09)
(491.516 0.769913 9.16552e-10)
(491.496 1.08116 -2.73835e-10)
(491.452 1.67255 7.1765e-12)
(491.409 1.98551 1.23302e-10)
(491.342 2.5512 -1.62011e-10)
(491.27 2.91649 -3.25534e-10)
(491.188 3.39239 -9.46635e-11)
(491.079 3.87167 1.1324e-10)
(490.988 4.18805 1.80324e-10)
(490.84 4.84987 9.29287e-11)
(490.74 4.93395 2.09562e-10)
(490.555 5.84594 2.62234e-10)
(490.444 5.63282 5.21382e-11)
(490.224 6.84635 -1.21102e-10)
(490.101 6.30011 -1.09756e-10)
(489.853 7.82071 -2.00783e-10)
(489.705 6.97839 -1.35517e-10)
(489.45 8.68627 1.74273e-10)
(489.238 7.8077 1.61125e-10)
(489.04 9.27469 -7.78524e-11)
(488.693 8.85871 -1.29168e-10)
(488.618 9.65173 3.88948e-11)
(488.073 10.0302 7.95541e-11)
(490.743 0.281253 -2.90306e-09)
(490.73 0.80769 9.42476e-10)
(490.71 1.13943 -2.40601e-10)
(490.667 1.75747 6.18558e-11)
(490.625 2.08962 1.4696e-10)
(490.56 2.68347 -1.66867e-10)
(490.489 3.06643 -3.18636e-10)
(490.409 3.57161 -7.07236e-11)
(490.302 4.0673 1.5403e-10)
(490.214 4.41346 1.92687e-10)
(490.069 5.0912 7.71006e-11)
(489.971 5.20428 2.06641e-10)
(489.79 6.13323 2.29968e-10)
(489.683 5.94601 5.11559e-13)
(489.466 7.18046 -1.63281e-10)
(489.348 6.65279 -1.35188e-10)
(489.102 8.20412 -2.18133e-10)
(488.961 7.364 -1.39143e-10)
(488.707 9.13018 1.87603e-10)
(488.507 8.21008 1.89733e-10)
(488.305 9.78324 -3.43426e-11)
(487.973 9.28472 -1.14965e-10)
(487.894 10.2131 2.77431e-11)
(487.365 10.4827 8.35887e-11)
(489.907 0.296134 -2.91697e-09)
(489.894 0.844451 9.30986e-10)
(489.875 1.19609 -2.61719e-10)
(489.833 1.84012 3.56084e-11)
(489.792 2.19085 1.14611e-10)
(489.728 2.81218 -2.10597e-10)
(489.659 3.21217 -3.65431e-10)
(489.581 3.74598 -1.21033e-10)
(489.476 4.25742 9.58427e-11)
(489.391 4.63276 1.68807e-10)
(489.249 5.32573 9.03134e-11)
(489.154 5.46736 2.11558e-10)
(488.976 6.41251 2.26354e-10)
(488.873 6.25099 -7.56458e-12)
(488.659 7.5054 -1.81456e-10)
(488.547 6.99653 -1.58316e-10)
(488.304 8.57703 -2.05854e-10)
(488.17 7.74033 -9.84212e-11)
(487.917 9.56068 2.27755e-10)
(487.729 8.60262 2.16231e-10)
(487.524 10.2789 -1.3564e-11)
(487.207 9.69856 -1.03859e-10)
(487.124 10.7616 3.59429e-11)
(486.612 10.9213 8.77841e-11)
(489.021 0.310574 -2.94033e-09)
(489.008 0.880118 9.44318e-10)
(488.99 1.25104 -2.33213e-10)
(488.948 1.92032 4.05761e-11)
(488.909 2.289 1.40781e-10)
(488.846 2.9371 -1.61855e-10)
(488.779 3.35345 -3.44739e-10)
(488.703 3.91521 -1.25434e-10)
(488.601 4.44169 1.1413e-10)
(488.518 4.84558 2.08276e-10)
(488.379 5.55304 1.04253e-10)
(488.288 5.72271 2.41965e-10)
(488.114 6.68327 2.77001e-10)
(488.015 6.54718 1.25702e-11)
(487.805 7.82059 -1.36558e-10)
(487.697 7.33071 -9.88985e-11)
(487.458 8.93888 -2.11204e-10)
(487.331 8.10683 -1.61048e-10)
(487.08 9.97736 1.78467e-10)
(486.903 8.98488 1.89484e-10)
(486.696 10.7612 -6.69393e-11)
(486.394 10.0999 -1.32075e-10)
(486.307 11.2965 2.35344e-11)
(485.812 11.3455 5.11339e-11)
(488.084 0.324536 -2.92792e-09)
(488.072 0.914603 9.58264e-10)
(488.054 1.30412 -2.34275e-10)
(488.013 1.9979 7.50172e-11)
(487.975 2.38384 1.59395e-10)
(487.914 3.05797 -2.00507e-10)
(487.849 3.48999 -3.91707e-10)
(487.775 4.079 -1.34699e-10)
(487.676 4.61978 9.62559e-11)
(487.596 5.05157 1.77558e-10)
(487.46 5.77274 1.04747e-10)
(487.373 5.96989 2.38554e-10)
(487.202 6.94503 2.68458e-10)
(487.108 6.83402 3.80251e-11)
(486.902 8.12545 -1.18256e-10)
(486.8 7.65466 -9.50628e-11)
(486.565 9.28909 -1.73559e-10)
(486.444 8.46279 -1.36689e-10)
(486.196 10.3799 1.50678e-10)
(486.03 9.3565 1.5734e-10)
(485.821 11.2294 -6.73024e-11)
(485.535 10.4884 -1.44936e-10)
(485.443 11.8174 -2.91891e-12)
(484.965 11.7549 5.99397e-11)
(487.097 0.337978 -2.95509e-09)
(487.085 0.947814 9.1335e-10)
(487.067 1.3552 -2.58522e-10)
(487.028 2.07266 7.53856e-11)
(486.991 2.47512 1.36375e-10)
(486.932 3.17453 -2.01475e-10)
(486.869 3.62148 -3.69209e-10)
(486.798 4.23702 -9.13411e-11)
(486.701 4.79137 1.59743e-10)
(486.624 5.25039 2.16144e-10)
(486.492 5.98447 1.19915e-10)
(486.408 6.20851 2.25831e-10)
(486.241 7.19734 2.25005e-10)
(486.152 7.11101 1.52761e-11)
(485.95 8.41943 -1.23857e-10)
(485.854 7.96772 -1.17337e-10)
(485.623 9.62702 -2.19145e-10)
(485.51 8.8074 -1.58399e-10)
(485.265 10.7678 1.96229e-10)
(485.109 9.71711 2.13152e-10)
(484.899 11.6827 -3.36386e-11)
(484.629 10.8637 -1.36701e-10)
(484.533 12.3238 -1.67449e-11)
(484.073 12.1491 6.46617e-11)
(486.059 0.350863 -2.96713e-09)
(486.047 0.979668 9.17154e-10)
(486.03 1.40414 -2.59709e-10)
(485.992 2.14441 8.10511e-11)
(485.957 2.56262 1.46774e-10)
(485.899 3.28649 -1.97137e-10)
(485.838 3.74762 -3.70486e-10)
(485.77 4.38895 -1.415e-10)
(485.676 4.95609 1.10503e-10)
(485.602 5.44168 2.21994e-10)
(485.474 6.18785 1.30631e-10)
(485.394 6.43818 2.36503e-10)
(485.231 7.43979 2.36087e-10)
(485.147 7.37769 2.42831e-11)
(484.95 8.70203 -1.14106e-10)
(484.859 8.2693 -1.13162e-10)
(484.632 9.95203 -2.14728e-10)
(484.527 9.13981 -1.49671e-10)
(484.285 11.1409 2.07349e-10)
(484.141 10.0663 2.22631e-10)
(483.929 12.12 -2.3751e-11)
(483.675 11.2252 -1.28165e-10)
(483.576 12.815 -2.01613e-12)
(483.134 12.5277 3.74566e-11)
(484.97 0.363161 -2.98444e-09)
(484.958 1.01009 9.61233e-10)
(484.942 1.45081 -2.35572e-10)
(484.905 2.21299 3.76164e-11)
(484.871 2.64611 9.1448e-11)
(484.816 3.39359 -2.14184e-10)
(484.757 3.86809 -3.46111e-10)
(484.691 4.53444 -1.25865e-10)
(484.601 5.11358 1.16365e-10)
(484.53 5.62506 2.12838e-10)
(484.406 6.38249 1.05085e-10)
(484.33 6.65854 2.52551e-10)
(484.172 7.672 2.9528e-10)
(484.092 7.63367 1.91188e-11)
(483.9 8.97283 -1.84073e-10)
(483.815 8.5589 -1.37429e-10)
(483.593 10.2636 -1.99376e-10)
(483.495 9.45932 -1.45234e-10)
(483.258 11.4987 2.02816e-10)
(483.124 10.4035 2.0943e-10)
(482.912 12.5405 -5.03017e-11)
(482.674 11.5721 -1.14588e-10)
(482.571 13.29 4.8966e-11)
(482.149 12.8901 7.09541e-11)
(483.83 0.37485 -2.96354e-09)
(483.818 1.03903 9.88806e-10)
(483.803 1.49513 -2.2119e-10)
(483.767 2.27827 4.92105e-11)
(483.735 2.72542 9.70556e-11)
(483.681 3.49562 -2.15379e-10)
(483.626 3.98262 -3.527e-10)
(483.562 4.67318 -8.26617e-11)
(483.475 5.26348 1.54878e-10)
(483.408 5.80014 1.92949e-10)
(483.287 6.56799 7.84517e-11)
(483.216 6.86916 2.22699e-10)
(483.062 7.89356 2.57988e-10)
(482.988 7.87854 2.88347e-11)
(482.8 9.23142 -1.24176e-10)
(482.722 8.83609 -8.85352e-11)
(482.505 10.5613 -2.11015e-10)
(482.415 9.76541 -1.64766e-10)
(482.181 11.8405 1.76e-10)
(482.058 10.7279 1.81439e-10)
(481.847 12.9435 -3.42916e-11)
(481.626 11.9036 -1.05273e-10)
(481.52 13.7477 5.45631e-11)
(481.117 13.2357 7.11922e-11)
(482.639 0.385913 -2.96869e-09)
(482.627 1.06646 9.62086e-10)
(482.613 1.53704 -2.81573e-10)
(482.578 2.34015 6.12653e-11)
(482.548 2.80042 1.24385e-10)
(482.496 3.59238 -2.22219e-10)
(482.443 4.09097 -3.37597e-10)
(482.382 4.80489 -1.0477e-10)
(482.299 5.40544 9.48418e-11)
(482.235 5.96655 2.10385e-10)
(482.119 6.74394 1.18156e-10)
(482.052 7.06964 2.23848e-10)
(481.903 8.10405 2.815e-10)
(481.834 8.1119 1.81537e-11)
(481.651 9.47741 -1.76305e-10)
(481.58 9.10046 -1.19515e-10)
(481.367 10.8447 -2.22979e-10)
(481.285 10.0576 -1.55064e-10)
(481.056 12.166 2.05697e-10)
(480.944 11.039 1.77038e-10)
(480.733 13.3283 -7.4349e-11)
(480.529 12.2188 -1.25429e-10)
(480.42 14.1866 -5.21318e-12)
(480.038 13.5639 3.6175e-11)
(481.397 0.396342 -3.03792e-09)
(481.385 1.09235 9.40846e-10)
(481.372 1.57649 -2.82914e-10)
(481.337 2.39857 3.18627e-11)
(481.309 2.87101 1.25077e-10)
(481.259 3.68375 -2.00172e-10)
(481.209 4.19296 -3.50166e-10)
(481.151 4.92932 -8.74196e-11)
(481.071 5.53918 1.41337e-10)
(481.011 6.12395 2.22654e-10)
(480.899 6.90993 1.53486e-10)
(480.837 7.25955 2.30594e-10)
(480.693 8.30301 2.53427e-10)
(480.63 8.33331 1.22886e-11)
(480.452 9.71038 -1.53909e-10)
(480.387 9.35162 -1.25192e-10)
(480.18 11.1135 -2.0619e-10)
(480.106 10.3354 -1.19183e-10)
(479.882 12.4748 2.18578e-10)
(479.78 11.336 2.07966e-10)
(479.571 13.6943 -7.4853e-11)
(479.383 12.5175 -1.51243e-10)
(479.272 14.6061 -4.80822e-12)
(478.91 13.8745 5.20449e-11)
(480.103 0.406125 -3.00787e-09)
(480.092 1.11666 9.97552e-10)
(480.079 1.61345 -2.27207e-10)
(480.046 2.45347 4.45624e-11)
(480.02 2.93712 9.13367e-11)
(479.972 3.76963 -2.31348e-10)
(479.924 4.28847 -3.6888e-10)
(479.869 5.04631 -9.33632e-11)
(479.793 5.66446 1.42165e-10)
(479.737 6.27205 2.3535e-10)
(479.629 7.06564 1.18866e-10)
(479.572 7.43848 2.09004e-10)
(479.433 8.49003 2.42442e-10)
(479.375 8.54231 6.37654e-12)
(479.203 9.92989 -1.48889e-10)
(479.145 9.58911 -1.09402e-10)
(478.944 11.3673 -1.76951e-10)
(478.878 10.5985 -8.21544e-11)
(478.659 12.7667 2.07917e-10)
(478.567 11.6181 1.56314e-10)
(478.361 14.0403 -6.31879e-11)
(478.189 12.8 -1.30672e-10)
(478.076 15.0074 3.05125e-11)
(477.734 14.1678 1.00231e-10)
(478.758 0.415249 -3.00615e-09)
(478.747 1.13939 9.69113e-10)
(478.735 1.64788 -3.04142e-10)
(478.703 2.50479 3.8427e-11)
(478.678 2.99867 1.62403e-10)
(478.633 3.84993 -1.95432e-10)
(478.588 4.37739 -3.8228e-10)
(478.536 5.15574 -9.33005e-11)
(478.463 5.78114 1.07139e-10)
(478.411 6.41066 1.59095e-10)
(478.308 7.21078 1.19537e-10)
(478.256 7.60613 2.80155e-10)
(478.122 8.66468 2.68083e-10)
(478.07 8.73845 -5.42749e-12)
(477.904 10.1355 -1.43657e-10)
(477.852 9.81246 -8.74901e-11)
(477.657 11.6057 -2.02391e-10)
(477.599 10.8464 -1.47766e-10)
(477.385 13.0413 2.21851e-10)
(477.304 11.8843 1.83631e-10)
(477.101 14.3653 -8.22733e-11)
(476.947 13.0659 -1.36454e-10)
(476.831 15.3894 4.27265e-11)
(476.509 14.4429 7.34022e-11)
(477.361 0.423698 -3.07784e-09)
(477.35 1.16048 9.4621e-10)
(477.34 1.67971 -2.93374e-10)
(477.309 2.55246 2.58247e-11)
(477.286 3.05559 1.15023e-10)
(477.242 3.92457 -2.21782e-10)
(477.2 4.45964 -3.71786e-10)
(477.151 5.25751 -1.05707e-10)
(477.083 5.8891 1.20422e-10)
(477.034 6.53965 1.96559e-10)
(476.936 7.34517 1.26399e-10)
(476.888 7.76226 2.63616e-10)
(476.759 8.82666 2.81893e-10)
(476.714 8.92136 2.92326e-11)
(476.553 10.3266 -1.38121e-10)
(476.509 10.0212 -1.10737e-10)
(476.32 11.8282 -1.9659e-10)
(476.271 11.0787 -1.14241e-10)
(476.062 13.2984 2.29713e-10)
(475.992 12.1344 2.17337e-10)
(475.792 14.6685 -1.2952e-11)
(475.655 13.3142 -1.58912e-10)
(475.536 15.7521 -1.91168e-11)
(475.236 14.7005 4.58003e-11)
(475.913 0.431455 -3.01468e-09)
(475.903 1.1799 1.01397e-09)
(475.893 1.70889 -2.52479e-10)
(475.863 2.59641 6.58946e-11)
(475.842 3.10779 1.46359e-10)
(475.801 3.99346 -1.97139e-10)
(475.761 4.53512 -3.54661e-10)
(475.715 5.35155 -9.29468e-11)
(475.65 5.98826 1.27759e-10)
(475.606 6.65893 1.97617e-10)
(475.512 7.46872 1.20732e-10)
(475.47 7.90674 2.46579e-10)
(475.346 8.97575 2.57487e-10)
(475.307 9.09076 4.85768e-12)
(475.152 10.503 -1.77726e-10)
(475.115 10.2148 -1.58144e-10)
(474.932 12.0342 -2.49581e-10)
(474.891 11.2947 -1.0283e-10)
(474.689 13.5374 2.3152e-10)
(474.629 12.368 2.06969e-10)
(474.433 14.9499 -2.58704e-11)
(474.312 13.5451 -1.20227e-10)
(474.192 16.0932 1.91362e-11)
(473.914 14.9382 7.45134e-11)
(474.413 0.438506 -3.04422e-09)
(474.403 1.19762 9.90277e-10)
(474.394 1.73537 -2.91163e-10)
(474.366 2.63657 6.59624e-11)
(474.347 3.1552 1.34609e-10)
(474.307 4.05651 -2.24863e-10)
(474.271 4.60374 -3.43525e-10)
(474.228 5.43776 -9.92692e-11)
(474.167 6.07854 1.09439e-10)
(474.126 6.76846 2.24304e-10)
(474.037 7.58136 1.27893e-10)
(474 8.03952 2.41626e-10)
(473.881 9.11187 2.9764e-10)
(473.848 9.24652 2.29294e-11)
(473.699 10.6643 -1.72314e-10)
(473.67 10.393 -1.10795e-10)
(473.493 12.2233 -2.17499e-10)
(473.461 11.4939 -1.49806e-10)
(473.265 13.7579 2.33062e-10)
(473.216 12.5844 1.961e-10)
(473.025 15.2095 -6.60003e-11)
(472.919 13.7592 -1.09062e-10)
(472.797 16.4115 1.97625e-11)
(472.542 15.1549 5.1933e-11)
(472.862 0.444842 -3.10809e-09)
(472.852 1.21362 9.946e-10)
(472.844 1.75913 -2.54639e-10)
(472.817 2.6729 2.54715e-11)
(472.799 3.19775 1.41635e-10)
(472.762 4.11365 -1.78946e-10)
(472.729 4.66543 -3.83781e-10)
(472.689 5.51606 -9.26489e-11)
(472.631 6.15986 1.5605e-10)
(472.595 6.86815 1.8652e-10)
(472.51 7.68303 1.35077e-10)
(472.478 8.16058 2.93946e-10)
(472.365 9.23496 2.65759e-10)
(472.338 9.38863 2.88112e-11)
(472.195 10.8105 -1.19633e-10)
(472.173 10.5555 -1.41835e-10)
(472.002 12.3951 -2.11783e-10)
(471.98 11.6758 -1.0211e-10)
(471.79 13.9592 2.00633e-10)
(471.752 12.7826 2.02656e-10)
(471.566 15.4475 -1.2314e-11)
(471.475 13.9564 -1.38652e-10)
(471.352 16.7068 2.67211e-11)
(471.12 15.3511 9.93597e-11)
(471.259 0.450463 -3.08378e-09)
(471.249 1.2279 1.03652e-09)
(471.242 1.78016 -2.238e-10)
(471.216 2.70538 6.08794e-11)
(471.2 3.23542 1.03533e-10)
(471.165 4.16484 -2.21297e-10)
(471.135 4.72012 -3.5261e-10)
(471.098 5.58639 -6.57314e-11)
(471.044 6.23213 1.83717e-10)
(471.012 6.95794 2.2082e-10)
(470.932 7.77366 9.548e-11)
(470.905 8.26987 2.50201e-10)
(470.797 9.34502 2.93947e-10)
(470.776 9.51711 5.39781e-11)
(470.639 10.9416 -1.0003e-10)
(470.625 10.7025 -1.23837e-10)
(470.46 12.5496 -2.61168e-10)
(470.447 11.8402 -1.44962e-10)
(470.264 14.1408 2.15921e-10)
(470.236 12.9619 2.15559e-10)
(470.056 15.6637 8.11168e-12)
(469.98 14.1369 -1.27595e-10)
(469.856 16.9784 -2.76966e-11)
(469.647 15.5262 5.19356e-11)
(469.604 0.455375 -3.15666e-09)
(469.594 1.24047 9.66463e-10)
(469.588 1.79848 -3.09753e-10)
(469.563 2.73404 1.19377e-11)
(469.549 3.26824 1.04031e-10)
(469.517 4.21009 -2.4353e-10)
(469.489 4.76782 -4.00817e-10)
(469.455 5.64871 -1.34057e-10)
(469.405 6.2953 9.74261e-11)
(469.377 7.03773 1.74844e-10)
(469.302 7.85315 9.60904e-11)
(469.28 8.36731 2.31805e-10)
(469.177 9.44196 2.47313e-10)
(469.162 9.63194 -1.10914e-11)
(469.031 11.0575 -1.90779e-10)
(469.025 10.8339 -1.62508e-10)
(468.866 12.6867 -2.55313e-10)
(468.862 11.9869 -1.63773e-10)
(468.685 14.3027 1.75479e-10)
(468.669 13.1219 1.61549e-10)
(468.494 15.8571 -8.32326e-11)
(468.433 14.3001 -1.64468e-10)
(468.309 17.2257 -2.0591e-11)
(468.123 15.6798 4.02517e-11)
(467.897 0.45959 -3.10499e-09)
(467.887 1.25137 1.01002e-09)
(467.882 1.81414 -2.9837e-10)
(467.858 2.75892 7.67358e-11)
(467.847 3.29626 1.44716e-10)
(467.816 4.24946 -2.23872e-10)
(467.791 4.80856 -3.34979e-10)
(467.761 5.70304 -8.55104e-11)
(467.714 6.34936 1.25642e-10)
(467.69 7.10749 2.50984e-10)
(467.62 7.92143 1.51985e-10)
(467.602 8.45279 2.60024e-10)
(467.505 9.52567 3.24939e-10)
(467.497 9.73304 4.10142e-11)
(467.372 11.1583 -1.56705e-10)
(467.372 10.9498 -1.50244e-10)
(467.22 12.8066 -2.63522e-10)
(467.225 12.1163 -1.26162e-10)
(467.054 14.445 1.98594e-10)
(467.049 13.2624 1.62348e-10)
(466.88 16.0277 -3.38467e-11)
(466.834 14.4448 -1.40653e-10)
(466.711 17.4477 -2.04036e-11)
(466.548 15.8118 8.38369e-11)
(466.138 0.463121 -3.11188e-09)
(466.129 1.26061 1.02296e-09)
(466.124 1.82719 -2.93513e-10)
(466.102 2.78009 8.45536e-11)
(466.092 3.31956 1.52151e-10)
(466.063 4.28302 -2.18308e-10)
(466.041 4.84243 -3.29676e-10)
(466.014 5.74945 -7.83547e-11)
(465.971 6.39436 1.33386e-10)
(465.951 7.16724 1.90168e-10)
(465.885 7.97845 9.00634e-11)
(465.873 8.52625 2.75104e-10)
(465.781 9.59602 2.70105e-10)
(465.779 9.82027 -1.25066e-11)
(465.66 11.2437 -1.43658e-10)
(465.668 11.0502 -1.37915e-10)
(465.522 12.9093 -2.50699e-10)
(465.536 12.2284 -1.13423e-10)
(465.371 14.5678 2.1493e-10)
(465.377 13.3836 1.75675e-10)
(465.214 16.1757 -2.01152e-11)
(465.182 14.5696 -1.29179e-10)
(465.061 17.6428 9.21178e-13)
(464.921 15.9224 1.03203e-10)
(464.327 0.465977 -3.14456e-09)
(464.318 1.26823 1.07499e-09)
(464.314 1.83766 -2.67929e-10)
(464.293 2.7976 2.62114e-11)
(464.285 3.33821 1.52662e-10)
(464.258 4.31085 -1.61952e-10)
(464.239 4.86951 -3.588e-10)
(464.214 5.78804 -1.27944e-10)
(464.176 6.43038 1.41325e-10)
(464.16 7.21704 2.54283e-10)
(464.098 8.02425 1.40118e-10)
(464.091 8.58767 2.42248e-10)
(464.005 9.65292 2.92659e-10)
(464.009 9.89348 6.1246e-11)
(463.896 11.3135 -1.58744e-10)
(463.911 11.1349 -1.65006e-10)
(463.772 12.9945 -2.23053e-10)
(463.795 12.3232 -1.00487e-10)
(463.636 14.6714 2.16979e-10)
(463.653 13.4859 1.63794e-10)
(463.496 16.3021 -4.99383e-11)
(463.477 14.6737 -1.11001e-10)
(463.36 17.8094 8.49876e-12)
(463.243 16.0112 3.47511e-11)
(462.463 0.468166 -3.18628e-09)
(462.455 1.27424 1.00968e-09)
(462.452 1.84558 -3.0326e-10)
(462.432 2.81148 1.14867e-11)
(462.425 3.35225 9.12588e-11)
(462.401 4.33303 -2.72469e-10)
(462.384 4.88988 -3.67595e-10)
(462.362 5.8189 -3.46917e-11)
(462.327 6.45752 1.9176e-10)
(462.315 7.257 2.6274e-10)
(462.258 8.05893 1.69422e-10)
(462.256 8.63712 2.9229e-10)
(462.176 9.69638 3.01233e-10)
(462.186 9.95263 2.70411e-11)
(462.079 11.3676 -1.66871e-10)
(462.102 11.2036 -1.52364e-10)
(461.969 13.0619 -2.53453e-10)
(462.001 12.4005 -1.66114e-10)
(461.849 14.7554 1.67177e-10)
(461.877 13.5693 1.45192e-10)
(461.725 16.4069 -4.34822e-11)
(461.72 14.7579 -7.96255e-11)
(461.606 17.9477 6.79903e-11)
(461.512 16.0776 1.11223e-10)
(460.547 0.469688 -3.22846e-09)
(460.539 1.27864 1.02284e-09)
(460.537 1.85097 -2.70722e-10)
(460.518 2.82176 4.38942e-12)
(460.513 3.36172 1.12136e-10)
(460.491 4.34957 -2.22373e-10)
(460.477 4.9036 -3.62476e-10)
(460.458 5.84209 -7.04509e-11)
(460.427 6.47586 1.07921e-10)
(460.418 7.28722 2.07033e-10)
(460.366 8.08258 1.48893e-10)
(460.369 8.67471 2.30837e-10)
(460.293 9.72647 2.66275e-10)
(460.31 9.99777 1.9889e-11)
(460.209 11.406 -1.46053e-10)
(460.24 11.2561 -1.05844e-10)
(460.113 13.1112 -2.47167e-10)
(460.155 12.4598 -1.33315e-10)
(460.009 14.8194 2.35684e-10)
(460.048 13.6335 1.58707e-10)
(459.902 16.4901 -7.44299e-11)
(459.911 14.8224 -1.37835e-10)
(459.801 18.0584 3.08923e-11)
(459.727 16.1222 9.88393e-11)
(458.579 0.470541 -3.1728e-09)
(458.57 1.28143 1.05214e-09)
(458.569 1.85381 -2.93046e-10)
(458.551 2.82841 1.9681e-11)
(458.548 3.36661 9.87041e-11)
(458.528 4.36048 -2.0153e-10)
(458.516 4.91067 -3.85483e-10)