/*--------------------------------*- C++ -*----------------------------------*\
  =========                 |
  \\      /  F ield         | OpenFOAM: The Open Source CFD Toolbox
   \\    /   O peration     | Website:  https://openfoam.org
    \\  /    A nd           | Version:  10
     \\/     M anipulation  |
\*---------------------------------------------------------------------------*/
FoamFile
{
    format      ascii;
    class       volScalarField;
    location    "0.19";
    object      Ma;
}
// * * * * * * * * * * * * * * * * * * * * * * * * * * * * * * * * * * * * * //

dimensions      [0 0 0 0 0 0 0];

internalField   nonuniform List<scalar> 
4176
(
1.84509
1.84501
1.84481
1.84458
1.84415
1.84378
1.84313
1.84262
1.84174
1.84111
1.84001
1.83925
1.83794
1.83703
1.83557
1.83443
1.83298
1.83143
1.83011
1.82799
1.82705
1.82411
1.82393
1.82014
1.84497
1.84489
1.84469
1.84445
1.84402
1.84363
1.84298
1.84245
1.84156
1.8409
1.83978
1.83899
1.83766
1.83672
1.83523
1.83406
1.83257
1.83099
1.82964
1.82748
1.82654
1.82347
1.82325
1.81908
1.84462
1.84454
1.84435
1.8441
1.8437
1.84331
1.84268
1.84215
1.8413
1.84064
1.83956
1.83878
1.83748
1.83656
1.83509
1.83397
1.83248
1.83096
1.82964
1.82753
1.82664
1.82363
1.82341
1.81911
1.84397
1.84389
1.8437
1.84346
1.84305
1.84266
1.84203
1.84151
1.84065
1.84
1.83891
1.83814
1.83683
1.83593
1.83444
1.83333
1.83183
1.83027
1.82902
1.82685
1.82599
1.82303
1.82284
1.81873
1.84303
1.84295
1.84276
1.84252
1.84212
1.84173
1.84111
1.84059
1.83975
1.83911
1.83803
1.83727
1.83597
1.83509
1.83361
1.83252
1.831
1.82948
1.82825
1.82607
1.82522
1.8223
1.8221
1.81812
1.84178
1.8417
1.84151
1.84128
1.84088
1.84049
1.83989
1.83937
1.83854
1.83789
1.83683
1.83607
1.83479
1.83391
1.83244
1.83137
1.82983
1.82838
1.82708
1.82496
1.82409
1.8212
1.82097
1.81699
1.84023
1.84016
1.83997
1.83973
1.83934
1.83896
1.83836
1.83785
1.83703
1.83639
1.83535
1.83459
1.83333
1.83246
1.831
1.82996
1.82841
1.82703
1.82567
1.82363
1.82273
1.81988
1.81963
1.81567
1.83838
1.83831
1.83813
1.83789
1.83751
1.83713
1.83654
1.83603
1.83522
1.83459
1.83356
1.83282
1.83157
1.83071
1.82927
1.82824
1.8267
1.82537
1.82398
1.82201
1.82108
1.81828
1.81801
1.81411
1.83624
1.83616
1.83598
1.83575
1.83537
1.835
1.83442
1.83391
1.83312
1.8325
1.83148
1.83075
1.82952
1.82867
1.82725
1.82624
1.82471
1.82342
1.82201
1.82012
1.81916
1.81642
1.81613
1.81229
1.8338
1.83372
1.83354
1.83332
1.83294
1.83258
1.832
1.83151
1.83072
1.83011
1.82911
1.82839
1.82718
1.82635
1.82494
1.82396
1.82244
1.82119
1.81977
1.81795
1.81697
1.81429
1.81398
1.81021
1.83106
1.83098
1.83081
1.83059
1.83022
1.82986
1.82929
1.8288
1.82803
1.82743
1.82645
1.82574
1.82455
1.82374
1.82235
1.82139
1.81988
1.81868
1.81725
1.81549
1.81449
1.81189
1.81157
1.80786
1.82802
1.82795
1.82778
1.82756
1.8272
1.82684
1.82629
1.82581
1.82505
1.82446
1.8235
1.8228
1.82163
1.82084
1.81947
1.81854
1.81705
1.81588
1.81445
1.81276
1.81174
1.80922
1.80888
1.80525
1.8247
1.82463
1.82446
1.82424
1.82389
1.82354
1.82299
1.82252
1.82178
1.8212
1.82025
1.81958
1.81842
1.81765
1.81631
1.8154
1.81393
1.8128
1.81138
1.80975
1.80873
1.80627
1.80594
1.80238
1.82108
1.82101
1.82084
1.82063
1.82028
1.81994
1.81941
1.81895
1.81822
1.81765
1.81673
1.81607
1.81493
1.81418
1.81286
1.81198
1.81054
1.80945
1.80803
1.80647
1.80543
1.80306
1.80272
1.79924
1.81716
1.81709
1.81693
1.81673
1.81638
1.81605
1.81553
1.81508
1.81437
1.81382
1.81291
1.81227
1.81116
1.81043
1.80913
1.80828
1.80686
1.80581
1.80441
1.80291
1.80187
1.79958
1.79924
1.79584
1.81296
1.81289
1.81273
1.81253
1.8122
1.81188
1.81136
1.81093
1.81024
1.8097
1.80881
1.80819
1.8071
1.80639
1.80513
1.8043
1.80291
1.8019
1.80051
1.79908
1.79804
1.79582
1.79548
1.79217
1.80847
1.8084
1.80825
1.80805
1.80772
1.80741
1.80691
1.80649
1.80581
1.8053
1.80443
1.80383
1.80276
1.80208
1.80084
1.80005
1.79869
1.79771
1.79635
1.79498
1.79394
1.79181
1.79146
1.78824
1.80369
1.80362
1.80347
1.80328
1.80296
1.80266
1.80217
1.80177
1.80111
1.80061
1.79976
1.79918
1.79815
1.79749
1.79628
1.79552
1.79419
1.79325
1.79191
1.79061
1.78957
1.78753
1.78718
1.78405
1.79862
1.79855
1.7984
1.79822
1.79791
1.79762
1.79715
1.79676
1.79612
1.79564
1.79482
1.79426
1.79325
1.79262
1.79145
1.79072
1.78941
1.78852
1.78721
1.78597
1.78494
1.78298
1.78263
1.77959
1.79326
1.7932
1.79306
1.79288
1.79258
1.7923
1.79184
1.79147
1.79085
1.79039
1.78959
1.78906
1.78808
1.78748
1.78634
1.78564
1.78437
1.78352
1.78224
1.78106
1.78004
1.77817
1.77781
1.77487
1.78762
1.78756
1.78742
1.78725
1.78696
1.78669
1.78625
1.78589
1.78529
1.78486
1.78408
1.78358
1.78263
1.78206
1.78095
1.78029
1.77906
1.77826
1.77701
1.77589
1.77488
1.77309
1.77274
1.76989
1.7817
1.78164
1.78151
1.78134
1.78107
1.78081
1.78039
1.78004
1.77946
1.77905
1.7783
1.77783
1.77691
1.77637
1.7753
1.77468
1.77348
1.77272
1.77151
1.77045
1.76946
1.76775
1.76741
1.76466
1.7755
1.77544
1.77531
1.77516
1.77489
1.77465
1.77424
1.77392
1.77336
1.77297
1.77225
1.7718
1.77092
1.77041
1.76937
1.76879
1.76764
1.76692
1.76574
1.76475
1.76378
1.76216
1.76181
1.75917
1.76902
1.76896
1.76884
1.76869
1.76844
1.76821
1.76782
1.76751
1.76698
1.76661
1.76592
1.7655
1.76465
1.76418
1.76318
1.76264
1.76153
1.76085
1.75972
1.75878
1.75784
1.7563
1.75597
1.75343
1.76226
1.76221
1.76209
1.76195
1.76171
1.7615
1.76112
1.76084
1.76033
1.75999
1.75933
1.75893
1.75812
1.75768
1.75672
1.75622
1.75515
1.75452
1.75343
1.75255
1.75163
1.75019
1.74986
1.74744
1.75524
1.75519
1.75508
1.75494
1.75471
1.75451
1.75416
1.75389
1.75341
1.75309
1.75246
1.7521
1.75132
1.75092
1.75
1.74953
1.74851
1.74793
1.74688
1.74606
1.74517
1.74382
1.74351
1.74119
1.74795
1.74789
1.74779
1.74767
1.74745
1.74726
1.74693
1.74668
1.74622
1.74593
1.74533
1.745
1.74426
1.74389
1.74301
1.74259
1.74161
1.74108
1.74007
1.73931
1.73846
1.73719
1.73689
1.73468
1.74039
1.74034
1.74024
1.74012
1.73992
1.73975
1.73943
1.73921
1.73877
1.73851
1.73794
1.73764
1.73693
1.7366
1.73576
1.73539
1.73445
1.73396
1.73301
1.73231
1.73149
1.73031
1.73003
1.72792
1.73257
1.73252
1.73243
1.73232
1.73213
1.73197
1.73167
1.73147
1.73106
1.73082
1.73028
1.73002
1.72935
1.72906
1.72826
1.72792
1.72703
1.7266
1.72569
1.72504
1.72427
1.72317
1.72291
1.7209
1.72449
1.72445
1.72436
1.72426
1.72408
1.72394
1.72366
1.72348
1.72309
1.72288
1.72237
1.72214
1.72151
1.72125
1.7205
1.72021
1.71936
1.71898
1.71811
1.71753
1.7168
1.71579
1.71554
1.71364
1.71616
1.71612
1.71604
1.71595
1.71578
1.71565
1.71539
1.71523
1.71487
1.71468
1.7142
1.71401
1.71341
1.7132
1.71248
1.71224
1.71143
1.7111
1.71029
1.70976
1.70907
1.70815
1.70792
1.70614
1.70758
1.70754
1.70747
1.70738
1.70723
1.70711
1.70687
1.70673
1.70639
1.70623
1.70579
1.70562
1.70506
1.70489
1.70421
1.70401
1.70325
1.70298
1.70221
1.70174
1.7011
1.70026
1.70005
1.69838
1.69876
1.69872
1.69865
1.69858
1.69843
1.69833
1.69811
1.69799
1.69767
1.69754
1.69712
1.69699
1.69646
1.69633
1.69569
1.69554
1.69483
1.6946
1.69388
1.69348
1.69288
1.69212
1.69193
1.69037
1.68969
1.68965
1.68959
1.68952
1.68939
1.68931
1.6891
1.689
1.68871
1.6886
1.68822
1.68812
1.68762
1.68752
1.68693
1.68682
1.68615
1.68598
1.68531
1.68497
1.68442
1.68373
1.68356
1.68213
1.68039
1.68035
1.68029
1.68023
1.68012
1.68004
1.67985
1.67977
1.67951
1.67943
1.67907
1.679
1.67854
1.67848
1.67792
1.67786
1.67723
1.67711
1.67649
1.67621
1.67571
1.6751
1.67496
1.67363
1.67085
1.67082
1.67076
1.67071
1.6706
1.67054
1.67037
1.67031
1.67007
1.67001
1.66968
1.66964
1.66922
1.6692
1.66868
1.66866
1.66807
1.668
1.66743
1.66721
1.66675
1.66622
1.66611
1.6649
1.66108
1.66105
1.661
1.66096
1.66086
1.66081
1.66066
1.66062
1.6604
1.66037
1.66006
1.66006
1.65967
1.65968
1.6592
1.65922
1.65868
1.65866
1.65813
1.65797
1.65756
1.6571
1.65702
1.65592
1.65109
1.65106
1.65102
1.65098
1.65089
1.65086
1.65072
1.65069
1.6505
1.65049
1.65022
1.65024
1.64988
1.64993
1.64949
1.64956
1.64905
1.64908
1.64859
1.64849
1.64812
1.64773
1.6477
1.64671
1.64088
1.64084
1.64081
1.64078
1.6407
1.64068
1.64055
1.64055
1.64037
1.64039
1.64014
1.64019
1.63986
1.63995
1.63955
1.63966
1.63919
1.63928
1.63883
1.63879
1.63846
1.63814
1.63814
1.63726
1.63044
1.63041
1.63038
1.63035
1.63029
1.63028
1.63017
1.63018
1.63002
1.63006
1.62984
1.62992
1.62963
1.62975
1.62938
1.62953
1.62911
1.62924
1.62883
1.62885
1.62857
1.62832
1.62835
1.62758
1.61979
1.61976
1.61973
1.61972
1.61966
1.61966
1.61957
1.6196
1.61946
1.61952
1.61932
1.61943
1.61917
1.61932
1.61899
1.61918
1.6188
1.61898
1.61861
1.6187
1.61845
1.61827
1.61834
1.61766
1.60893
1.6089
1.60888
1.60887
1.60882
1.60883
1.60876
1.6088
1.60868
1.60876
1.60859
1.60873
1.60849
1.60868
1.60838
1.60862
1.60827
1.6085
1.60817
1.60832
1.60811
1.608
1.6081
1.60751
1.59786
1.59783
1.59781
1.59781
1.59777
1.59779
1.59773
1.59779
1.59769
1.5978
1.59765
1.59781
1.59761
1.59783
1.59756
1.59784
1.59752
1.59781
1.59751
1.59772
1.59754
1.59752
1.59765
1.59715
1.58658
1.58655
1.58654
1.58654
1.58651
1.58655
1.5865
1.58657
1.5865
1.58662
1.5865
1.58669
1.58651
1.58677
1.58653
1.58684
1.58656
1.5869
1.58663
1.5869
1.58676
1.58681
1.58696
1.58657
1.5751
1.57508
1.57507
1.57507
1.57506
1.5751
1.57507
1.57516
1.5751
1.57525
1.57515
1.57536
1.57521
1.5755
1.57529
1.57565
1.5754
1.57578
1.57554
1.57588
1.57576
1.57589
1.57606
1.57577
1.56342
1.5634
1.56339
1.56341
1.5634
1.56345
1.56344
1.56354
1.5635
1.56367
1.5636
1.56383
1.56371
1.56403
1.56385
1.56425
1.56403
1.56446
1.56425
1.56465
1.56455
1.56476
1.56495
1.56476
1.55155
1.55153
1.55153
1.55155
1.55155
1.55161
1.55161
1.55173
1.55171
1.5519
1.55185
1.55211
1.55202
1.55237
1.55222
1.55265
1.55246
1.55294
1.55276
1.55322
1.55314
1.55343
1.55363
1.55355
1.53949
1.53947
1.53947
1.5395
1.53951
1.53958
1.5396
1.53973
1.53973
1.53993
1.53991
1.5402
1.54013
1.54051
1.54039
1.54086
1.5407
1.54123
1.54108
1.5416
1.54153
1.54191
1.54211
1.54213
1.52725
1.52723
1.52724
1.52727
1.52729
1.52737
1.5274
1.52754
1.52756
1.52779
1.52778
1.5281
1.52805
1.52846
1.52837
1.52888
1.52875
1.52933
1.52919
1.52978
1.52973
1.5302
1.53038
1.53051
1.51483
1.51481
1.51482
1.51485
1.51488
1.51498
1.51502
1.51518
1.51522
1.51546
1.51547
1.51581
1.51579
1.51623
1.51616
1.51672
1.51661
1.51724
1.51712
1.51778
1.51773
1.5183
1.51847
1.5187
1.50223
1.50221
1.50223
1.50227
1.50231
1.50241
1.50246
1.50264
1.50269
1.50295
1.50299
1.50335
1.50335
1.50383
1.50378
1.50437
1.50428
1.50497
1.50486
1.50559
1.50555
1.5062
1.50637
1.5067
1.48947
1.48945
1.48947
1.48952
1.48956
1.48967
1.48974
1.48993
1.49
1.49028
1.49033
1.49072
1.49074
1.49125
1.49122
1.49186
1.49178
1.49252
1.49243
1.49323
1.49317
1.49392
1.49409
1.49451
1.47655
1.47653
1.47655
1.4766
1.47666
1.47678
1.47686
1.47706
1.47714
1.47744
1.47751
1.47792
1.47796
1.4785
1.47849
1.47917
1.4791
1.4799
1.47981
1.48069
1.48063
1.48145
1.48164
1.48214
1.46348
1.46346
1.46348
1.46354
1.4636
1.46373
1.46382
1.46403
1.46413
1.46444
1.46453
1.46497
1.46502
1.4656
1.46559
1.46632
1.46625
1.46713
1.46701
1.46797
1.46792
1.46881
1.469
1.46958
1.45026
1.45024
1.45027
1.45033
1.4504
1.45053
1.45063
1.45085
1.45097
1.4513
1.4514
1.45186
1.45192
1.45253
1.45253
1.45332
1.45323
1.45418
1.45407
1.45508
1.45505
1.45599
1.4562
1.45685
1.4369
1.43689
1.43691
1.43698
1.43705
1.43719
1.4373
1.43753
1.43766
1.43801
1.43811
1.43861
1.43866
1.43933
1.43932
1.44016
1.44007
1.44106
1.44097
1.44203
1.44201
1.443
1.44322
1.44395
1.42341
1.4234
1.42343
1.42349
1.42358
1.42372
1.42384
1.42408
1.42421
1.42458
1.42469
1.42522
1.42527
1.42598
1.42596
1.42684
1.42677
1.42779
1.42772
1.42881
1.42882
1.42986
1.43009
1.43089
1.4098
1.40978
1.40982
1.40988
1.40997
1.41012
1.41025
1.4105
1.41063
1.41103
1.41113
1.41169
1.41174
1.41248
1.41247
1.41337
1.41332
1.41437
1.41432
1.41544
1.41547
1.41656
1.41679
1.41766
1.39607
1.39605
1.3961
1.39616
1.39626
1.3964
1.39654
1.3968
1.39693
1.39735
1.39745
1.39803
1.39809
1.39884
1.39885
1.39977
1.39974
1.40081
1.40078
1.40193
1.40197
1.4031
1.40335
1.40428
1.38223
1.38221
1.38226
1.38232
1.38243
1.38257
1.38272
1.38298
1.38312
1.38354
1.38366
1.38424
1.38432
1.38508
1.38511
1.38604
1.38603
1.38711
1.3871
1.38828
1.38834
1.3895
1.38976
1.39075
1.36829
1.36827
1.36832
1.36838
1.36848
1.36863
1.36879
1.36904
1.36921
1.36961
1.36975
1.37034
1.37043
1.37119
1.37124
1.37218
1.37219
1.37329
1.3733
1.37449
1.37457
1.37577
1.37603
1.37707
1.35424
1.35423
1.35427
1.35434
1.35444
1.35459
1.35476
1.355
1.35519
1.35558
1.35574
1.35632
1.35643
1.3572
1.35726
1.3582
1.35824
1.35934
1.35937
1.36058
1.36067
1.3619
1.36217
1.36326
1.34011
1.34009
1.34013
1.3402
1.3403
1.34045
1.34062
1.34086
1.34107
1.34144
1.34164
1.34219
1.34233
1.34309
1.34317
1.34412
1.34417
1.34528
1.34532
1.34655
1.34665
1.34791
1.34819
1.34932
1.32587
1.32586
1.3259
1.32597
1.32607
1.32622
1.32639
1.32663
1.32685
1.32721
1.32743
1.32797
1.32813
1.32888
1.32898
1.32993
1.32999
1.33112
1.33117
1.33242
1.33252
1.33381
1.33409
1.33526
1.31155
1.31153
1.31157
1.31164
1.31175
1.3119
1.31207
1.31231
1.31254
1.31289
1.31312
1.31365
1.31383
1.31458
1.3147
1.31564
1.31572
1.31685
1.31691
1.31817
1.31829
1.3196
1.31988
1.32109
1.29714
1.29712
1.29716
1.29723
1.29734
1.29749
1.29766
1.2979
1.29813
1.29848
1.29872
1.29925
1.29945
1.30019
1.30032
1.30127
1.30135
1.30249
1.30257
1.30384
1.30396
1.30529
1.30557
1.30682
1.28263
1.28261
1.28266
1.28272
1.28283
1.28298
1.28316
1.2834
1.28364
1.28398
1.28424
1.28476
1.28497
1.28571
1.28586
1.28681
1.28691
1.28805
1.28814
1.28941
1.28955
1.29089
1.29118
1.29245
1.26804
1.26802
1.26806
1.26813
1.26824
1.26839
1.26858
1.26882
1.26906
1.26941
1.26968
1.27019
1.27042
1.27116
1.27131
1.27228
1.27238
1.27353
1.27362
1.27491
1.27506
1.27641
1.2767
1.278
1.25336
1.25333
1.25338
1.25345
1.25357
1.25372
1.25391
1.25415
1.25441
1.25475
1.25504
1.25555
1.2558
1.25653
1.2567
1.25767
1.25778
1.25893
1.25904
1.26034
1.26049
1.26185
1.26214
1.26346
1.23859
1.23857
1.23862
1.23869
1.23881
1.23897
1.23917
1.23942
1.23968
1.24003
1.24034
1.24084
1.24111
1.24183
1.24203
1.243
1.24312
1.24428
1.24439
1.24569
1.24585
1.24722
1.24751
1.24885
1.22376
1.22373
1.22379
1.22386
1.22399
1.22415
1.22436
1.22461
1.22489
1.22525
1.22557
1.22606
1.22637
1.22708
1.2273
1.22825
1.22839
1.22956
1.22968
1.23098
1.23115
1.23253
1.23281
1.23416
1.20887
1.20885
1.2089
1.20898
1.20911
1.20929
1.2095
1.20976
1.21005
1.21041
1.21075
1.21124
1.21157
1.21226
1.21252
1.21345
1.21361
1.21478
1.21491
1.2162
1.21638
1.21776
1.21804
1.2194
1.19396
1.19394
1.19399
1.19408
1.19421
1.19439
1.1946
1.19487
1.19516
1.19553
1.19588
1.19636
1.19672
1.19739
1.19768
1.19859
1.19879
1.19993
1.20007
1.20136
1.20154
1.20292
1.2032
1.20457
1.17907
1.17905
1.1791
1.17918
1.17931
1.17948
1.1797
1.17997
1.18025
1.18062
1.18097
1.18145
1.18182
1.18247
1.1828
1.18367
1.1839
1.18501
1.18517
1.18646
1.18663
1.18801
1.18828
1.18965
1.16421
1.16419
1.16423
1.16431
1.16443
1.1646
1.1648
1.16506
1.16534
1.1657
1.16604
1.16651
1.16688
1.16751
1.16785
1.16869
1.16895
1.17003
1.1702
1.17148
1.17165
1.17301
1.17328
1.17465
1.14942
1.1494
1.14943
1.1495
1.14961
1.14976
1.14995
1.15019
1.15045
1.15078
1.1511
1.15154
1.1519
1.1525
1.15284
1.15364
1.15392
1.15496
1.15515
1.1564
1.15657
1.15793
1.15819
1.15955
1.13469
1.13466
1.13469
1.13474
1.13483
1.13497
1.13512
1.13534
1.13557
1.13586
1.13616
1.13656
1.1369
1.13745
1.13778
1.13854
1.13882
1.1398
1.14001
1.14123
1.1414
1.14276
1.143
1.14436
1.11999
1.11996
1.11998
1.12001
1.12009
1.12019
1.12032
1.1205
1.1207
1.12096
1.12122
1.12157
1.12187
1.12238
1.12267
1.12338
1.12364
1.12457
1.12477
1.12595
1.12611
1.12747
1.1277
1.12906
1.10525
1.10521
1.10522
1.10524
1.1053
1.10538
1.10549
1.10564
1.10581
1.10603
1.10625
1.10656
1.10682
1.10728
1.10752
1.10819
1.10839
1.10929
1.10943
1.11059
1.1107
1.11205
1.11226
1.11364
1.09036
1.09031
1.09033
1.09033
1.09039
1.09045
1.09056
1.09067
1.09083
1.09101
1.09122
1.09149
1.09172
1.09214
1.09233
1.09298
1.09308
1.094
1.09402
1.09519
1.09521
1.09653
1.09669
1.09805
1.07518
1.07513
1.07514
1.07515
1.07521
1.07527
1.07538
1.0755
1.07566
1.07583
1.07604
1.07629
1.07652
1.07691
1.07707
1.07772
1.07773
1.07868
1.0786
1.07977
1.0797
1.08099
1.08108
1.08234
1.05957
1.05953
1.05954
1.05956
1.05963
1.05972
1.05984
1.05999
1.06016
1.06037
1.06059
1.06087
1.06112
1.0615
1.06171
1.06231
1.06237
1.06327
1.06318
1.06433
1.06421
1.06549
1.06551
1.0667
1.04341
1.04337
1.04339
1.04343
1.04352
1.04364
1.0438
1.04399
1.04421
1.04447
1.04475
1.04508
1.04539
1.04581
1.0461
1.04669
1.04686
1.04773
1.04769
1.04886
1.04871
1.05004
1.05
1.05121
1.0266
1.02656
1.0266
1.02667
1.02679
1.02695
1.02715
1.0274
1.02769
1.02802
1.02837
1.02879
1.02918
1.02969
1.03009
1.03075
1.03103
1.03196
1.03201
1.03326
1.03312
1.03455
1.03447
1.03578
1.00912
1.00907
1.00914
1.00922
1.00938
1.00957
1.00983
1.01013
1.0105
1.01089
1.01136
1.01185
1.01238
1.01298
1.01353
1.01431
1.01472
1.0158
1.01596
1.01738
1.0173
1.0189
1.01882
1.0203
0.990976
0.99093
0.991004
0.991102
0.991286
0.991518
0.991823
0.992175
0.992607
0.993069
0.993622
0.994204
0.994849
0.99557
0.996262
0.99716
0.997775
0.999008
0.999352
1.00097
1.00105
1.0029
1.00288
1.00464
0.972235
0.972195
0.972267
0.972388
0.972581
0.972847
0.973173
0.973574
0.974037
0.974572
0.975168
0.975844
0.976561
0.977388
0.978204
0.979201
0.980049
0.981335
0.982014
0.983737
0.984113
0.986246
0.986395
0.988587
0.953003
0.952967
0.953037
0.953167
0.953367
0.953647
0.953988
0.95441
0.954897
0.955463
0.956095
0.956814
0.957583
0.95847
0.959365
0.960437
0.96143
0.962749
0.963745
0.965449
0.966247
0.968529
0.968981
0.971738
0.933401
0.933366
0.933433
0.933564
0.933765
0.934045
0.934389
0.934815
0.935309
0.93588
0.936524
0.937252
0.938041
0.938941
0.939869
0.940964
0.942014
0.943354
0.944479
0.946157
0.947256
0.949495
0.950276
0.953479
0.913558
0.913521
0.913583
0.913709
0.913904
0.914177
0.914513
0.914928
0.915414
0.915971
0.916608
0.917319
0.9181
0.918981
0.919903
0.920974
0.922022
0.923336
0.924461
0.926109
0.927219
0.929411
0.930239
0.933438
0.893595
0.893553
0.89361
0.893727
0.893912
0.89417
0.894493
0.894887
0.895356
0.895886
0.896501
0.897178
0.897934
0.898772
0.899665
0.900682
0.901698
0.902947
0.904016
0.905608
0.906605
0.908751
0.90945
0.912386
0.873615
0.873568
0.873619
0.873725
0.873897
0.874137
0.874442
0.874809
0.875254
0.875749
0.876336
0.876967
0.877689
0.87847
0.879321
0.880271
0.881238
0.8824
0.883415
0.884904
0.885825
0.887845
0.888484
0.891202
0.853712
0.853658
0.853704
0.853795
0.853955
0.854172
0.854458
0.854794
0.855214
0.855666
0.856222
0.856799
0.857485
0.858201
0.859008
0.85988
0.860794
0.861862
0.862816
0.864197
0.865047
0.866919
0.867517
0.870028
0.833958
0.833897
0.833941
0.834012
0.834165
0.834353
0.834624
0.83492
0.835321
0.83572
0.836253
0.836762
0.837422
0.838056
0.838827
0.839612
0.840474
0.841441
0.842337
0.843608
0.844394
0.846109
0.846674
0.848977
0.814413
0.814347
0.81439
0.81444
0.814587
0.814742
0.815003
0.815253
0.815642
0.815977
0.816499
0.816926
0.817573
0.818108
0.818863
0.819535
0.820367
0.821227
0.822059
0.823223
0.823954
0.825509
0.826045
0.828139
0.79513
0.79506
0.795095
0.795134
0.795263
0.795401
0.795635
0.795858
0.796214
0.796509
0.796995
0.797365
0.797976
0.798435
0.799155
0.79973
0.800524
0.801274
0.802065
0.803102
0.803788
0.805181
0.805691
0.807581
0.776146
0.776075
0.776098
0.776134
0.776236
0.776368
0.776563
0.776775
0.777079
0.777359
0.777781
0.778128
0.778668
0.779089
0.779739
0.780254
0.780986
0.78164
0.782392
0.783291
0.783943
0.785176
0.785665
0.787352
0.757494
0.757421
0.757434
0.757464
0.757546
0.757665
0.75783
0.758023
0.758286
0.758542
0.758911
0.759229
0.759704
0.760089
0.760665
0.761129
0.761792
0.762362
0.763075
0.763823
0.764458
0.765535
0.766003
0.767493
0.739198
0.739125
0.739129
0.739152
0.739217
0.73932
0.73946
0.73963
0.739859
0.740085
0.74041
0.740692
0.741112
0.741453
0.741968
0.742373
0.742975
0.743465
0.744125
0.74475
0.745366
0.746285
0.746734
0.748032
0.72128
0.721205
0.721203
0.721217
0.721267
0.721354
0.721472
0.721618
0.721816
0.722011
0.722297
0.72254
0.722913
0.723206
0.723666
0.724012
0.724556
0.724967
0.725577
0.726089
0.72669
0.727445
0.727881
0.728991
0.703753
0.703679
0.703669
0.703676
0.703713
0.703783
0.703881
0.704003
0.704174
0.704337
0.704587
0.704791
0.70512
0.705366
0.705776
0.706064
0.706553
0.706891
0.707445
0.707859
0.708432
0.709035
0.709461
0.71039
0.686632
0.686557
0.686541
0.686542
0.686562
0.686623
0.686696
0.686799
0.686941
0.687076
0.687291
0.687458
0.687746
0.687946
0.688309
0.68854
0.688978
0.689245
0.689749
0.690073
0.690608
0.691069
0.691486
0.692244
0.669923
0.669848
0.669828
0.669818
0.669834
0.669871
0.669936
0.670009
0.670132
0.670234
0.67042
0.67055
0.670799
0.670955
0.671273
0.67145
0.671839
0.672042
0.672494
0.672735
0.673227
0.673559
0.673968
0.674565
0.653634
0.65356
0.653533
0.653523
0.653517
0.653554
0.653587
0.653653
0.653743
0.653824
0.653976
0.654073
0.654286
0.654399
0.654675
0.654801
0.655144
0.655282
0.655687
0.65585
0.656296
0.656519
0.656915
0.65736
0.637768
0.637695
0.637667
0.637641
0.637641
0.637646
0.637683
0.637712
0.637793
0.63784
0.637968
0.638031
0.63821
0.638283
0.63852
0.638597
0.638896
0.638974
0.639334
0.639421
0.639824
0.63995
0.640334
0.640628
0.62233
0.622256
0.622224
0.622197
0.622179
0.622183
0.622192
0.622216
0.622265
0.622295
0.622393
0.622427
0.622573
0.622608
0.622808
0.622838
0.623096
0.623118
0.623435
0.623454
0.623815
0.623852
0.624216
0.624371
0.607316
0.607245
0.60721
0.607174
0.607153
0.607138
0.607144
0.60714
0.607179
0.607179
0.607256
0.607259
0.607375
0.607375
0.607539
0.607526
0.607746
0.607715
0.607992
0.607944
0.60827
0.608224
0.60856
0.608588
0.59273
0.592658
0.592623
0.592578
0.592556
0.592523
0.592521
0.592498
0.592519
0.592499
0.592552
0.592528
0.592616
0.592581
0.592713
0.592659
0.592842
0.592761
0.592999
0.59289
0.593178
0.593055
0.593364
0.593278
0.578566
0.578498
0.578455
0.578414
0.578372
0.578345
0.578317
0.578289
0.578288
0.578251
0.578279
0.578231
0.578291
0.578226
0.578326
0.578234
0.578382
0.578254
0.578458
0.578288
0.578544
0.578345
0.578625
0.578436
0.564824
0.564753
0.564719
0.564656
0.564633
0.564567
0.564557
0.564491
0.564492
0.564424
0.564439
0.564363
0.564401
0.564305
0.564377
0.564249
0.564365
0.564193
0.564361
0.564139
0.564361
0.564092
0.564349
0.564063
0.551495
0.551431
0.551384
0.551338
0.551279
0.55124
0.551185
0.551138
0.551099
0.551032
0.551017
0.550925
0.550937
0.550815
0.550859
0.550698
0.550784
0.550571
0.550711
0.550435
0.550631
0.550295
0.550531
0.550155
0.538581
0.538512
0.538478
0.538404
0.538375
0.538287
0.538265
0.538167
0.538148
0.538041
0.538023
0.537903
0.537897
0.537749
0.537769
0.537577
0.537636
0.537386
0.537496
0.537175
0.537343
0.536946
0.537167
0.536706
0.526068
0.526008
0.525959
0.525904
0.52584
0.525782
0.525712
0.525642
0.525577
0.525481
0.525431
0.525301
0.525271
0.525102
0.525098
0.524878
0.524913
0.524627
0.524713
0.524348
0.524494
0.524041
0.524245
0.52371
0.513957
0.513893
0.513855
0.513778
0.513737
0.513641
0.513599
0.513483
0.513438
0.513305
0.513256
0.5131
0.513057
0.512864
0.512841
0.512594
0.512607
0.512289
0.512351
0.511947
0.512072
0.511567
0.511759
0.511154
0.502234
0.502177
0.502129
0.502065
0.502
0.501922
0.501846
0.50175
0.501669
0.501543
0.501468
0.501304
0.501241
0.50103
0.500987
0.500717
0.500709
0.500362
0.500404
0.499962
0.500069
0.499518
0.499696
0.49903
0.490898
0.490838
0.490798
0.49072
0.490667
0.490567
0.490503
0.49038
0.490307
0.490157
0.490078
0.489895
0.489819
0.489589
0.48953
0.489238
0.48921
0.488838
0.488859
0.488385
0.488474
0.48788
0.48805
0.487322
0.479934
0.479881
0.479832
0.479764
0.479695
0.479605
0.479522
0.479404
0.479312
0.479159
0.479065
0.47887
0.47878
0.478534
0.478459
0.478147
0.478102
0.477704
0.477709
0.477204
0.477278
0.476645
0.476805
0.476023
0.469341
0.469286
0.469243
0.469165
0.469104
0.468999
0.46892
0.468788
0.468694
0.468529
0.468426
0.468219
0.468116
0.467856
0.467765
0.467436
0.467374
0.466955
0.466942
0.46641
0.466469
0.465801
0.465948
0.465124
0.459104
0.459055
0.459005
0.458937
0.45886
0.458765
0.458671
0.45854
0.458435
0.458263
0.45815
0.457932
0.457818
0.457544
0.45744
0.457094
0.457017
0.456579
0.456549
0.455994
0.456037
0.455337
0.455475
0.454608
0.44922
0.44917
0.449127
0.449046
0.448982
0.448868
0.448784
0.448637
0.448532
0.44835
0.448229
0.448001
0.447876
0.44759
0.447473
0.447113
0.447021
0.446566
0.446522
0.445943
0.445973
0.445244
0.445373
0.444466
0.439676
0.439631
0.439581
0.439512
0.43943
0.439332
0.439226
0.439089
0.438968
0.438785
0.438653
0.438418
0.438283
0.437986
0.437857
0.437484
0.437379
0.436907
0.436848
0.436252
0.436266
0.435512
0.435631
0.43469
0.430467
0.430421
0.430378
0.430297
0.430229
0.43011
0.43002
0.429862
0.429749
0.42955
0.429418
0.429171
0.429029
0.428721
0.428582
0.428196
0.428079
0.427593
0.427521
0.426906
0.426908
0.426132
0.42624
0.425265
0.421581
0.42154
0.421491
0.42142
0.421337
0.421232
0.421122
0.420977
0.420844
0.420651
0.420505
0.420255
0.420103
0.419787
0.419639
0.419242
0.419114
0.418616
0.41853
0.417902
0.41789
0.417094
0.417192
0.416188
0.413013
0.412971
0.412927
0.412848
0.412775
0.412655
0.412557
0.412394
0.412271
0.412062
0.411918
0.411657
0.411501
0.411175
0.41102
0.410613
0.410476
0.409965
0.409871
0.409227
0.409205
0.408392
0.40848
0.407451
0.40475
0.404713
0.404665
0.404593
0.40451
0.404399
0.404287
0.404132
0.403996
0.40379
0.403637
0.403373
0.403209
0.402877
0.402715
0.402298
0.402154
0.401632
0.40153
0.400874
0.400844
0.400015
0.400096
0.39905
0.396788
0.39675
0.396707
0.396628
0.396553
0.396431
0.396327
0.396161
0.396029
0.395814
0.39566
0.395389
0.395222
0.394882
0.394715
0.394289
0.39414
0.393607
0.393501
0.39283
0.392797
0.391955
0.392031
0.39097
0.389115
0.389081
0.389033
0.388962
0.388878
0.388764
0.38865
0.388488
0.388349
0.388134
0.387975
0.387699
0.387528
0.387182
0.38701
0.386577
0.386424
0.385882
0.385771
0.38509
0.385052
0.384198
0.384271
0.3832
0.381725
0.38169
0.381648
0.381569
0.381494
0.38137
0.381263
0.381093
0.380956
0.380735
0.380574
0.380294
0.380119
0.379768
0.379592
0.379153
0.378995
0.378445
0.37833
0.377641
0.377599
0.376735
0.376803
0.375723
0.374607
0.374576
0.37453
0.374457
0.374375
0.374258
0.374142
0.373977
0.373834
0.373613
0.373448
0.373166
0.372987
0.372632
0.372452
0.372008
0.371845
0.37129
0.37117
0.370473
0.370426
0.369556
0.369618
0.36853
0.367756
0.367725
0.367682
0.367607
0.367527
0.367406
0.367294
0.367122
0.366981
0.366756
0.36659
0.366304
0.366123
0.365764
0.36558
0.365133
0.364965
0.364406
0.364279
0.36358
0.363526
0.36265
0.362706
0.361612
0.361162
0.361133
0.36109
0.361015
0.360937
0.360813
0.360701
0.360528
0.360386
0.360159
0.359991
0.359703
0.359519
0.359157
0.35897
0.358519
0.358347
0.357784
0.357653
0.356948
0.35689
0.356009
0.356061
0.354959
0.354819
0.354791
0.354747
0.354675
0.354592
0.354474
0.354356
0.354187
0.35404
0.353814
0.353643
0.353353
0.353167
0.352803
0.352612
0.352158
0.351983
0.351418
0.351281
0.350574
0.350509
0.349624
0.349672
0.348566
0.348718
0.34869
0.34865
0.348573
0.348498
0.34837
0.348262
0.348082
0.347942
0.347709
0.347541
0.347246
0.34706
0.346692
0.3465
0.346044
0.345865
0.345297
0.345157
0.344447
0.344379
0.343489
0.343533
0.342422
0.342852
0.342827
0.342783
0.342713
0.342629
0.342511
0.342392
0.342222
0.342073
0.341845
0.341672
0.341378
0.341189
0.34082
0.340627
0.340167
0.339986
0.339416
0.339273
0.338561
0.338489
0.337595
0.337635
0.336524
0.337215
0.337189
0.33715
0.337074
0.336999
0.336871
0.336762
0.336581
0.336441
0.336204
0.336036
0.335737
0.33555
0.335177
0.334984
0.334521
0.33434
0.333767
0.333622
0.332908
0.332832
0.331939
0.331974
0.330861
0.331799
0.331776
0.331733
0.331663
0.331581
0.331461
0.331344
0.33117
0.331024
0.33079
0.33062
0.33032
0.330133
0.329757
0.329566
0.3291
0.328919
0.328342
0.328198
0.32748
0.327404
0.326509
0.326541
0.32543
0.326598
0.326574
0.326536
0.326459
0.326386
0.326257
0.32615
0.325967
0.325828
0.325588
0.325422
0.325118
0.324934
0.324553
0.324365
0.323894
0.323717
0.323135
0.322993
0.322272
0.322198
0.321299
0.321331
0.32022
0.321605
0.321583
0.321542
0.321472
0.32139
0.321271
0.321155
0.320979
0.320835
0.320597
0.320431
0.320125
0.319944
0.319559
0.319375
0.318898
0.318726
0.318137
0.318003
0.317273
0.317206
0.316303
0.316335
0.315228
0.316815
0.316792
0.316755
0.316678
0.316607
0.316476
0.316373
0.316185
0.316051
0.315805
0.315646
0.315334
0.315158
0.314768
0.314589
0.314106
0.313941
0.313345
0.313218
0.312481
0.312423
0.311513
0.311547
0.310444
0.31222
0.312199
0.312159
0.312089
0.31201
0.311888
0.311776
0.311597
0.311457
0.311214
0.311055
0.31074
0.310569
0.310173
0.310001
0.309511
0.309355
0.30875
0.308632
0.307887
0.307835
0.306925
0.306959
0.305862
0.307816
0.307794
0.307758
0.307682
0.307612
0.30748
0.307379
0.30719
0.30706
0.306809
0.306657
0.306337
0.306171
0.30577
0.305605
0.305108
0.304959
0.304348
0.304238
0.303487
0.30344
0.302529
0.302563
0.301473
0.303596
0.303576
0.303537
0.303467
0.303391
0.303266
0.303159
0.302975
0.302842
0.302593
0.302442
0.30212
0.301958
0.301554
0.301393
0.300891
0.300749
0.300131
0.300029
0.299274
0.299231
0.29832
0.298354
0.297266
0.299556
0.299535
0.299501
0.299424
0.299357
0.299223
0.299126
0.298933
0.298809
0.298554
0.298408
0.298082
0.297925
0.297516
0.297362
0.296854
0.296721
0.296095
0.296003
0.295241
0.295202
0.294292
0.294324
0.293242
0.29569
0.295671
0.295633
0.295562
0.295488
0.295363
0.295259
0.295072
0.294945
0.29469
0.294548
0.294217
0.294068
0.293651
0.293508
0.29299
0.292869
0.292234
0.292149
0.291386
0.29135
0.290441
0.290472
0.289396
0.291994
0.291973
0.29194
0.291861
0.291799
0.29166
0.291571
0.291371
0.291258
0.290991
0.290861
0.29052
0.290383
0.289955
0.289825
0.289296
0.289187
0.288545
0.288467
0.2877
0.287666
0.286762
0.28679
0.285722
0.288461
0.288442
0.288406
0.288333
0.288264
0.288134
0.288038
0.287843
0.287729
0.287461
0.287337
0.286988
0.286863
0.286423
0.286306
0.285768
0.285668
0.285021
0.284948
0.284182
0.284149
0.283248
0.283275
0.282215
0.28509
0.285069
0.285038
0.284957
0.284899
0.284756
0.284675
0.284466
0.284367
0.284086
0.283976
0.283615
0.283502
0.283054
0.282946
0.282402
0.282307
0.28166
0.281589
0.280825
0.280791
0.279896
0.27992
0.278868
0.281873
0.281853