/*--------------------------------*- C++ -*----------------------------------*\
  =========                 |
  \\      /  F ield         | OpenFOAM: The Open Source CFD Toolbox
   \\    /   O peration     | Website:  https://openfoam.org
    \\  /    A nd           | Version:  10
     \\/     M anipulation  |
\*---------------------------------------------------------------------------*/
FoamFile
{
    format      ascii;
    class       volScalarField;
    location    "0.19";
    object      p;
}
// * * * * * * * * * * * * * * * * * * * * * * * * * * * * * * * * * * * * * //

dimensions      [1 -1 -2 0 0 0 0];

internalField   nonuniform List<scalar> 
4176
(
1600.73
1600.92
1601.43
1602.06
1603.13
1604.14
1605.78
1607.17
1609.36
1611.14
1613.85
1616.07
1619.19
1621.96
1625.33
1628.83
1632.12
1636.76
1639.71
1645.71
1648.05
1655.67
1656.86
1665.6
1601.21
1601.4
1601.87
1602.48
1603.44
1604.44
1605.9
1607.28
1609.25
1610.99
1613.46
1615.59
1618.5
1621.1
1624.29
1627.53
1630.68
1634.95
1637.78
1643.33
1645.44
1652.89
1654.13
1663.9
1602.46
1602.66
1603.13
1603.75
1604.73
1605.75
1607.25
1608.64
1610.66
1612.43
1614.96
1617.12
1620.1
1622.73
1626.03
1629.3
1632.56
1636.94
1639.75
1645.46
1647.55
1654.89
1656.03
1665.5
1604.41
1604.6
1605.06
1605.67
1606.63
1607.62
1609.1
1610.46
1612.45
1614.17
1616.68
1618.76
1621.73
1624.26
1627.56
1630.73
1633.99
1638.39
1640.91
1646.8
1648.73
1655.97
1657.03
1665.89
1607.12
1607.31
1607.77
1608.38
1609.33
1610.33
1611.79
1613.16
1615.13
1616.86
1619.34
1621.44
1624.39
1626.92
1630.22
1633.34
1636.72
1640.93
1643.63
1649.42
1651.44
1658.63
1659.78
1668.62
1610.57
1610.76
1611.21
1611.82
1612.76
1613.75
1615.18
1616.55
1618.49
1620.21
1622.65
1624.74
1627.64
1630.15
1633.42
1636.48
1639.89
1643.91
1646.83
1652.37
1654.46
1661.57
1662.79
1671.72
1614.78
1614.97
1615.42
1616.02
1616.95
1617.93
1619.35
1620.71
1622.63
1624.33
1626.75
1628.82
1631.7
1634.18
1637.44
1640.45
1643.88
1647.77
1650.79
1656.17
1658.34
1665.35
1666.6
1675.43
1619.74
1619.93
1620.37
1620.97
1621.89
1622.86
1624.27
1625.6
1627.5
1629.19
1631.58
1633.63
1636.48
1638.92
1642.16
1645.11
1648.55
1652.3
1655.41
1660.61
1662.86
1669.76
1671.05
1679.78
1625.46
1625.65
1626.08
1626.68
1627.58
1628.55
1629.94
1631.26
1633.14
1634.81
1637.17
1639.19
1642.02
1644.42
1647.64
1650.53
1653.97
1657.61
1660.78
1665.81
1668.13
1674.89
1676.23
1684.83
1631.94
1632.12
1632.56
1633.14
1634.04
1635
1636.37
1637.68
1639.53
1641.18
1643.51
1645.5
1648.3
1650.66
1653.85
1656.68
1660.11
1663.64
1666.86
1671.72
1674.12
1680.72
1682.1
1690.56
1639.19
1639.37
1639.8
1640.38
1641.27
1642.21
1643.56
1644.86
1646.68
1648.31
1650.61
1652.57
1655.34
1657.66
1660.82
1663.58
1667
1670.43
1673.68
1678.38
1680.85
1687.26
1688.68
1697.01
1647.21
1647.4
1647.82
1648.39
1649.26
1650.2
1651.53
1652.8
1654.61
1656.21
1658.48
1660.41
1663.14
1665.41
1668.54
1671.24
1674.63
1677.96
1681.25
1685.78
1688.29
1694.54
1695.98
1704.16
1656.02
1656.2
1656.62
1657.18
1658.04
1658.96
1660.27
1661.53
1663.3
1664.88
1667.12
1669.01
1671.7
1673.93
1677.02
1679.66
1683.02
1686.25
1689.56
1693.92
1696.48
1702.55
1704
1712.03
1665.62
1665.8
1666.21
1666.77
1667.61
1668.52
1669.81
1671.04
1672.79
1674.33
1676.54
1678.39
1681.05
1683.22
1686.27
1688.84
1692.17
1695.3
1698.62
1702.82
1705.42
1711.31
1712.76
1720.63
1676.02
1676.2
1676.6
1677.15
1677.98
1678.87
1680.14
1681.35
1683.06
1684.58
1686.75
1688.56
1691.17
1693.29
1696.3
1698.8
1702.1
1705.12
1708.44
1712.48
1715.11
1720.82
1722.28
1729.96
1687.24
1687.42
1687.81
1688.35
1689.16
1690.03
1691.27
1692.46
1694.14
1695.62
1697.75
1699.52
1702.09
1704.15
1707.12
1709.54
1712.8
1715.73
1719.02
1722.9
1725.56
1731.07
1732.56
1740.05
1699.28
1699.45
1699.84
1700.37
1701.16
1702.01
1703.23
1704.38
1706.03
1707.47
1709.56
1711.28
1713.8
1715.81
1718.72
1721.08
1724.28
1727.11
1730.39
1734.1
1736.79
1742.09
1743.61
1750.9
1712.15
1712.32
1712.7
1713.22
1714
1714.83
1716.02
1717.14
1718.75
1720.15
1722.19
1723.86
1726.33
1728.28
1731.14
1733.41
1736.57
1739.29
1742.54
1746.08
1748.79
1753.89
1755.43
1762.51
1725.87
1726.05
1726.41
1726.92
1727.68
1728.49
1729.64
1730.74
1732.31
1733.67
1735.66
1737.27
1739.68
1741.57
1744.36
1746.56
1749.66
1752.28
1755.48
1758.87
1761.59
1766.48
1768.04
1774.91
1740.46
1740.63
1740.99
1741.48
1742.22
1743
1744.13
1745.18
1746.71
1748.03
1749.97
1751.52
1753.88
1755.69
1758.42
1760.53
1763.57
1766.08
1769.24
1772.46
1775.19
1779.86
1781.45
1788.09
1755.92
1756.09
1756.44
1756.91
1757.63
1758.39
1759.48
1760.5
1761.98
1763.25
1765.13
1766.63
1768.92
1770.65
1773.32
1775.33
1778.31
1780.71
1783.82
1786.87
1789.6
1794.06
1795.67
1802.08
1772.27
1772.44
1772.78
1773.24
1773.93
1774.66
1775.71
1776.69
1778.13
1779.34
1781.17
1782.6
1784.83
1786.48
1789.08
1791
1793.9
1796.18
1799.23
1802.12
1804.85
1809.08
1810.7
1816.88
1789.53
1789.69
1790.02
1790.46
1791.12
1791.82
1792.84
1793.78
1795.17
1796.32
1798.09
1799.46
1801.61
1803.19
1805.71
1807.53
1810.35
1812.51
1815.49
1818.23
1820.93
1824.93
1826.57
1832.5
1807.7
1807.86
1808.17
1808.6
1809.24
1809.9
1810.88
1811.77
1813.11
1814.21
1815.92
1817.21
1819.29
1820.78
1823.22
1824.94
1827.68
1829.72
1832.62
1835.2
1837.88
1841.64
1843.28
1848.95
1826.81
1826.96
1827.26
1827.67
1828.28
1828.91
1829.85
1830.69
1831.97
1833.01
1834.65
1835.87
1837.88
1839.28
1841.64
1843.25
1845.91
1847.82
1850.64
1853.05
1855.7
1859.23
1860.85
1866.26
1846.86
1847.01
1847.29
1847.68
1848.26
1848.86
1849.76
1850.55
1851.78
1852.75
1854.32
1855.46
1857.39
1858.7
1860.97
1862.48
1865.05
1866.83
1869.56
1871.81
1874.4
1877.7
1879.31
1884.44
1867.87
1868.01
1868.29
1868.65
1869.21
1869.77
1870.62
1871.37
1872.53
1873.44
1874.94
1876
1877.85
1879.06
1881.24
1882.63
1885.11
1886.75
1889.4
1891.48
1894.02
1897.07
1898.67
1903.54
1889.85
1889.99
1890.25
1890.6
1891.12
1891.65
1892.46
1893.15
1894.26
1895.1
1896.52
1897.5
1899.26
1900.37
1902.46
1903.74
1906.11
1907.62
1910.18
1912.09
1914.56
1917.36
1918.96
1923.54
1912.82
1912.96
1913.21
1913.53
1914.03
1914.52
1915.28
1915.92
1916.96
1917.74
1919.09
1919.98
1921.65
1922.66
1924.65
1925.81
1928.08
1929.45
1931.91
1933.65
1936.04
1938.59
1940.17
1944.48
1936.8
1936.94
1937.17
1937.47
1937.94
1938.39
1939.1
1939.69
1940.67
1941.38
1942.65
1943.45
1945.04
1945.94
1947.83
1948.86
1951.03
1952.26
1954.61
1956.18
1958.49
1960.79
1962.34
1966.35
1961.8
1961.93
1962.15
1962.43
1962.86
1963.28
1963.95
1964.48
1965.4
1966.03
1967.23
1967.94
1969.44
1970.23
1972.03
1972.92
1974.99
1976.06
1978.31
1979.7
1981.92
1983.97
1985.51
1989.18
1987.84
1987.97
1988.17
1988.43
1988.83
1989.21
1989.83
1990.31
1991.16
1991.72
1992.84
1993.47
1994.87
1995.56
1997.25
1998.02
1999.97
2000.89
2003.02
2004.23
2006.35
2008.17
2009.68
2013.03
2014.93
2015.06
2015.24
2015.49
2015.85
2016.2
2016.76
2017.18
2017.98
2018.46
2019.51
2020.04
2021.35
2021.93
2023.52
2024.15
2026
2026.75
2028.77
2029.79
2031.81
2033.39
2034.88
2037.88
2043.1
2043.22
2043.39
2043.61
2043.95
2044.25
2044.77
2045.13
2045.86
2046.27
2047.24
2047.68
2048.9
2049.36
2050.86
2051.36
2053.09
2053.69
2055.59
2056.42
2058.32
2059.66
2061.11
2063.78
2072.36
2072.47
2072.63
2072.83
2073.13
2073.4
2073.86
2074.18
2074.84
2075.17
2076.06
2076.4
2077.54
2077.89
2079.28
2079.64
2081.27
2081.7
2083.49
2084.13
2085.91
2087.01
2088.42
2090.73
2102.72
2102.83
2102.97
2103.16
2103.42
2103.65
2104.07
2104.33
2104.92
2105.19
2105.99
2106.24
2107.28
2107.51
2108.8
2109.03
2110.55
2110.82
2112.5
2112.94
2114.61
2115.47
2116.8
2118.77
2134.21
2134.32
2134.45
2134.61
2134.85
2135.04
2135.41
2135.61
2136.14
2136.33
2137.05
2137.21
2138.15
2138.27
2139.45
2139.54
2140.95
2141.05
2142.62
2142.87
2144.43
2145.05
2146.28
2147.9
2166.85
2166.96
2167.07
2167.21
2167.42
2167.57
2167.89
2168.04
2168.5
2168.62
2169.26
2169.32
2170.18
2170.17
2171.25
2171.19
2172.49
2172.43
2173.88
2173.93
2175.39
2175.77
2176.92
2178.17
2200.66
2200.76
2200.86
2200.98
2201.15
2201.27
2201.54
2201.64
2202.04
2202.08
2202.64
2202.61
2203.37
2203.25
2204.22
2204.02
2205.2
2204.96
2206.31
2206.15
2207.5
2207.64
2208.71
2209.6
2235.66
2235.76
2235.84
2235.94
2236.08
2236.17
2236.39
2236.43
2236.76
2236.73
2237.22
2237.09
2237.76
2237.51
2238.38
2238.03
2239.11
2238.68
2239.91
2239.54
2240.78
2240.68
2241.65
2242.22
2271.87
2271.97
2272.04
2272.12
2272.23
2272.27
2272.45
2272.43
2272.7
2272.6
2273
2272.78
2273.35
2272.99
2273.76
2273.26
2274.22
2273.62
2274.73
2274.14
2275.26
2274.9
2275.78
2276.05
2309.32
2309.42
2309.47
2309.53
2309.61
2309.62
2309.74
2309.67
2309.88
2309.69
2310.02
2309.7
2310.18
2309.7
2310.36
2309.71
2310.57
2309.78
2310.79
2309.96
2310.99
2310.35
2311.13
2311.07
2348.04
2348.13
2348.17
2348.21
2348.25
2348.22
2348.29
2348.16
2348.3
2348.05
2348.29
2347.87
2348.26
2347.66
2348.22
2347.42
2348.18
2347.19
2348.1
2347.04
2347.97
2347.04
2347.74
2347.32
2388.03
2388.13
2388.15
2388.17
2388.18
2388.11
2388.13
2387.94
2388.01
2387.68
2387.84
2387.32
2387.61
2386.89
2387.35
2386.39
2387.05
2385.87
2386.69
2385.39
2386.24
2385.01
2385.65
2384.86
2429.34
2429.43
2429.44
2429.43
2429.41
2429.3
2429.27
2429.02
2429.02
2428.61
2428.68
2428.07
2428.26
2427.41
2427.77
2426.66
2427.2
2425.84
2426.56
2425.02
2425.79
2424.27
2424.85
2423.69
2471.97
2472.06
2472.05
2472.02
2471.96
2471.81
2471.73
2471.42
2471.35
2470.86
2470.85
2470.14
2470.23
2469.25
2469.5
2468.23
2468.67
2467.11
2467.73
2465.95
2466.66
2464.81
2465.36
2463.82
2515.95
2516.03
2516.01
2515.96
2515.87
2515.68
2515.54
2515.17
2515.03
2514.46
2514.36
2513.54
2513.53
2512.43
2512.57
2511.14
2511.48
2509.71
2510.24
2508.19
2508.85
2506.68
2507.23
2505.25
2561.29
2561.38
2561.34
2561.27
2561.14
2560.9
2560.71
2560.28
2560.07
2559.41
2559.23
2558.3
2558.2
2556.96
2557
2555.4
2555.63
2553.66
2554.11
2551.79
2552.39
2549.87
2550.44
2548.03
2608.02
2608.1
2608.04
2607.95
2607.78
2607.51
2607.26
2606.77
2606.49
2605.75
2605.47
2604.44
2604.24
2602.87
2602.8
2601.04
2601.17
2598.98
2599.35
2596.74
2597.31
2594.4
2595.03
2592.19
2656.14
2656.22
2656.15
2656.03
2655.83
2655.51
2655.21
2654.66
2654.3
2653.48
2653.12
2651.98
2651.68
2650.16
2650
2648.06
2648.1
2645.68
2645.99
2643.08
2643.65
2640.33
2640.98
2637.72
2705.67
2705.75
2705.66
2705.52
2705.28
2704.93
2704.57
2703.95
2703.52
2702.62
2702.17
2700.92
2700.53
2698.87
2698.62
2696.48
2696.45
2693.78
2694.05
2690.81
2691.42
2687.67
2688.32
2684.67
2756.62
2756.69
2756.59
2756.43
2756.15
2755.76
2755.34
2754.67
2754.17
2753.18
2752.65
2751.28
2750.8
2748.99
2748.66
2746.33
2746.24
2743.3
2743.56
2739.94
2740.59
2736.47
2737.1
2733.05
2808.99
2809.06
2808.94
2808.76
2808.45
2808.02
2807.55
2806.81
2806.24
2805.16
2804.56
2803.07
2802.52
2800.55
2800.16
2797.6
2797.49
2794.25
2794.54
2790.54
2791.18
2786.74
2787.31
2782.89
2862.79
2862.85
2862.72
2862.52
2862.17
2861.71
2861.18
2860.39
2859.76
2858.59
2857.92
2856.3
2855.7
2853.54
2853.12
2850.3
2850.22
2846.62
2846.97
2842.65
2843.22
2838.48
2839
2834.2
2918.02
2918.08
2917.94
2917.72
2917.33
2916.83
2916.26
2915.41
2914.71
2913.45
2912.73
2910.97
2910.34
2907.96
2907.57
2904.45
2904.43
2900.51
2900.8
2896.25
2896.73
2891.7
2892.16
2887
2974.67
2974.74
2974.58
2974.34
2973.92
2973.39
2972.77
2971.86
2971.12
2969.75
2969.02
2967.07
2966.47
2963.84
2963.5
2960.09
2960.04
2955.92
2956.12
2951.34
2951.73
2946.43
2946.83
2941.31
3032.75
3032.82
3032.64
3032.4
3031.95
3031.39
3030.71
3029.75
3028.98
3027.48
3026.77
3024.62
3024.07
3021.2
3020.83
3017.27
3017.12
3012.84
3012.92
3007.94
3008.24
3002.67
3003.01
2997.14
3092.25
3092.33
3092.12
3091.9
3091.39
3090.83
3090.1
3089.06
3088.31
3086.66
3085.96
3083.67
3083.06
3080.09
3079.63
3075.94
3075.68
3071.25
3071.23
3066.05
3066.26
3060.44
3060.71
3054.51
3153.17
3153.26
3153.03
3152.81
3152.25
3151.7
3150.9
3149.85
3149.03
3147.33
3146.56
3144.21
3143.51
3140.46
3139.9
3136.1
3135.74
3131.16
3131.04
3125.68
3125.79
3119.73
3119.94
3113.41
3215.51
3215.6
3215.36
3215.13
3214.56
3213.97
3213.12
3212.1
3211.17
3209.46
3208.62
3206.19
3205.43
3202.29
3201.64
3197.75
3197.29
3192.58
3192.36
3186.82
3186.85
3180.55
3180.71
3173.86
3279.27
3279.36
3279.12
3278.87
3278.29
3277.68
3276.79
3275.78
3274.72
3273.07
3272.1
3269.65
3268.81
3265.6
3264.86
3260.88
3260.33
3255.49
3255.18
3249.48
3249.42
3242.91
3243.01
3235.86
3344.44
3344.53
3344.29
3344.03
3343.44
3342.82
3341.89
3340.88
3339.72
3338.12
3336.99
3334.58
3333.63
3330.37
3329.55
3325.49
3324.85
3319.9
3319.5
3313.65
3313.5
3306.78
3306.83
3299.39
3411.02
3411.12
3410.88
3410.61
3410.01
3409.38
3408.43
3407.4
3406.18
3404.6
3403.35
3400.98
3399.88
3396.62
3395.71
3391.57
3390.85
3385.79
3385.31
3379.31
3379.09
3372.17
3372.16
3364.45
3479.04
3479.14
3478.9
3478.62
3478.01
3477.37
3476.39
3475.36
3474.08
3472.51
3471.16
3468.82
3467.6
3464.32
3463.32
3459.11
3458.31
3453.15
3452.59
3446.45
3446.16
3439.06
3438.99
3431.03
3548.49
3548.6
3548.36
3548.08
3547.45
3546.8
3545.8
3544.75
3543.43
3541.87
3540.43
3538.09
3536.77
3533.47
3532.38
3528.1
3527.22
3521.96
3521.33
3515.06
3514.69
3507.43
3507.31
3499.11
3619.4
3619.51
3619.27
3618.99
3618.34
3617.69
3616.66
3615.59
3614.22
3612.66
3611.13
3608.79
3607.37
3604.05
3602.87
3598.51
3597.57
3592.21
3591.5
3585.11
3584.67
3577.25
3577.08
3568.66
3691.78
3691.9
3691.64
3691.36
3690.7
3690.03
3688.97
3687.88
3686.45
3684.89
3683.26
3680.91
3679.4
3676.04
3674.79
3670.34
3669.34
3663.87
3663.09
3656.59
3656.07
3648.5
3648.28
3639.66
3765.64
3765.77
3765.5
3765.21
3764.52
3763.83
3762.73
3761.61
3760.13
3758.54
3756.81
3754.46
3752.83
3749.43
3748.1
3743.56
3742.5
3736.92
3736.08
3729.46
3728.87
3721.17
3720.89
3712.09
3840.98
3841.11
3840.82
3840.52
3839.8
3839.08
3837.93
3836.77
3835.22
3833.59
3831.75
3829.4
3827.63
3824.21
3822.78
3818.15
3817.04
3811.35
3810.43
3803.72
3803.06
3795.23
3794.9
3785.94
3917.76
3917.9
3917.59
3917.27
3916.5
3915.74
3914.53
3913.33
3911.7
3910.02
3908.06
3905.71
3903.77
3900.37
3898.78
3894.12
3892.92
3887.13
3886.14
3879.34
3878.61
3870.68
3870.29
3861.19
3995.9
3996.04
3995.72
3995.37
3994.57
3993.76
3992.5
3991.22
3989.53
3987.78
3985.72
3983.35
3981.23
3977.88
3976.07
3971.46
3970.13
3964.25
3963.21
3956.33
3955.53
3947.5
3947.07
3937.84
4075.29
4075.43
4075.1
4074.71
4073.9
4073.03
4071.73
4070.4
4068.63
4066.82
4064.67
4062.29
4060
4056.7
4054.68
4050.14
4048.62
4042.73
4041.64
4034.69
4033.82
4025.72
4025.25
4015.91
4155.73
4155.87
4155.54
4155.14
4154.32
4153.43
4152.11
4150.74
4148.94
4147.09
4144.88
4142.48
4140.06
4136.81
4134.58
4130.16
4128.4
4122.63
4121.41
4114.41
4113.49
4105.35
4104.85
4095.43
4237.03
4237.18
4236.87
4236.48
4235.67
4234.79
4233.48
4232.12
4230.33
4228.49
4226.26
4223.87
4221.39
4218.21
4215.81
4211.52
4209.55
4203.9
4202.54
4195.54
4194.59
4186.43
4185.91
4176.43
4319.01
4319.17
4318.89
4318.54
4317.78
4316.96
4315.71
4314.42
4312.69
4310.91
4308.74
4306.42
4303.94
4300.86
4298.38
4294.23
4292.1
4286.6
4285.1
4278.13
4277.16
4268.97
4268.46
4258.95
4401.56
4401.74
4401.51
4401.22
4400.55
4399.82
4398.7
4397.52
4395.92
4394.29
4392.23
4390.06
4387.67
4384.74
4382.28
4378.31
4376.09
4370.78
4369.12
4362.28
4361.28
4353.04
4352.55
4343
4484.74
4484.94
4484.78
4484.57
4484.01
4483.41
4482.43
4481.42
4480
4478.56
4476.69
4474.73
4472.51
4469.79
4467.47
4463.72
4461.53
4456.45
4454.74
4448.02
4446.99
4438.71
4438.24
4428.62
4568.82
4569.05
4568.94
4568.82
4568.36
4567.9
4567.07
4566.24
4565.01
4563.78
4562.13
4560.42
4558.42
4555.96
4553.86
4550.37
4548.35
4543.53
4541.92
4535.37
4534.42
4526.07
4525.64
4515.87
4654.3
4654.59
4654.49
4654.47
4654.05
4653.73
4652.97
4652.32
4651.21
4650.19
4648.71
4647.24
4645.43
4643.24
4641.43
4638.11
4636.49
4631.76
4630.59
4624.09
4623.51
4615.18
4614.86
4604.95
4741.93
4742.29
4742.12
4742.22
4741.71
4741.56
4740.69
4740.25
4739.05
4738.25
4736.76
4735.49
4733.78
4731.74
4730.3
4726.8
4726.02
4720.83
4720.59
4713.86
4713.92
4705.74
4705.75
4696.22
4832.62
4832.94
4832.84
4832.8
4832.36
4832
4831.22
4830.55
4829.42
4828.43
4826.97
4825.63
4823.87
4822
4820.4
4817.08
4816.42
4811.3
4811.32
4804.69
4805.15
4797.1
4797.57
4788.68
4927.22
4927.52
4927.38
4927.23
4926.68
4926.15
4925.2
4924.29
4922.95
4921.71
4920.01
4918.42
4916.43
4914.42
4912.39
4909.36
4908.08
4903.28
4903.14
4896.46
4897.17
4888.96
4889.8
4880.98
5026.49
5026.77
5026.54
5026.26
5025.53
5024.76
5023.52
5022.29
5020.58
5018.93
5016.8
5014.76
5012.28
5009.84
5007.24
5003.98
5002.01
4997.19
4996.55
4989.57
4990.33
4981.63
4982.74
4973.54
5130.87
5131.17
5130.8
5130.42
5129.44
5128.43
5126.83
5125.25
5123.05
5120.93
5118.19
5115.58
5112.4
5109.31
5105.9
5102
5099.22
5093.74
5092.49
5084.69
5085.27
5075.7
5076.93
5066.91
5240.51
5240.85
5240.32
5239.87
5238.63
5237.43
5235.44
5233.58
5230.78
5228.35
5224.77
5221.75
5217.6
5213.83
5209.47
5204.62
5200.98
5194.09
5192.16
5183.01
5182.94
5172.06
5173.12
5161.74
5355.22
5355.51
5355
5354.34
5353.05
5351.54
5349.41
5347.09
5344.1
5341
5337.17
5333.3
5328.67
5324.03
5318.74
5313.21
5307.9
5300.36
5296.79
5286.31
5284.89
5272.15
5272.51
5258.96
5474.45
5474.71
5474.21
5473.45
5472.08
5470.42
5468.14
5465.6
5462.37
5458.95
5454.79
5450.48
5445.39
5440.16
5434.2
5427.96
5421.37
5413.63
5407.42
5396.82
5392.94
5378.33
5377.17
5360.36
5597.47
5597.72
5597.23
5596.44
5595.04
5593.32
5590.96
5588.32
5584.99
5581.42
5577.09
5572.57
5567.24
5561.71
5555.39
5548.73
5541.55
5533.39
5525.79
5515.3
5508.45
5493.69
5490
5469.3
5723.45
5723.71
5723.23
5722.46
5721.07
5719.36
5717.01
5714.38
5711.04
5707.47
5703.13
5698.59
5693.22
5687.66
5681.26
5674.55
5667.22
5658.99
5651.07
5640.67
5632.78
5618.61
5613
5590.48
5851.52
5851.8
5851.36
5850.63
5849.28
5847.64
5845.35
5842.8
5839.54
5836.08
5831.83
5827.43
5822.17
5816.76
5810.5
5803.98
5796.8
5788.79
5781.18
5770.85
5763.79
5749.47
5744.97
5724.33
5980.84
5981.16
5980.75
5980.08
5978.81
5977.26
5975.08
5972.67
5969.54
5966.26
5962.17
5957.99
5952.94
5947.81
5941.8
5935.61
5928.72
5921.13
5913.91
5904.06
5897.58
5883.84
5879.75
5860.54
6110.65
6111
6110.64
6110.05
6108.86
6107.44
6105.38
6103.14
6100.18
6097.13
6093.24
6089.35
6084.54
6079.76
6074.06
6068.27
6061.76
6054.69
6047.86
6038.65
6032.6
6019.75
6015.92
5998.03
6240.27
6240.68
6240.33
6239.85
6238.73
6237.47
6235.53
6233.5
6230.7
6227.93
6224.25
6220.71
6216.14
6211.78
6206.38
6201.07
6194.94
6188.44
6182.03
6173.44
6167.91
6155.96
6152.36
6135.79
6369.13
6369.59
6369.24
6368.91
6367.82
6366.77
6364.89
6363.16
6360.46
6358.07
6354.49
6351.44
6347.01
6343.21
6338.01
6333.29
6327.5
6321.6
6315.66
6307.69
6302.57
6291.62
6288.24
6273
6496.72
6497.21
6496.88
6496.68
6495.63
6494.8
6492.98
6491.56
6488.92
6486.96
6483.46
6480.95
6476.58
6473.46
6468.33
6464.39
6458.76
6453.54
6448.03
6440.77
6436.01
6426.07
6422.89
6408.99
6622.6
6623.1
6622.85
6622.67
6621.81
6620.99
6619.48
6618.09
6615.84
6613.95
6610.89
6608.54
6604.63
6601.78
6597.11
6593.59
6588.38
6583.82
6578.57
6572.11
6567.7
6558.77
6555.79
6543.22
6746.4
6746.92
6746.74
6746.59
6745.89
6745.14
6743.85
6742.56
6740.62
6738.86
6736.21
6733.99
6730.6
6727.92
6723.81
6720.58
6715.89
6711.84
6706.92
6701.41
6697.22
6689.28
6686.49
6675.21
6867.83
6868.33
6868.22
6868.12
6867.54
6866.89
6865.78
6864.64
6862.95
6861.37
6859.05
6857.05
6854.07
6851.65
6848.01
6845.11
6840.9
6837.36
6832.81
6828.18
6824.17
6817.2
6814.6
6804.59
6986.59
6987.1
6987.04
6986.99
6986.51
6985.97
6985.02
6984.04
6982.57
6981.19
6979.16
6977.4
6974.78
6972.65
6969.43
6966.91
6963.14
6960.09
6955.96
6952.04
6948.2
6942.29
6939.86
6931.08
7102.47
7102.98
7102.97
7102.97
7102.6
7102.15
7101.36
7100.53
7099.27
7098.09
7096.32
7094.81
7092.52
7090.69
7087.86
7085.7
7082.36
7079.77
7076.06
7072.79
7069.16
7064.26
7061.97
7054.39
7215.3
7215.81
7215.83
7215.9
7215.59
7215.28
7214.59
7213.94
7212.85
7211.88
7210.35
7209.09
7207.1
7205.57
7203.09
7201.29
7198.34
7196.19
7192.9
7190.21
7186.88
7182.9
7180.75
7174.31
7324.92
7325.43
7325.51
7325.57
7325.42
7325.11
7324.65
7324.06
7323.2
7322.39
7321.11
7320.08
7318.37
7317.13
7314.98
7313.52
7310.96
7309.22
7306.32
7304.15
7301.19
7298.05
7296.02
7290.65
7431.23
7431.74
7431.8
7432.02
7431.76
7431.77
7431.2
7430.93
7430.11
7429.56
7428.45
7427.67
7426.22
7425.25
7423.42
7422.29
7420.07
7418.73
7416.22
7414.53
7411.92
7409.53
7407.65
7403.25
7534.13
7534.62
7534.79
7534.85
7534.98
7534.68
7534.62
7534.15
7533.71
7533.19
7532.36
7531.75
7530.56
7529.85
7528.31
7527.49
7525.61
7524.64
7522.49
7521.26
7519.02
7517.23
7515.49
7512.06
7633.58
7634.08
7634.14
7634.55
7634.25
7634.62
7634.06
7634.23
7633.56
7633.43
7632.66
7632.31
7631.33
7630.87
7629.6
7629.06
7627.49
7626.88
7625.05
7624.26
7622.35
7621.13
7619.55
7617.02
7729.51
7729.97
7730.22
7730.29
7730.62
7730.37
7730.62
7730.26
7730.21
7729.91
7729.5
7729.24
7728.52
7728.26
7727.25
7726.98
7725.7
7725.41
7723.89
7723.49
7721.89
7721.16
7719.82
7718.1
7821.96
7822.44
7822.51
7823.03
7822.78
7823.36
7822.89
7823.37
7822.86
7823.09
7822.61
7822.64
7822.06
7822.04
7821.26
7821.24
7820.22
7820.23
7819
7818.98
7817.65
7817.39
7816.27
7815.29
7910.86
7911.29
7911.6
7911.69
7912.15
7911.99
7912.45
7912.23
7912.48
7912.38
7912.32
7912.37
7912.04
7912.18
7911.62
7911.84
7911.07
7911.36
7910.39
7910.71
7909.66
7909.84
7908.96
7908.6
7996.32
7996.78
7996.86
7997.45
7997.26
7997.99
7997.62
7998.33
7997.99
7998.5
7998.27
7998.63
7998.39
7998.73
7998.37
7998.8
7998.26
7998.81
7998.09
7998.73
7997.91
7998.51
7997.84
7998.05
8078.3
8078.69
8079.03
8079.15
8079.69
8079.63
8080.22
8080.16
8080.61
8080.73
8080.93
8081.25
8081.24
8081.72
8081.55
8082.17
8081.83
8082.61
8082.11
8083.04
8082.45
8083.43
8082.92
8083.67
8156.91
8157.34
8157.43
8158.05
8157.94
8158.74
8158.52
8159.34
8159.21
8159.89
8159.91
8160.51
8160.56
8161.21
8161.19
8161.99
8161.84
8162.83
8162.53
8163.73
8163.31
8164.64
8164.27
8165.52
8232.16
8232.51
8232.86
8233.02
8233.6
8233.66
8234.3
8234.43
8234.98
8235.32
8235.69
8236.26
8236.5
8237.26
8237.39
8238.34
8238.35
8239.54
8239.41
8240.84
8240.59
8242.23
8241.98
8243.66
8304.17
8304.56
8304.68
8305.29
8305.28
8306.07
8306.04
8306.87
8306.97
8307.74
8307.99
8308.76
8309.06
8309.95
8310.21
8311.3
8311.46
8312.81
8312.83
8314.48
8314.38
8316.29
8316.14
8318.2
8372.98
8373.3
8373.64
8373.85
8374.42
8374.6
8375.24
8375.56
8376.15
8376.7
8377.19
8377.96
8378.39
8379.37
8379.74
8380.96
8381.24
8382.75
8382.91
8384.75
8384.76
8386.92
8386.86
8389.26
8438.71
8439.06
8439.22
8439.78
8439.89
8440.62
8440.79
8441.58
8441.89
8442.71
8443.15
8444.05
8444.54
8445.63
8446.09
8447.42
8447.81
8449.46
8449.73
8451.73
8451.85
8454.22
8454.24
8456.94
8501.43
8501.72
8502.04
8502.31
8502.82
8503.16
8503.74
8504.25
8504.83
8505.55
8506.13
8507.07
8507.64
8508.8
8509.36
8510.78
8511.27
8513.03
8513.41
8515.56
8515.77
8518.33
8518.38
8521.4
8561.25
8561.56
8561.76
8562.24
8562.5
8563.12
8563.48
8564.21
8564.7
8565.55
8566.13
8567.14
8567.78
8569.01
8569.64
8571.15
8571.73
8573.58
8574.05
8576.33
8576.62
8579.35
8579.49
8582.68
8618.26
8618.53
8618.81
8619.16
8619.59
8620.06
8620.59
8621.23
8621.82
8622.66
8623.32
8624.37
8625.06
8626.35
8627.05
8628.63
8629.28
8631.23
8631.78
8634.16
8634.53
8637.4
8637.59
8640.98
8672.57
8672.84
8673.07
8673.49
8673.84
8674.4
8674.88
8675.6
8676.18
8677.07
8677.75
8678.85
8679.59
8680.93
8681.69
8683.33
8684.05
8686.07
8686.69
8689.17
8689.61
8692.61
8692.83
8696.39
8724.28
8724.52
8724.77
8725.15
8725.55
8726.08
8726.6
8727.31
8727.94
8728.85
8729.56
8730.69
8731.47
8732.86
8733.67
8735.36
8736.15
8738.22
8738.91
8741.46
8741.96
8745.08
8745.33
8749.05
8773.48
8773.71
8773.95
8774.33
8774.72
8775.28
8775.79
8776.53
8777.17
8778.1
8778.84
8780
8780.82
8782.24
8783.09
8784.83
8785.67
8787.8
8788.54
8791.16
8791.71
8794.92
8795.2
8799.06
8820.27
8820.49
8820.73
8821.11
8821.5
8822.05
8822.58
8823.33
8823.98
8824.93
8825.69
8826.88
8827.72
8829.18
8830.07
8831.84
8832.72
8834.89
8835.69
8838.35
8838.96
8842.23
8842.56
8846.54
8864.77
8864.97
8865.21
8865.58
8865.97
8866.53
8867.06
8867.82
8868.48
8869.45
8870.22
8871.43
8872.29
8873.77
8874.69
8876.5
8877.41
8879.62
8880.45
8883.16
8883.81
8887.13
8887.49
8891.56
8907.06
8907.25
8907.48
8907.85
8908.24
8908.8
8909.33
8910.09
8910.76
8911.74
8912.53
8913.75
8914.63
8916.13
8917.07
8918.9
8919.83
8922.08
8922.93
8925.67
8926.35
8929.72
8930.1
8934.24
8947.23
8947.42
8947.64
8948
8948.39
8948.95
8949.49
8950.25
8950.93
8951.91
8952.71
8953.94
8954.83
8956.35
8957.29
8959.16
8960.09
8962.37
8963.22
8966.01
8966.68
8970.09
8970.47
8974.64
8985.4
8985.57
8985.79
8986.15
8986.53
8987.09
8987.62
8988.39
8989.07
8990.06
8990.86
8992.1
8993
8994.53
8995.48
8997.36
8998.29
9000.6
9001.44
9004.26
9004.93
9008.37
9008.74
9012.92
9021.64
9021.8
9022.02
9022.37
9022.75
9023.3
9023.84
9024.6
9025.28
9026.28
9027.07
9028.33
9029.22
9030.76
9031.71
9033.6
9034.54
9036.85
9037.7
9040.54
9041.19
9044.65
9045.02
9049.21
9056.05
9056.2
9056.41
9056.75
9057.13
9057.68
9058.21
9058.98
9059.65
9060.65
9061.44
9062.7
9063.59
9065.14
9066.09
9067.98
9068.92
9071.24
9072.09
9074.93
9075.59
9079.05
9079.42
9083.6
9088.71
9088.85
9089.05
9089.39
9089.76
9090.31
9090.84
9091.6
9092.27
9093.27
9094.06
9095.32
9096.21
9097.76
9098.7
9100.6
9101.54
9103.85
9104.7
9107.54
9108.2
9111.66
9112.02
9116.21
9119.7
9119.83
9120.03
9120.36
9120.73
9121.27
9121.79
9122.55
9123.22
9124.21
9125
9126.26
9127.14
9128.69
9129.63
9131.52
9132.46
9134.77
9135.63
9138.45
9139.11
9142.56
9142.93
9147.1
9149.1
9149.23
9149.42
9149.75
9150.11
9150.65
9151.16
9151.92
9152.58
9153.57
9154.35
9155.61
9156.49
9158.03
9158.97
9160.85
9161.79
9164.09
9164.94
9167.75
9168.42
9171.85
9172.21
9176.37
9177
9177.12
9177.3
9177.63
9177.98
9178.51
9179.02
9179.78
9180.43
9181.42
9182.19
9183.44
9184.31
9185.85
9186.78
9188.65
9189.58
9191.87
9192.72
9195.52
9196.19
9199.6
9199.96
9204.1
9203.45
9203.56
9203.75
9204.07
9204.41
9204.94
9205.44
9206.19
9206.83
9207.82
9208.58
9209.83
9210.69
9212.22
9213.14
9215.01
9215.93
9218.21
9219.05
9221.83
9222.47
9225.91
9226.25
9230.36
9228.54
9228.65
9228.82
9229.14
9229.48
9230
9230.5
9231.24
9231.87
9232.85
9233.6
9234.85
9235.69
9237.22
9238.12
9239.99
9240.89
9243.16
9243.99
9246.75
9247.41
9250.78
9251.14
9255.22
9252.32
9252.43
9252.6
9252.91
9253.24
9253.77
9254.24
9254.99
9255.6
9256.59
9257.32
9258.56
9259.39
9260.91
9261.79
9263.66
9264.54
9266.81
9267.61
9270.36
9271.01
9274.35
9274.7
9278.75
9274.87
9274.97
9275.14
9275.44
9275.77
9276.29
9276.76
9277.5
9278.1
9279.08
9279.79
9281.03
9281.84
9283.37
9284.22
9286.09
9286.94
9289.2
9289.98
9292.73
9293.34
9296.67
9296.99
9301.01
9296.24
9296.33
9296.5
9296.8
9297.12
9297.63
9298.09
9298.83
9299.42
9300.39
9301.09
9302.33
9303.11
9304.64
9305.46
9307.33
9308.15
9310.41
9311.15
9313.9
9314.46
9317.8
9318.09
9322.07
9316.49
9316.58
9316.74
9317.04
9317.35
9317.86
9318.31
9319.04
9319.61
9320.59
9321.26
9322.5
9323.25
9324.79
9325.58
9327.45
9328.22
9330.51
9331.2
9333.95
9334.45
9337.79
9338.06
9341.99
9335.67
9335.76
9335.91
9336.21
9336.51
9337.02
9337.45
9338.19
9338.74
9339.72
9340.37
9341.61
9342.33
9343.88
9344.62
9346.51
9347.23
9349.53
9350.15
9352.94
9353.38
9356.7
9356.94
9360.83
9353.84
9353.93
9354.08
9354.37
9354.66
9355.17
9355.59
9356.33
9356.86
9357.84
9358.46
9359.71
9360.39
9361.95
9362.65
9364.55
9365.22
9367.53
9368.11
9370.88
9371.3
9374.6
9374.82
9378.65
9371.05
9371.13
9371.27
9371.56
9371.85
9372.35
9372.76
9373.5
9374.01
9374.99
9375.59
9376.84
9377.49
9379.05
9379.72
9381.63
9382.26
9384.57
9385.1
9387.87
9388.25
9391.52
9391.73
9395.51
9387.33
9387.41
9387.55
9387.84
9388.12
9388.62
9389.02
9389.75
9390.25
9391.22
9391.8
9393.05
9393.68
9395.24
9395.88
9397.78
9398.37
9400.7
9401.17
9403.95
9404.29
9407.54
9407.73
9411.48
9402.74
9402.82
9402.96
9403.24
9403.51
9404.01
9404.39
9405.13
9405.6
9406.59
9407.14
9408.4
9408.99
9410.55
9411.15
9413.07
9413.61
9415.93
9416.37
9419.15
9419.46
9422.68
9422.86
9426.56
9417.32
9417.4
9417.53
9417.81
9418.07
9418.57
9418.94
9419.68
9420.13
9421.12
9421.64
9422.91
9423.46
9425.05
9425.58
9427.53
9428.01
9430.36
9430.75
9433.51
9433.8
9436.99
9437.16
9440.8
9431.1
9431.18
9431.31
9431.59
9431.84
9432.35
9432.69
9433.44
9433.86
9434.87
9435.34
9436.64
9437.13
9438.76
9439.22
9441.2
9441.62
9443.97
9444.34
9447.08
9447.35
9450.5
9450.66
9454.26
9444.13
9444.2
9444.33
9444.61
9444.85
9445.36
9445.69
9446.44
9446.83
9447.86
9448.29
9449.61
9450.05
9451.7
9452.12
9454.1
9454.49
9456.84
9457.18
9459.89
9460.15
9463.27
9463.42
9466.96
9456.43
9456.51
9456.62
9456.92
9457.13
9457.66
9457.95
9458.73
9459.08
9460.13
9460.51
9461.86
9462.26
9463.91
9464.3
9466.28
9466.65
9468.98
9469.3
9471.98
9472.23
9475.31
9475.46
9478.95
9468.05
9468.12
9468.23
9468.53
9468.73
9469.26
9469.54
9470.33
9470.65
9471.71
9472.06
9473.41
9473.78
9475.43
9475.8
9477.77
9478.12
9480.43
9480.74
9483.39
9483.63
9486.67
9486.81
9490.27
9479
9479.08
9479.18
9479.48
9479.67
9480.21
9480.47
9481.26
9481.56
9482.62
9482.96
9484.3
9484.66
9486.3
9486.65
9488.61
9488.94
9491.22
9491.52
9494.15
9494.38
9497.39
9497.52
9500.93
9489.33
9489.4
9489.5
9489.8
9489.99
9490.52
9490.77
9491.55
9491.85
9492.9
9493.23
9494.56
9494.91
9496.53
9496.88
9498.81
9499.14
9501.39
9501.68
9504.28
9504.51
9507.47
9507.6
9510.97
9499.05
9499.13
9499.23
9499.52
9499.7
9500.23
9500.48
9501.25
9501.54
9502.58
9502.9
9504.22
9504.56
9506.17
9506.5
9508.41
9508.73
9510.97
9511.24
9513.82
9514.03
9516.96
9517.09
9520.41
9508.2
9508.27
9508.37
9508.66
9508.84
9509.36
9509.6
9510.37
9510.66
9511.68
9512
9513.3
9513.63
9515.22
9515.55
9517.44
9517.75
9519.96
9520.23
9522.78
9522.98
9525.88
9526.01
9529.29
9516.79
9516.86
9516.97
9517.24
9517.43
9517.94
9518.18
9518.93
9519.22
9520.23
9520.54
9521.83
9522.15
9523.73
9524.04
9525.92
9526.22
9528.41
9528.67
9531.19
9531.39
9534.26
9534.38
9537.62
9524.86
9524.92
9525.04
9525.29
9525.51
9525.97
9526.25
9526.96
9527.26
9528.25
9528.56
9529.83
9530.14
9531.71
9532.01
9533.87
9534.16
9536.33
9536.58
9539.07
9539.27
9542.1
9542.22
9545.42
9532.42
9532.48
9532.6
9532.83
9533.07
9533.49
9533.81
9534.46
9534.81
9535.74
9536.08
9537.32
9537.63
9539.18
9539.47
9541.32
9541.59
9543.74
9543.98
9546.45
9546.64
9549.44
9549.55