/*--------------------------------*- C++ -*----------------------------------*\
  =========                 |
  \\      /  F ield         | OpenFOAM: The Open Source CFD Toolbox
   \\    /   O peration     | Website:  https://openfoam.org
    \\  /    A nd           | Version:  10
     \\/     M anipulation  |
\*---------------------------------------------------------------------------*/
FoamFile
{
    format      ascii;
    class       surfaceScalarField;
    location    "0.19";
    object      phi;
}
// * * * * * * * * * * * * * * * * * * * * * * * * * * * * * * * * * * * * * //

dimensions      [1 0 -1 0 0 0 0];

internalField   nonuniform List<scalar> 
8154
(
-5.81661e-09
-2.20318e-08
-5.66939e-08
-9.1508e-08
-1.71162e-07
-2.25263e-07
-3.69304e-07
-4.53186e-07
-6.73707e-07
-8.13158e-07
-1.10427e-06
-1.3371e-06
-1.66756e-06
-2.02635e-06
-2.35973e-06
-2.86579e-06
-3.2576e-06
-3.98779e-06
-4.56525e-06
-5.50695e-06
-6.82837e-06
-7.26477e-06
-6.84097e-06
-0.000277448
-0.000832396
2.40305e-08
-0.00138751
9.62938e-08
-0.00194295
2.13496e-07
-0.00249875
3.7837e-07
-0.00305513
5.77745e-07
-0.00361214
8.24214e-07
-0.00416986
1.08938e-06
-0.00472861
1.39876e-06
-0.00528808
1.71204e-06
-0.00584897
2.05687e-06
-0.00641077
2.40273e-06
-0.006974
2.74823e-06
-0.00753891
3.12072e-06
-0.00810441
3.43739e-06
-0.00867336
3.85155e-06
-0.00924055
4.1275e-06
-0.00981522
4.57348e-06
-0.0103836
4.92378e-06
-0.0109649
5.13931e-06
-0.0115342
5.2794e-06
-0.0121238
5.11087e-06
-0.0126952
4.03179e-06
-0.0132934
2.45155e-06
-0.000277471
-0.000832467
2.63417e-08
-0.00138763
1.04827e-07
-0.00194311
2.3488e-07
-0.00249895
4.10463e-07
-0.00305537
6.35712e-07
-0.00361241
8.9034e-07
-0.00417017
1.19572e-06
-0.00472892
1.50225e-06
-0.00528842
1.86793e-06
-0.00584931
2.19137e-06
-0.00641111
2.59307e-06
-0.00697437
2.89264e-06
-0.00753922
3.29919e-06
-0.00810482
3.54048e-06
-0.00867362
3.90603e-06
-0.00924099
4.10691e-06
-0.00981556
4.39074e-06
-0.0103838
5.00149e-06
-0.010965
4.66658e-06
-0.011534
5.23234e-06
-0.0121227
5.32746e-06
-0.0126936
5.04162e-06
-0.013291
4.22938e-06
-0.000277497
-0.000832545
2.12748e-08
-0.00138775
8.4926e-08
-0.00194328
1.88187e-07
-0.00249917
3.30778e-07
-0.00305562
5.0238e-07
-0.00361271
7.08131e-07
-0.00417047
9.23814e-07
-0.00472928
1.16763e-06
-0.00528873
1.39506e-06
-0.00584971
1.64244e-06
-0.0064114
1.84588e-06
-0.00697477
2.04936e-06
-0.00753945
2.19726e-06
-0.00810517
2.28479e-06
-0.00867382
2.35561e-06
-0.00924126
2.209e-06
-0.00981617
2.34506e-06
-0.0103835
1.89911e-06
-0.0109656
1.78195e-06
-0.0115341
1.39274e-06
-0.0121224
1.15072e-06
-0.0126928
7.21585e-07
-0.0132867
5.14208e-07
-0.000277518
-0.000832608
2.55059e-08
-0.00138786
1.01871e-07
-0.00194342
2.26129e-07
-0.00249934
3.98036e-07
-0.00305583
6.06107e-07
-0.00361292
8.56485e-07
-0.00417071
1.12071e-06
-0.0047295
1.42187e-06
-0.00528898
1.70349e-06
-0.00584991
2.01749e-06
-0.0064116
2.27165e-06
-0.00697491
2.54781e-06
-0.00753953
2.73341e-06
-0.00810524
2.89589e-06
-0.00867366
2.98725e-06
-0.00924139
2.9004e-06
-0.00981572
2.97666e-06
-0.0103833
2.28309e-06
-0.0109652
2.51749e-06
-0.0115339
1.7262e-06
-0.012122
1.2039e-06
-0.0126926
3.80264e-07
-0.0132862
-1.74599e-07
-0.000277544
-0.000832683
3.36166e-08
-0.00138798
1.3422e-07
-0.00194359
2.9925e-07
-0.00249955
5.26657e-07
-0.00305607
8.08424e-07
-0.00361318
1.14254e-06
-0.00417101
1.51324e-06
-0.00472978
1.92052e-06
-0.00528929
2.34007e-06
-0.00585016
2.77397e-06
-0.00641187
3.19373e-06
-0.00697508
3.59541e-06
-0.00753969
3.96391e-06
-0.00810532
4.25946e-06
-0.00867356
4.52391e-06
-0.00924146
4.61773e-06
-0.00981501
4.73303e-06
-0.0103835
4.40099e-06
-0.0109644
4.36635e-06
-0.0115333
3.67411e-06
-0.0121211
3.21222e-06
-0.012692
2.27082e-06
-0.0132863
1.34511e-06
-0.000277577
-0.000832783
3.75374e-08
-0.00138814
1.49877e-07
-0.00194382
3.34431e-07
-0.00249983
5.88659e-07
-0.00305641
9.04845e-07
-0.00361355
1.27925e-06
-0.00417141
1.69751e-06
-0.00473019
2.15536e-06
-0.00528972
2.63204e-06
-0.00585057
3.12164e-06
-0.00641227
3.60204e-06
-0.00697545
4.05769e-06
-0.00753998
4.48154e-06
-0.00810557
4.82231e-06
-0.00867365
5.12574e-06
-0.00924156
5.2522e-06
-0.00981467
5.37151e-06
-0.0103835
5.08275e-06
-0.0109637
4.96651e-06
-0.0115328
4.21761e-06
-0.0121202
3.68001e-06
-0.0126911
2.63975e-06
-0.013285
1.60915e-06
-0.000277614
-0.000832895
4.13709e-08
-0.00138833
1.65189e-07
-0.00194407
3.68702e-07
-0.00250014
6.49121e-07
-0.00305678
9.98309e-07
-0.00361396
1.41213e-06
-0.00417186
1.87538e-06
-0.00473067
2.38334e-06
-0.0052902
2.91349e-06
-0.00585105
3.45972e-06
-0.00641272
3.99621e-06
-0.00697586
4.50862e-06
-0.00754031
4.98249e-06
-0.00810587
5.37174e-06
-0.00867377
5.70897e-06
-0.00924167
5.86477e-06
-0.00981438
5.9988e-06
-0.0103834
5.71915e-06
-0.0109629
5.59705e-06
-0.0115323
4.81189e-06
-0.0121191
4.20256e-06
-0.0126901
2.99077e-06
-0.0132833
1.79318e-06
-0.000277655
-0.000833018
4.50684e-08
-0.00138853
1.79936e-07
-0.00194435
4.01664e-07
-0.00250049
7.07059e-07
-0.00305719
1.0877e-06
-0.00361442
1.5386e-06
-0.00417237
2.04447e-06
-0.00473119
2.599e-06
-0.00529074
3.17992e-06
-0.00585158
3.77842e-06
-0.00641322
4.36903e-06
-0.00697633
4.93363e-06
-0.00754069
5.45679e-06
-0.0081062
5.88981e-06
-0.00867391
6.25989e-06
-0.0092418
6.44335e-06
-0.00981409
6.58241e-06
-0.0103832
6.32896e-06
-0.0109621
6.17738e-06
-0.0115317
5.37483e-06
-0.0121179
4.82449e-06
-0.0126889
3.36283e-06
-0.0132815
2.0159e-06
-0.0002777
-0.000833152
4.87184e-08
-0.00138875
1.94482e-07
-0.00194465
4.34115e-07
-0.00250087
7.63989e-07
-0.00305764
1.17524e-06
-0.00361492
1.66211e-06
-0.00417292
2.20888e-06
-0.00473177
2.80809e-06
-0.00529134
3.43712e-06
-0.00585216
4.08556e-06
-0.00641378
4.72732e-06
-0.00697685
5.34224e-06
-0.00754112
5.91259e-06
-0.00810656
6.38834e-06
-0.00867409
6.78996e-06
-0.00924193
6.99845e-06
-0.00981382
7.13778e-06
-0.0103831
6.90317e-06
-0.0109613
6.72816e-06
-0.011531
5.91194e-06
-0.0121165
4.85855e-06
-0.0126875
3.71194e-06
-0.0132795
2.20956e-06
-0.000277749
-0.000833297
5.23197e-08
-0.00138899
2.08828e-07
-0.00194498
4.66096e-07
-0.00250127
8.20032e-07
-0.00305812
1.26126e-06
-0.00361547
1.78318e-06
-0.00417352
2.36951e-06
-0.0047324
3.01163e-06
-0.00529198
3.68639e-06
-0.0058528
4.38201e-06
-0.00641439
5.07177e-06
-0.00697741
5.73402e-06
-0.00754158
6.34901e-06
-0.00810696
6.86577e-06
-0.00867429
7.29839e-06
-0.00924206
7.53017e-06
-0.00981358
7.66823e-06
-0.0103829
7.4487e-06
-0.0109605
7.24725e-06
-0.0115304
6.39569e-06
-0.012115
5.60073e-06
-0.012686
4.03312e-06
-0.0132773
2.39734e-06
-0.000277801
-0.000833453
5.5887e-08
-0.00138924
2.23042e-07
-0.00194533
4.97786e-07
-0.00250171
8.7558e-07
-0.00305864
1.34649e-06
-0.00361605
1.90307e-06
-0.00417415
2.52828e-06
-0.00473307
3.21231e-06
-0.00529267
3.93121e-06
-0.00585349
4.67191e-06
-0.00641505
5.4068e-06
-0.00697802
6.11332e-06
-0.00754209
6.76975e-06
-0.00810738
7.32518e-06
-0.00867452
7.78799e-06
-0.00924219
8.04431e-06
-0.00981335
8.18849e-06
-0.0103827
7.97078e-06
-0.0109596
7.74224e-06
-0.0115295
6.863e-06
-0.0121134
6.00746e-06
-0.0126844
4.35702e-06
-0.0132748
2.5838e-06
-0.000277856
-0.000833619
5.94129e-08
-0.00138952
2.37097e-07
-0.00194571
5.29149e-07
-0.00250218
9.30613e-07
-0.00305919
1.431e-06
-0.00361667
2.02204e-06
-0.00417483
2.68582e-06
-0.00473378
3.41131e-06
-0.00529341
4.17341e-06
-0.00585422
4.95775e-06
-0.00641575
5.73546e-06
-0.00697867
6.48326e-06
-0.00754264
7.1775e-06
-0.00810784
7.76802e-06
-0.00867477
8.25813e-06
-0.00924233
8.53739e-06
-0.00981312
8.68816e-06
-0.0103825
8.46808e-06
-0.0109587
8.20465e-06
-0.0115287
7.28745e-06
-0.0121118
6.37534e-06
-0.0126826
4.65177e-06
-0.0132722
2.7543e-06
-0.000277916
-0.000833796
6.28966e-08
-0.00138981
2.50989e-07
-0.00194611
5.60173e-07
-0.00250268
9.85118e-07
-0.00305978
1.51481e-06
-0.00361733
2.14019e-06
-0.00417556
2.84245e-06
-0.00473454
3.60929e-06
-0.00529419
4.41431e-06
-0.00585499
5.24162e-06
-0.00641649
6.06077e-06
-0.00697936
6.84764e-06
-0.00754322
7.57645e-06
-0.00810832
8.19829e-06
-0.00867505
8.71198e-06
-0.00924247
9.01104e-06
-0.00981289
9.16599e-06
-0.0103822
8.94625e-06
-0.0109578
8.64267e-06
-0.0115278
7.68034e-06
-0.01211
6.70785e-06
-0.0126807
4.89537e-06
-0.0132695
2.90152e-06
-0.000277978
-0.000833983
6.63399e-08
-0.00139011
2.64719e-07
-0.00194653
5.90839e-07
-0.00250321
1.03902e-06
-0.0030604
1.59775e-06
-0.00361803
2.25724e-06
-0.00417632
2.99782e-06
-0.00473534
3.80595e-06
-0.00529501
4.65385e-06
-0.00585581
5.524e-06
-0.00641728
6.38411e-06
-0.00698008
7.20884e-06
-0.00754384
7.96999e-06
-0.00810883
8.61977e-06
-0.00867534
9.15291e-06
-0.00924262
9.4677e-06
-0.00981266
9.62508e-06
-0.0103819
9.40765e-06
-0.0109568
9.06195e-06
-0.0115268
8.05563e-06
-0.0121082
7.01326e-06
-0.0126787
5.05445e-06
-0.0132665
3.02728e-06
-0.000278044
-0.000834181
6.97492e-08
-0.00139044
2.78306e-07
-0.00194698
6.21162e-07
-0.00250376
1.09229e-06
-0.00306106
1.67966e-06
-0.00361877
2.37283e-06
-0.00417712
3.15128e-06
-0.00473619
4.00037e-06
-0.00529588
4.89098e-06
-0.00585666
5.80401e-06
-0.0064181
6.70515e-06
-0.00698083
7.56758e-06
-0.00754448
8.36027e-06
-0.00810935
9.036e-06
-0.00867565
9.58511e-06
-0.00924277
9.91069e-06
-0.00981244
1.00665e-05
-0.0103815
9.84892e-06
-0.0109558
9.46217e-06
-0.0115257
8.41762e-06
-0.0121063
7.31365e-06
-0.0126767
5.27457e-06
-0.0132635
3.15866e-06
-0.000278114
-0.000834389
7.31269e-08
-0.00139078
2.91759e-07
-0.00194745
6.51141e-07
-0.00250435
1.14485e-06
-0.00306175
1.76033e-06
-0.00361954
2.48648e-06
-0.00417797
3.30199e-06
-0.00473707
4.19126e-06
-0.00529679
5.12394e-06
-0.00585756
6.07952e-06
-0.00641895
7.02177e-06
-0.00698162
7.92225e-06
-0.00754515
8.74694e-06
-0.0081099
9.44849e-06
-0.00867597
1.00124e-05
-0.00924292
1.03453e-05
-0.00981221
1.04929e-05
-0.0103812
1.02624e-05
-0.0109547
9.84165e-06
-0.0115246
8.76013e-06
-0.0121042
7.59596e-06
-0.0126746
5.49267e-06
-0.0132603
3.28032e-06
-0.000278187
-0.000834607
7.64626e-08
-0.00139114
3.0503e-07
-0.00194794
6.80665e-07
-0.00250496
1.1965e-06
-0.00306248
1.83939e-06
-0.00362036
2.59755e-06
-0.00417886
3.44891e-06
-0.004738
4.37702e-06
-0.00529774
5.35045e-06
-0.0058585
6.34755e-06
-0.00641985
7.3304e-06
-0.00698244
8.26906e-06
-0.00754584
9.12658e-06
-0.00811045
9.85507e-06
-0.0086763
1.0435e-05
-0.00924306
1.07756e-05
-0.00981197
1.09137e-05
-0.0103807
1.06665e-05
-0.0109536
1.02111e-05
-0.0115234
9.09319e-06
-0.0121021
7.86759e-06
-0.0126723
5.69302e-06
-0.013257
3.39365e-06
-0.000278263
-0.000834834
7.97295e-08
-0.00139151
3.18015e-07
-0.00194846
7.09509e-07
-0.00250561
1.24686e-06
-0.00306323
1.91628e-06
-0.00362121
2.70528e-06
-0.00417978
3.59099e-06
-0.00473897
4.55616e-06
-0.00529874
5.56842e-06
-0.00585948
6.60523e-06
-0.00642078
7.62726e-06
-0.00698329
8.6034e-06
-0.00754656
9.49411e-06
-0.00811103
1.02508e-05
-0.00867663
1.0849e-05
-0.0092432
1.11995e-05
-0.00981172
1.13301e-05
-0.0103803
1.10684e-05
-0.0109525
1.05743e-05
-0.0115222
9.42233e-06
-0.0121
8.13583e-06
-0.01267
5.88742e-06
-0.0132536
3.50165e-06
-0.000278342
-0.000835072
8.28689e-08
-0.0013919
3.30489e-07
-0.00194899
7.37208e-07
-0.00250627
1.29519e-06
-0.00306402
1.98999e-06
-0.00362209
2.80838e-06
-0.00418074
3.72664e-06
-0.00473998
4.72675e-06
-0.00529977
5.77543e-06
-0.00586049
6.84938e-06
-0.00642176
7.90819e-06
-0.00698418
8.91993e-06
-0.00754731
9.84299e-06
-0.00811162
1.06283e-05
-0.00867698
1.12469e-05
-0.00924332
1.16103e-05
-0.00981145
1.17377e-05
-0.0103798
1.1464e-05
-0.0109513
1.0931e-05
-0.0115209
9.75158e-06
-0.0120977
8.40524e-06
-0.0126677
6.08176e-06
-0.0132501
3.6083e-06
-0.000278425
-0.000835319
8.58033e-08
-0.00139231
3.42153e-07
-0.00194955
7.63135e-07
-0.00250697
1.34047e-06
-0.00306484
2.05912e-06
-0.003623
2.90511e-06
-0.00418174
3.85388e-06
-0.00474103
4.88657e-06
-0.00530084
5.96894e-06
-0.00586155
7.07702e-06
-0.00642276
8.16943e-06
-0.0069851
9.21376e-06
-0.00754809
1.01668e-05
-0.00811223
1.09795e-05
-0.00867734
1.16193e-05
-0.00924345
1.19985e-05
-0.00981117
1.2128e-05
-0.0103792
1.18471e-05
-0.0109501
1.12791e-05
-0.0115195
1.00796e-05
-0.0120954
8.67831e-06
-0.0126652
6.28199e-06
-0.0132464
3.71819e-06
-0.000278511
-0.000835575
8.84433e-08
-0.00139273
3.52661e-07
-0.00195013
7.86546e-07
-0.00250768
1.38149e-06
-0.00306568
2.12195e-06
-0.00362395
2.99329e-06
-0.00418277
3.97014e-06
-0.00474211
5.03276e-06
-0.00530194
6.14592e-06
-0.00586264
7.28488e-06
-0.0064238
8.4073e-06
-0.00698605
9.48043e-06
-0.00754889
1.04599e-05
-0.00811286
1.12968e-05
-0.00867771
1.19565e-05
-0.00924357
1.2352e-05
-0.00981088
1.24879e-05
-0.0103787
1.22074e-05
-0.0109489
1.16185e-05
-0.0115181
1.03992e-05
-0.012093
8.94692e-06
-0.0126626
6.48901e-06
-0.0132427
3.83436e-06
-0.000278599
-0.000835838
9.07027e-08
-0.00139316
3.61671e-07
-0.00195072
8.06695e-07
-0.00250842
1.41696e-06
-0.00306655
2.17657e-06
-0.00362493
3.07039e-06
-0.00418383
4.07232e-06
-0.00474322
5.16181e-06
-0.00530308
6.30256e-06
-0.00586376
7.46897e-06
-0.00642487
8.61767e-06
-0.00698702
9.71547e-06
-0.00754972
1.07169e-05
-0.00811352
1.15739e-05
-0.00867811
1.22496e-05
-0.0092437
1.2659e-05
-0.0098106
1.28018e-05
-0.0103781
1.25258e-05
-0.0109477
1.19271e-05
-0.0115166
1.06891e-05
-0.0120906
9.19267e-06
-0.01266
6.69253e-06
-0.0132388
3.95305e-06
-0.000278689
-0.000836109
9.25114e-08
-0.00139361
3.689e-07
-0.00195133
8.2293e-07
-0.00250918
1.44571e-06
-0.00306744
2.22116e-06
-0.00362593
3.13382e-06
-0.00418492
4.15706e-06
-0.00474436
5.26962e-06
-0.00530424
6.43423e-06
-0.0058649
7.62436e-06
-0.00642597
8.79548e-06
-0.00698802
9.91381e-06
-0.00755057
1.09329e-05
-0.00811418
1.18048e-05
-0.00867851
1.2492e-05
-0.00924384
1.29107e-05
-0.00981032
1.30575e-05
-0.0103775
1.27842e-05
-0.0109465
1.21751e-05
-0.0115151
1.09258e-05
-0.012088
9.39115e-06
-0.0126572
6.86634e-06
-0.0132349
4.05685e-06
-0.000278782
-0.000836384
9.38217e-08
-0.00139406
3.7415e-07
-0.00195195
8.34771e-07
-0.00250996
1.46681e-06
-0.00306835
2.25415e-06
-0.00362695
3.1812e-06
-0.00418602
4.221e-06
-0.00474552
5.35184e-06
-0.00530543
6.53566e-06
-0.00586607
7.74511e-06
-0.00642708
8.93442e-06
-0.00698904
1.00691e-05
-0.00755144
1.11013e-05
-0.00811486
1.19836e-05
-0.00867893
1.26769e-05
-0.00924398
1.30997e-05
-0.00981004
1.32459e-05
-0.0103768
1.29719e-05
-0.0109452
1.23507e-05
-0.0115136
1.10945e-05
-0.0120855
9.51709e-06
-0.0126544
6.96669e-06
-0.0132308
4.11141e-06
-0.000278875
-0.000836664
9.46228e-08
-0.00139452
3.77364e-07
-0.00195258
8.42055e-07
-0.00251074
1.47989e-06
-0.00306928
2.27477e-06
-0.00362798
3.21117e-06
-0.00418715
4.26201e-06
-0.0047467
5.40546e-06
-0.00530664
6.60282e-06
-0.00586726
7.82646e-06
-0.00642821
9.02914e-06
-0.00699007
1.01762e-05
-0.00755231
1.12176e-05
-0.00811555
1.21066e-05
-0.00867935
1.28013e-05
-0.00924413
1.32239e-05
-0.00980976
1.33634e-05
-0.0103762
1.3085e-05
-0.010944
1.24497e-05
-0.011512
1.11898e-05
-0.012083
9.56086e-06
-0.0126515
6.9571e-06
-0.0132267
4.0894e-06
-0.00027897
-0.000836947
9.52956e-08
-0.00139498
3.8006e-07
-0.00195322
8.48155e-07
-0.00251153
1.49084e-06
-0.00307021
2.29209e-06
-0.00362903
3.23651e-06
-0.00418829
4.29706e-06
-0.00474789
5.45207e-06
-0.00530786
6.66264e-06
-0.00586846
7.90107e-06
-0.00642936
9.11936e-06
-0.00699111
1.02823e-05
-0.0075532
1.13386e-05
-0.00811623
1.22408e-05
-0.00867977
1.2945e-05
-0.00924426
1.33746e-05
-0.00980948
1.35158e-05
-0.0103756
1.32397e-05
-0.0109427
1.25991e-05
-0.0115104
1.13415e-05
-0.0120804
9.68542e-06
-0.0126486
7.04926e-06
-0.0132226
4.18977e-06
-0.000279065
-0.000837231
9.55735e-08
-0.00139545
3.81171e-07
-0.00195386
8.50671e-07
-0.00251233
1.49538e-06
-0.00307116
2.29935e-06
-0.00363009
3.24734e-06
-0.00418945
4.31248e-06
-0.0047491
5.47336e-06
-0.00530909
6.69133e-06
-0.00586967
7.93892e-06
-0.00643052
9.1681e-06
-0.00699216
1.03434e-05
-0.00755409
1.14127e-05
-0.00811692
1.23275e-05
-0.0086802
1.30425e-05
-0.00924439
1.34803e-05
-0.0098092
1.36251e-05
-0.0103749
1.3351e-05
-0.0109414
1.27055e-05
-0.0115087
1.14462e-05
-0.0120777
9.7886e-06
-0.0126458
7.13309e-06
-0.0132184
4.3587e-06
-0.00027916
-0.000837516
9.53466e-08
-0.00139592
3.80262e-07
-0.0019545
8.48641e-07
-0.00251314
1.49184e-06
-0.0030721
2.29396e-06
-0.00363115
3.23993e-06
-0.0041906
4.30307e-06
-0.00475032
5.46234e-06
-0.00531034
6.67948e-06
-0.0058709
7.92766e-06
-0.00643169
9.15926e-06
-0.00699323
1.03391e-05
-0.007555
1.14153e-05
-0.00811763
1.23383e-05
-0.00868063
1.30618e-05
-0.00924453
1.35067e-05
-0.00980892
1.3655e-05
-0.0103743
1.33819e-05
-0.0109402
1.273e-05
-0.0115071
1.14729e-05
-0.0120751
9.81237e-06
-0.0126428
7.18574e-06
-0.0132142
3.94204e-06
-0.000279255
-0.000837801
9.46531e-08
-0.00139639
3.77493e-07
-0.00195515
8.42457e-07
-0.00251394
1.48098e-06
-0.00307305
2.27726e-06
-0.00363221
3.21638e-06
-0.00419176
4.27184e-06
-0.00475153
5.42301e-06
-0.00531158
6.63202e-06
-0.00587213
7.87287e-06
-0.00643287
9.09868e-06
-0.0069943
1.02752e-05
-0.00755592
1.13512e-05
-0.00811834
1.22774e-05
-0.00868108
1.30069e-05
-0.00924467
1.34595e-05
-0.00980864
1.36141e-05
-0.0103736
1.33454e-05
-0.0109389
1.26888e-05
-0.0115054
1.1432e-05
-0.0120724
9.75438e-06
-0.0126399
7.16393e-06
-0.0132099
3.9016e-06
-0.00027935
-0.000838084
9.35196e-08
-0.00139685
3.72981e-07
-0.00195578
8.32414e-07
-0.00251473
1.46341e-06
-0.00307398
2.25032e-06
-0.00363327
3.17847e-06
-0.00419291
4.22154e-06
-0.00475274
5.35928e-06
-0.00531282
6.55419e-06
-0.00587335
7.78107e-06
-0.00643404
8.99383e-06
-0.00699537
1.01594e-05
-0.00755684
1.12277e-05
-0.00811906
1.21508e-05
-0.00868153
1.28823e-05
-0.00924482
1.33421e-05
-0.00980836
1.35071e-05
-0.010373
1.32504e-05
-0.0109377
1.25995e-05
-0.0115037
1.13456e-05
-0.0120698
9.64764e-06
-0.012637
7.08591e-06
-0.0132057
4.20175e-06
-0.000279444
-0.000838363
9.19743e-08
-0.00139731
3.6684e-07
-0.00195642
8.18782e-07
-0.00251552
1.43964e-06
-0.00307491
2.21404e-06
-0.00363431
3.12767e-06
-0.00419404
4.15446e-06
-0.00475393
5.27457e-06
-0.00531404
6.45084e-06
-0.00587456
7.65875e-06
-0.00643521
8.85282e-06
-0.00699644
1.00012e-05
-0.00755776
1.10547e-05
-0.00811979
1.19677e-05
-0.00868199
1.26951e-05
-0.00924497
1.31586e-05
-0.0098081
1.33351e-05
-0.0103723
1.3097e-05
-0.0109364
1.24664e-05
-0.011502
1.12344e-05
-0.0120672
9.543e-06
-0.0126341
7.01597e-06
-0.0132015
4.16434e-06
-0.000279535
-0.000838638
9.0057e-08
-0.00139776
3.59228e-07
-0.00195704
8.01909e-07
-0.00251629
1.41027e-06
-0.00307582
2.16935e-06
-0.00363533
3.06531e-06
-0.00419516
4.07254e-06
-0.0047551
5.17168e-06
-0.00531525
6.32596e-06
-0.00587575
7.51149e-06
-0.00643635
8.68318e-06
-0.00699749
9.81005e-06
-0.00755867
1.08436e-05
-0.00812051
1.17405e-05
-0.00868245
1.24568e-05
-0.00924514
1.2918e-05
-0.00980785
1.31019e-05
-0.0103717
1.28831e-05
-0.0109352
1.22814e-05
-0.0115003
1.10878e-05
-0.0120647
9.43362e-06
-0.0126312
6.93557e-06
-0.0131973
4.11967e-06
-0.000279626
-0.000838907
8.78271e-08
-0.00139821
3.50375e-07
-0.00195764
7.82277e-07
-0.00251705
1.3761e-06
-0.00307672
2.11738e-06
-0.00363634
2.99291e-06
-0.00419626
3.97766e-06
-0.00475625
5.05298e-06
-0.00531643
6.18267e-06
-0.00587692
7.34353e-06
-0.00643748
8.49076e-06
-0.00699852
9.59402e-06
-0.00755956
1.06051e-05
-0.00812122
1.1482e-05
-0.00868291
1.21821e-05
-0.00924531
1.26343e-05
-0.00980763
1.28183e-05
-0.0103711
1.26134e-05
-0.010934
1.20411e-05
-0.0114987
1.08936e-05
-0.0120622
9.28956e-06
-0.0126284
6.85565e-06
-0.0131932
4.0649e-06
-0.000279713
-0.000839169
8.53589e-08
-0.00139864
3.4057e-07
-0.00195824
7.60507e-07
-0.00251779
1.33814e-06
-0.00307759
2.05956e-06
-0.00363732
2.91225e-06
-0.00419733
3.87192e-06
-0.00475738
4.92082e-06
-0.00531759
6.02358e-06
-0.00587807
7.15787e-06
-0.00643858
8.27939e-06
-0.00699952
9.35838e-06
-0.00756044
1.03466e-05
-0.00812191
1.12032e-05
-0.00868336
1.18849e-05
-0.00924549
1.23243e-05
-0.00980742
1.25013e-05
-0.0103705
1.23016e-05
-0.0109328
1.17512e-05
-0.0114971
1.06473e-05
-0.0120598
9.10759e-06
-0.0126256
6.77381e-06
-0.0131891
4.00524e-06
-0.000279799
-0.000839424
8.2736e-08
-0.00139906
3.30137e-07
-0.00195881
7.37298e-07
-0.00251851
1.29757e-06
-0.00307844
1.99756e-06
-0.00363828
2.82546e-06
-0.00419838
3.7578e-06
-0.00475848
4.77785e-06
-0.00531872
5.85134e-06
-0.00587918
6.95702e-06
-0.00643965
8.05146e-06
-0.00700051
9.10581e-06
-0.00756129
1.0072e-05
-0.00812259
1.09097e-05
-0.0086838
1.15749e-05
-0.00924565
1.20019e-05
-0.00980721
1.21694e-05
-0.0103699
1.19682e-05
-0.0109317
1.14277e-05
-0.0114955
1.03534e-05
-0.0120574
8.87285e-06
-0.0126228
6.64742e-06
-0.0131851
3.929e-06
-0.000279881
-0.000839672
8.00348e-08
-0.00139947
3.19379e-07
-0.00195937
7.13312e-07
-0.00251921
1.2555e-06
-0.00307927
1.93303e-06
-0.00363921
2.73476e-06
-0.00419939
3.63801e-06
-0.00475955
4.6271e-06
-0.00531983
5.66893e-06
-0.00588028
6.74363e-06
-0.00644071
7.80897e-06
-0.00700147
8.83745e-06
-0.00756212
9.78185e-06
-0.00812325
1.06025e-05
-0.00868422
1.12546e-05
-0.00924581
1.16733e-05
-0.00980701
1.18354e-05
-0.0103694
1.16332e-05
-0.0109307
1.10973e-05
-0.011494
1.00386e-05
-0.0120552
8.59012e-06
-0.01262
6.42084e-06
-0.0131812
3.81855e-06
-0.000279961
-0.000839911
7.73139e-08
-0.00139986
3.08527e-07
-0.00195992
6.89066e-07
-0.00251989
1.21285e-06
-0.00308007
1.86739e-06
-0.00364011
2.6421e-06
-0.00420038
3.51505e-06
-0.00476059
4.47154e-06
-0.0053209
5.47957e-06
-0.00588134
6.52076e-06
-0.00644173
7.5543e-06
-0.00700241
8.55444e-06
-0.00756294
9.47543e-06
-0.00812389
1.02789e-05
-0.00868464
1.092e-05
-0.00924597
1.1335e-05
-0.00980681
1.14993e-05
-0.0103688
1.1304e-05
-0.0109296
1.07793e-05
-0.0114926
9.73723e-06
-0.012053
8.31098e-06
-0.0126174
6.18875e-06
-0.0131774
3.67593e-06
-0.000280039
-0.000840142
7.46044e-08
-0.00140024
2.97709e-07
-0.00196044
6.64853e-07
-0.00252054
1.17017e-06
-0.00308084
1.80148e-06
-0.00364098
2.54876e-06
-0.00420134
3.39071e-06
-0.00476159
4.31349e-06
-0.00532194
5.28609e-06
-0.00588237
6.29143e-06
-0.00644273
7.29025e-06
-0.00700333
8.25867e-06
-0.00756374
9.15276e-06
-0.00812453
9.93611e-06
-0.00868505
1.0565e-05
-0.00924613
1.09772e-05
-0.00980662
1.11501e-05
-0.0103683
1.09709e-05
-0.0109286
1.04713e-05
-0.0114912
9.45653e-06
-0.0120509
8.05665e-06
-0.0126149
5.97223e-06
-0.0131737
3.49051e-06
-0.000280113
-0.000840365
7.19055e-08
-0.00140061
2.86924e-07
-0.00196094
6.40679e-07
-0.00252117
1.12747e-06
-0.00308159
1.73544e-06
-0.00364182
2.45504e-06
-0.00420226
3.26555e-06
-0.00476256
4.15385e-06
-0.00532294
5.08982e-06
-0.00588337
6.05744e-06
-0.0064437
7.01883e-06
-0.00700422
7.95191e-06
-0.00756452
8.81464e-06
-0.00812515
9.57272e-06
-0.00868546
1.01842e-05
-0.00924629
1.05896e-05
-0.00980644
1.07714e-05
-0.0103678
1.06128e-05
-0.0109276
1.01521e-05
-0.0114897
9.18226e-06
-0.0120488
7.83465e-06
-0.0126124
5.79208e-06
-0.0131702
3.31756e-06
-0.000280185
-0.00084058
6.91933e-08
-0.00140096
2.76079e-07
-0.00196143
6.16348e-07
-0.00252178
1.08445e-06
-0.00308231
1.66881e-06
-0.00364263
2.36037e-06
-0.00420314
3.13896e-06
-0.0047635
3.99209e-06
-0.00532391
4.89043e-06
-0.00588432
5.81881e-06
-0.00644463
6.74058e-06
-0.00700508
7.6351e-06
-0.00756528
8.46209e-06
-0.00812576
9.1889e-06
-0.00868586
9.77563e-06
-0.00924647
1.01656e-05
-0.00980629
1.03498e-05
-0.0103673
1.02069e-05
-0.0109266
9.78799e-06
-0.0114884
8.87205e-06
-0.0120467
7.60854e-06
-0.0126099
5.64602e-06
-0.0131669
3.2935e-06
-0.000280254
-0.000840786
6.64169e-08
-0.0014013
2.64973e-07
-0.0019619
5.91412e-07
-0.00252236
1.04031e-06
-0.003083
1.60042e-06
-0.0036434
2.26314e-06
-0.00420399
3.00891e-06
-0.0047644
3.82576e-06
-0.00532484
4.68514e-06
-0.00588524
5.57257e-06
-0.00644552
6.45273e-06
-0.0070059
7.30583e-06
-0.007566
8.0933e-06
-0.00812635
8.78331e-06
-0.00868624
9.33811e-06
-0.00924665
9.70292e-06
-0.00980614
9.87854e-06
-0.0103669
9.7395e-06
-0.0109257
9.35142e-06
-0.0114871
8.48e-06
-0.0120448
7.30546e-06
-0.0126076
5.43433e-06
-0.0131636
3.22791e-06
-0.000280321
-0.000840985
6.35052e-08
-0.00140163
2.53314e-07
-0.00196235
5.6522e-07
-0.00252292
9.93931e-07
-0.00308366
1.52852e-06
-0.00364415
2.16091e-06
-0.00420481
2.87211e-06
-0.00476525
3.65077e-06
-0.00532572
4.46889e-06
-0.00588612
5.31307e-06
-0.00644637
6.1487e-06
-0.00700669
6.95774e-06
-0.00756669
7.70138e-06
-0.0081269
8.35091e-06
-0.0086866
8.86625e-06
-0.00924682
9.19964e-06
-0.00980599
9.35233e-06
-0.0103665
9.20774e-06
-0.0109248
8.82634e-06
-0.011486
7.98679e-06
-0.0120429
6.87926e-06
-0.0126053
5.10058e-06
-0.0131604
3.04459e-06
-0.000280384
-0.000841174
6.07109e-08
-0.00140194
2.42104e-07
-0.00196277
5.40031e-07
-0.00252346
9.49343e-07
-0.00308429
1.45947e-06
-0.00364486
2.06288e-06
-0.00420559
2.74111e-06
-0.00476607
3.4836e-06
-0.00532656
4.26263e-06
-0.00588696
5.06639e-06
-0.00644718
5.86041e-06
-0.00700743
6.62941e-06
-0.00756733
7.33264e-06
-0.00812742
7.94702e-06
-0.00868694
8.42648e-06
-0.00924696
8.73455e-06
-0.00980583
8.86372e-06
-0.0103661
8.7175e-06
-0.010924
8.33081e-06
-0.0114849
7.52032e-06
-0.0120412
6.4564e-06
-0.0126033
4.76081e-06
-0.0131573
2.81699e-06
-0.000280444
-0.000841355
5.82412e-08
-0.00140223
2.32196e-07
-0.00196318
5.17779e-07
-0.00252397
9.10008e-07
-0.00308489
1.39871e-06
-0.00364554
1.9769e-06
-0.00420633
2.62676e-06
-0.00476685
3.3383e-06
-0.00532737
4.08459e-06
-0.00588775
4.85457e-06
-0.00644795
5.61559e-06
-0.00700813
6.35264e-06
-0.00756794
7.02703e-06
-0.0081279
7.61574e-06
-0.00868724
8.07601e-06
-0.00924708
8.36954e-06
-0.00980566
8.49592e-06
-0.0103657
8.35477e-06
-0.0109231
7.98347e-06
-0.0114838
7.19703e-06
-0.0120395
6.19754e-06
-0.0126013
4.56134e-06
-0.0131545
2.73981e-06
-0.000280502
-0.000841528
5.55638e-08
-0.00140252
2.2145e-07
-0.00196357
4.93664e-07
-0.00252445
8.67416e-07
-0.00308547
1.33298e-06
-0.00364618
1.88397e-06
-0.00420704
2.50322e-06
-0.00476759
3.18133e-06
-0.00532814
3.89224e-06
-0.00588851
4.62564e-06
-0.00644868
5.35087e-06
-0.0070088
6.05298e-06
-0.00756853
6.69583e-06
-0.00812837
7.25622e-06
-0.00868754
7.69677e-06
-0.0092472
7.97561e-06
-0.0098055
8.10054e-06
-0.0103653
7.96399e-06
-0.0109224
7.61048e-06
-0.0114828
6.84316e-06
-0.0120378
5.89674e-06
-0.0125995
4.31777e-06
-0.0131518
2.65862e-06
-0.000280558
-0.000841693
5.26504e-08
-0.00140279
2.09754e-07
-0.00196395
4.67446e-07
-0.00252492
8.21166e-07
-0.00308602
1.2617e-06
-0.0036468
1.78329e-06
-0.00420772
2.36947e-06
-0.0047683
3.01147e-06
-0.00532887
3.68425e-06
-0.00588923
4.37821e-06
-0.00644938
5.06476e-06
-0.00700944
5.72895e-06
-0.00756908
6.33724e-06
-0.00812881
6.86644e-06
-0.00868782
7.28576e-06
-0.00924732
7.54933e-06
-0.00980535
7.67272e-06
-0.010365
7.54141e-06
-0.0109216
7.21631e-06
-0.0114818
6.47321e-06
-0.0120362
5.57038e-06
-0.0125978
4.03447e-06
-0.0131491
2.45932e-06
-0.00028061
-0.00084185
4.94793e-08
-0.00140305
1.97023e-07
-0.0019643
4.38946e-07
-0.00252536
7.70956e-07
-0.00308654
1.1844e-06
-0.00364739
1.67423e-06
-0.00420836
2.22469e-06
-0.00476897
2.82778e-06
-0.00532956
3.45963e-06
-0.00588991
4.11127e-06
-0.00645005
4.75642e-06
-0.00701004
5.37976e-06
-0.00756961
5.95095e-06
-0.00812923
6.44593e-06
-0.00868809
6.84277e-06
-0.00924744
7.08881e-06
-0.00980522
7.20854e-06
-0.0103647
7.07891e-06
-0.0109209
6.79442e-06
-0.0114809
6.08894e-06
-0.0120347
5.25688e-06
-0.0125963
4.07929e-06
-0.0131466
2.29464e-06
-0.000280659
-0.000841997
4.60319e-08
-0.00140329
1.83185e-07
-0.00196463
4.08013e-07
-0.00252577
7.16527e-07
-0.00308703
1.10068e-06
-0.00364794
1.55619e-06
-0.00420896
2.06809e-06
-0.0047696
2.62923e-06
-0.00533021
3.21725e-06
-0.00589056
3.82357e-06
-0.00645067
4.42463e-06
-0.00701061
5.00423e-06
-0.0075701
5.5362e-06
-0.00812962
5.99416e-06
-0.00868834
6.368e-06
-0.00924756
6.59403e-06
-0.00980509
6.70835e-06
-0.0103644
6.57345e-06
-0.0109202
6.32522e-06
-0.0114801
5.66418e-06
-0.0120332
4.96832e-06
-0.0125948
3.63078e-06
-0.0131443
2.16543e-06
-0.000280705
-0.000842133
4.22998e-08
-0.00140351
1.68207e-07
-0.00196494
3.74565e-07
-0.00252616
6.57718e-07
-0.00308749
1.01026e-06
-0.00364845
1.42876e-06
-0.00420952
1.89903e-06
-0.00477019
2.41496e-06
-0.00533082
2.95609e-06
-0.00589116
3.51383e-06
-0.00645124
4.06808e-06
-0.00701114
4.60076e-06
-0.00757056
5.09178e-06
-0.00812999
5.50978e-06
-0.00868857
5.86068e-06
-0.00924768
6.06399e-06
-0.00980496
6.17747e-06
-0.0103641
6.03456e-06
-0.0109195
5.8144e-06
-0.0114794
5.17664e-06
-0.0120318
4.5985e-06
-0.0125933
3.32562e-06
-0.0131422
1.98786e-06
-0.000280747
-0.000842258
3.82909e-08
-0.00140372
1.52113e-07
-0.00196523
3.38626e-07
-0.00252651
5.94522e-07
-0.0030879
9.13085e-07
-0.00364891
1.29178e-06
-0.00421003
1.7173e-06
-0.00477073
2.1846e-06
-0.00533137
2.67558e-06
-0.00589171
3.18117e-06
-0.00645177
3.6857e-06
-0.00701163
4.16791e-06
-0.00757099
4.61673e-06
-0.00813033
4.99136e-06
-0.00868877
5.31926e-06
-0.00924779
5.49506e-06
-0.00980481
5.61629e-06
-0.0103639
5.47144e-06
-0.0109188
5.29812e-06
-0.0114788
5.07298e-06
-0.0120305
4.06815e-06
-0.012592
3.01585e-06
-0.0131402
1.7976e-06
-0.000280784
-0.000842371
3.40264e-08
-0.00140391
1.34978e-07
-0.00196548
3.0032e-07
-0.00252683
5.27115e-07
-0.00308828
8.09317e-07
-0.00364934
1.14547e-06
-0.0042105
1.52319e-06
-0.00477122
1.93844e-06
-0.00533188
2.37591e-06
-0.00589221
2.82527e-06
-0.00645225
3.27717e-06
-0.00701208
3.70475e-06
-0.00757137
4.11107e-06
-0.00813065
4.4384e-06
-0.00868894
4.745e-06
-0.00924791
4.88558e-06
-0.00980465
5.02084e-06
-0.0103637
4.87011e-06
-0.0109182
4.80884e-06
-0.0114782
4.34265e-06
-0.0120295
3.66492e-06
-0.0125908
2.72754e-06
-0.0131384
1.61694e-06
-0.000280818
-0.000842472
2.95166e-08
-0.00140407
1.16874e-07
-0.00196571
2.59801e-07
-0.00252711
4.55768e-07
-0.00308862
6.9934e-07
-0.00364971
9.90398e-07
-0.00421091
1.31755e-06
-0.00477166
1.67759e-06
-0.00533233
2.05822e-06
-0.00589266
2.44682e-06
-0.00645268
2.84348e-06
-0.00701249
3.21117e-06
-0.0075717
3.57705e-06
-0.00813095
3.85127e-06
-0.00868909
4.14453e-06
-0.00924804
4.24102e-06
-0.00980448
4.40298e-06
-0.0103637
4.6162e-06
-0.0109177
4.11652e-06
-0.0114776
3.74655e-06
-0.0120285
3.2046e-06
-0.0125897
2.39717e-06
-0.0131368
1.42007e-06
-0.000280847
-0.000842558
2.47179e-08
-0.00140421
9.78084e-08
-0.00196591
2.17222e-07
-0.00252736
3.80882e-07
-0.00308891
5.83896e-07
-0.00365004