/*--------------------------------*- C++ -*----------------------------------*\
  =========                 |
  \\      /  F ield         | OpenFOAM: The Open Source CFD Toolbox
   \\    /   O peration     | Website:  https://openfoam.org
    \\  /    A nd           | Version:  10
     \\/     M anipulation  |
\*---------------------------------------------------------------------------*/
FoamFile
{
    format      ascii;
    class       volScalarField;
    location    "0.19";
    object      rho;
}
// * * * * * * * * * * * * * * * * * * * * * * * * * * * * * * * * * * * * * //

dimensions      [1 -3 0 0 0 0 0];

internalField   nonuniform List<scalar> 
4176
(
0.0308502
0.0308532
0.0308594
0.0308697
0.0308829
0.0308992
0.0309202
0.0309415
0.0309709
0.030997
0.0310338
0.0310662
0.0311084
0.0311491
0.031194
0.0312454
0.0312886
0.0313564
0.0313948
0.0314803
0.0315124
0.0316173
0.0316377
0.0317521
0.030858
0.0308608
0.0308661
0.030876
0.0308871
0.0309027
0.0309206
0.0309411
0.0309663
0.0309911
0.0310233
0.0310536
0.0310912
0.0311283
0.0311694
0.0312154
0.0312554
0.0313157
0.0313512
0.0314278
0.0314553
0.0315552
0.0315761
0.0317051
0.0308773
0.0308802
0.0308858
0.0308959
0.0309076
0.0309236
0.0309423
0.0309633
0.0309898
0.0310153
0.0310491
0.03108
0.0311196
0.0311576
0.0312008
0.031248
0.0312905
0.0313533
0.0313889
0.0314692
0.031497
0.0315956
0.0316146
0.0317358
0.030906
0.0309088
0.0309142
0.030924
0.0309354
0.0309509
0.0309692
0.0309895
0.0310155
0.0310399
0.0310733
0.0311028
0.031142
0.0311783
0.0312212
0.0312666
0.0313087
0.0313716
0.0314026
0.0314852
0.0315106
0.0316079
0.0316258
0.0317381
0.0309454
0.0309482
0.0309536
0.0309635
0.0309747
0.0309904
0.0310085
0.0310291
0.0310547
0.0310795
0.0311125
0.0311424
0.0311813
0.0312178
0.0312608
0.0313056
0.0313496
0.0314094
0.0314441
0.0315246
0.0315516
0.0316485
0.0316679
0.0317817
0.0309948
0.0309976
0.0310029
0.0310127
0.0310237
0.0310393
0.031057
0.0310774
0.0311025
0.0311272
0.0311595
0.0311892
0.0312275
0.0312635
0.0313061
0.0313499
0.0313943
0.0314512
0.0314892
0.0315658
0.0315936
0.0316893
0.0317096
0.0318249
0.0310547
0.0310575
0.0310627
0.0310725
0.0310834
0.0310988
0.0311163
0.0311366
0.0311615
0.0311859
0.0312179
0.0312473
0.0312853
0.0313209
0.0313634
0.0314064
0.0314511
0.0315063
0.0315452
0.0316198
0.031649
0.0317431
0.0317637
0.031877
0.0311248
0.0311275
0.0311327
0.0311424
0.0311531
0.0311685
0.0311857
0.0312058
0.0312303
0.0312544
0.031286
0.0313151
0.0313526
0.0313876
0.0314298
0.0314719
0.0315166
0.03157
0.0316101
0.0316821
0.0317123
0.0318048
0.0318259
0.0319379
0.0312052
0.031208
0.0312131
0.0312227
0.0312333
0.0312485
0.0312655
0.0312853
0.0313095
0.0313334
0.0313646
0.0313932
0.0314304
0.0314648
0.0315067
0.0315479
0.0315926
0.0316443
0.0316852
0.0317549
0.0317861
0.0318766
0.0318982
0.0320083
0.031296
0.0312988
0.0313038
0.0313133
0.0313237
0.0313388
0.0313555
0.0313751
0.0313989
0.0314225
0.0314533
0.0314814
0.0315182
0.031552
0.0315935
0.0316338
0.0316784
0.0317284
0.03177
0.0318372
0.0318695
0.0319575
0.0319797
0.032088
0.0313972
0.0314
0.0314049
0.0314143
0.0314246
0.0314395
0.0314559
0.0314753
0.0314987
0.031522
0.0315523
0.03158
0.0316162
0.0316494
0.0316905
0.0317298
0.0317742
0.0318227
0.0318649
0.0319297
0.0319628
0.0320482
0.0320709
0.0321771
0.0315089
0.0315117
0.0315165
0.0315258
0.0315359
0.0315506
0.0315667
0.0315858
0.0316089
0.0316317
0.0316616
0.0316888
0.0317246
0.031757
0.0317976
0.031836
0.03188
0.0319271
0.0319696
0.032032
0.0320657
0.0321488
0.0321718
0.0322758
0.0316312
0.0316339
0.0316386
0.0316479
0.0316577
0.0316722
0.031688
0.0317068
0.0317295
0.0317519
0.0317813
0.031808
0.0318432
0.0318749
0.031915
0.0319523
0.031996
0.0320416
0.0320844
0.0321444
0.0321788
0.0322591
0.0322823
0.0323841
0.0317641
0.0317667
0.0317714
0.0317805
0.0317901
0.0318044
0.0318198
0.0318383
0.0318606
0.0318826
0.0319115
0.0319375
0.0319722
0.0320031
0.0320426
0.0320789
0.0321221
0.0321662
0.0322092
0.0322667
0.0323016
0.0323796
0.0324026
0.032502
0.0319076
0.0319103
0.0319148
0.0319238
0.0319331
0.0319472
0.0319623
0.0319805
0.0320022
0.0320238
0.0320521
0.0320775
0.0321116
0.0321417
0.0321806
0.0322159
0.0322585
0.0323011
0.032344
0.0323992
0.0324345
0.0325098
0.0325329
0.0326298
0.032062
0.0320646
0.032069
0.0320779
0.032087
0.0321008
0.0321155
0.0321333
0.0321545
0.0321755
0.0322033
0.0322281
0.0322614
0.0322907
0.032329
0.0323632
0.0324052
0.0324463
0.032489
0.0325418
0.0325775
0.0326498
0.0326735
0.0327675
0.0322272
0.0322299
0.0322341
0.0322428
0.0322517
0.0322652
0.0322795
0.0322969
0.0323176
0.0323381
0.0323651
0.0323892
0.0324219
0.0324503
0.0324878
0.0325209
0.0325623
0.0326019
0.0326442
0.0326946
0.0327307
0.0328001
0.032824
0.0329151
0.0324035
0.0324061
0.0324102
0.0324188
0.0324273
0.0324405
0.0324544
0.0324713
0.0324915
0.0325114
0.0325378
0.0325611
0.032593
0.0326205
0.0326572
0.0326891
0.0327298
0.0327678
0.0328098
0.0328577
0.0328941
0.0329605
0.0329848
0.0330728
0.0325908
0.0325934
0.0325974
0.0326057
0.032614
0.0326269
0.0326403
0.0326568
0.0326764
0.0326956
0.0327213
0.0327438
0.0327749
0.0328013
0.0328372
0.0328679
0.0329078
0.0329442
0.0329857
0.0330312
0.0330678
0.0331312
0.0331558
0.0332406
0.0327894
0.0327919
0.0327957
0.0328039
0.0328118
0.0328244
0.0328373
0.0328533
0.0328723
0.0328908
0.0329157
0.0329374
0.0329676
0.032993
0.033028
0.0330574
0.0330964
0.0331312
0.0331721
0.0332152
0.0332518
0.0333122
0.0333371
0.0334187
0.0329992
0.0330017
0.0330054
0.0330133
0.0330209
0.0330331
0.0330456
0.033061
0.0330793
0.0330971
0.0331212
0.0331421
0.0331714
0.0331957
0.0332296
0.0332577
0.0332957
0.0333289
0.033369
0.0334098
0.0334465
0.0335037
0.0335289
0.033607
0.0332205
0.0332229
0.0332264
0.0332342
0.0332414
0.0332532
0.0332651
0.0332799
0.0332975
0.0333146
0.0333379
0.0333578
0.0333862
0.0334093
0.0334423
0.033469
0.0335059
0.0335374
0.0335767
0.0336151
0.0336516
0.0337056
0.0337311
0.0338058
0.0334533
0.0334556
0.033459
0.0334665
0.0334733
0.0334847
0.033496
0.0335103
0.0335271
0.0335435
0.0335659
0.0335848
0.0336122
0.0336342
0.033666
0.0336913
0.0337271
0.0337568
0.0337952
0.0338313
0.0338675
0.0339182
0.0339438
0.034015
0.0336976
0.0337
0.0337031
0.0337104
0.0337168
0.0337277
0.0337384
0.0337521
0.0337682
0.0337837
0.0338052
0.0338231
0.0338494
0.0338702
0.0339009
0.0339248
0.0339595
0.0339874
0.0340247
0.0340585
0.0340944
0.0341416
0.0341672
0.0342348
0.0339537
0.033956
0.0339589
0.0339659
0.0339719
0.0339824
0.0339925
0.0340055
0.0340208
0.0340355
0.034056
0.0340729
0.0340981
0.0341177
0.0341472
0.0341696
0.034203
0.0342291
0.0342653
0.0342968
0.0343321
0.0343761
0.0344014
0.0344653
0.0342215
0.0342237
0.0342265
0.0342332
0.0342388
0.0342489
0.0342583
0.0342706
0.0342851
0.0342989
0.0343185
0.0343343
0.0343584
0.0343766
0.0344049
0.0344257
0.034458
0.0344822
0.0345172
0.0345463
0.0345811
0.0346215
0.0346467
0.0347069
0.0345012
0.0345034
0.0345059
0.0345124
0.0345175
0.0345271
0.0345359
0.0345476
0.0345612
0.0345741
0.0345926
0.0346073
0.0346302
0.0346471
0.0346741
0.0346934
0.0347243
0.0347467
0.0347805
0.0348072
0.034841
0.0348783
0.0349034
0.0349597
0.0347928
0.0347949
0.0347972
0.0348035
0.0348082
0.0348173
0.0348255
0.0348364
0.0348492
0.0348611
0.0348786
0.0348921
0.0349139
0.0349293
0.034955
0.0349728
0.0350023
0.0350228
0.0350553
0.0350796
0.0351126
0.0351461
0.0351715
0.0352235
0.0350964
0.0350985
0.0351006
0.0351066
0.0351108
0.0351195
0.035127
0.0351373
0.0351491
0.0351602
0.0351766
0.0351889
0.0352094
0.0352235
0.0352478
0.0352639
0.035292
0.0353105
0.0353417
0.0353636
0.0353956
0.0354256
0.0354508
0.0354987
0.0354121
0.0354142
0.0354161
0.0354218
0.0354256
0.0354338
0.0354406
0.0354502
0.0354612
0.0354713
0.0354866
0.0354978
0.0355171
0.0355296
0.0355526
0.035567
0.0355936
0.0356101
0.0356399
0.0356594
0.0356904
0.0357168
0.0357418
0.0357853
0.0357401
0.0357421
0.0357438
0.0357492
0.0357526
0.0357603
0.0357664
0.0357753
0.0357854
0.0357945
0.0358088
0.0358188
0.0358368
0.0358479
0.0358695
0.0358822
0.0359073
0.0359217
0.03595
0.0359671
0.0359969
0.03602
0.0360446
0.0360838
0.0360804
0.0360823
0.0360838
0.036089
0.0360919
0.036099
0.0361045
0.0361126
0.0361218
0.0361301
0.0361433
0.0361521
0.0361688
0.0361785
0.0361986
0.0362096
0.0362332
0.0362455
0.0362723
0.0362868
0.0363154
0.0363351
0.0363596
0.0363941
0.036433
0.0364349
0.0364362
0.0364411
0.0364435
0.0364502
0.036455
0.0364624
0.0364707
0.036478
0.0364901
0.0364977
0.0365132
0.0365214
0.0365402
0.0365494
0.0365715
0.0365816
0.0366069
0.0366189
0.036646
0.0366626
0.0366867
0.0367166
0.0367982
0.0368
0.0368011
0.0368057
0.0368076
0.0368138
0.0368179
0.0368246
0.036832
0.0368383
0.0368494
0.0368558
0.03687
0.0368768
0.0368942
0.0369016
0.0369222
0.0369302
0.036954
0.0369634
0.0369891
0.0370023
0.037026
0.0370513
0.0371758
0.0371776
0.0371785
0.0371828
0.0371843
0.0371901
0.0371935
0.0371994
0.0372059
0.0372113
0.0372212
0.0372264
0.0372394
0.0372447
0.0372607
0.0372664
0.0372856
0.0372915
0.0373137
0.0373206
0.0373447
0.0373546
0.0373778
0.0373983
0.0375661
0.0375679
0.0375685
0.0375726
0.0375737
0.037579
0.0375817
0.037587
0.0375926
0.037597
0.0376058
0.0376098
0.0376215
0.0376253
0.03764
0.0376439
0.0376616
0.0376653
0.0376861
0.0376905
0.0377131
0.0377198
0.0377419
0.0377578
0.0379692
0.0379709
0.0379714
0.0379752
0.0379758
0.0379807
0.0379827
0.0379873
0.037992
0.0379955
0.0380033
0.038006
0.0380165
0.0380188
0.038032
0.0380342
0.0380503
0.038052
0.0380713
0.0380731
0.0380943
0.038098
0.0381188
0.03813
0.0383851
0.0383868
0.0383871
0.0383907
0.0383909
0.0383952
0.0383966
0.0384005
0.0384044
0.0384069
0.0384136
0.0384152
0.0384244
0.0384252
0.038437
0.0384373
0.038452
0.0384515
0.0384693
0.0384686
0.0384885
0.0384889
0.0385088
0.0385151
0.0388141
0.0388157
0.0388157
0.0388191
0.0388189
0.0388228
0.0388235
0.0388268
0.0388298
0.0388314
0.038837
0.0388374
0.0388454
0.0388447
0.0388552
0.0388536
0.0388668
0.0388641
0.0388803
0.038877
0.0388954
0.0388928
0.0389117
0.0389134
0.0392561
0.0392577
0.0392575
0.0392607
0.03926
0.0392635
0.0392635
0.0392661
0.0392683
0.039269
0.0392736
0.0392728
0.0392796
0.0392774
0.0392865
0.0392831
0.0392948
0.0392898
0.0393045
0.0392985
0.0393156
0.0393096
0.0393275
0.039325
0.0397113
0.0397129
0.0397125
0.0397154
0.0397143
0.0397174
0.0397168
0.0397187
0.03972
0.0397198
0.0397234
0.0397214
0.039727
0.0397234
0.0397311
0.0397259
0.0397361
0.0397289
0.0397421
0.0397333
0.0397489
0.0397397
0.0397563
0.0397501
0.04018
0.0401815
0.0401809
0.0401836
0.040182
0.0401846
0.0401834
0.0401847
0.0401851
0.040184
0.0401865
0.0401834
0.0401877
0.0401827
0.040189
0.040182
0.0401909
0.0401814
0.0401932
0.0401815
0.040196
0.0401831
0.0401985
0.0401881
0.0406621
0.0406636
0.0406628
0.0406652
0.0406632
0.0406654
0.0406634
0.0406641
0.0406636
0.0406616
0.040663
0.0406588
0.0406619
0.0406554
0.0406604
0.0406515
0.0406591
0.0406473
0.0406579
0.0406433
0.0406566
0.0406402
0.0406546
0.0406395
0.0411577
0.0411592
0.0411582
0.0411604
0.041158
0.0411597
0.0411571
0.041157
0.0411557
0.0411528
0.0411531
0.0411477
0.0411496
0.0411416
0.0411453
0.0411346
0.0411408
0.0411266
0.0411361
0.0411186
0.0411309
0.0411108
0.0411244
0.0411048
0.0416671
0.0416685
0.0416674
0.0416693
0.0416664
0.0416677
0.0416644
0.0416636
0.0416614
0.0416576
0.0416569
0.0416502
0.0416509
0.0416414
0.0416439
0.0416312
0.0416361
0.0416197
0.041628
0.0416076
0.0416188
0.0415952
0.0416082
0.0415841
0.0421902
0.0421916
0.0421903
0.0421919
0.0421886
0.0421894
0.0421854
0.042184
0.0421808
0.0421761
0.0421743
0.0421665
0.042166
0.042155
0.0421561
0.0421416
0.0421451
0.0421263
0.0421334
0.0421102
0.0421205
0.042093
0.0421058
0.0420767
0.0427272
0.0427285
0.0427269
0.0427284
0.0427245
0.0427249
0.0427202
0.0427181
0.0427141
0.0427084
0.0427056
0.0426965
0.0426948
0.0426823
0.0426821
0.0426657
0.042668
0.0426468
0.0426527
0.0426264
0.0426359
0.0426044
0.0426176
0.042583
0.043278
0.0432793
0.0432775
0.0432787
0.0432744
0.0432743
0.0432689
0.0432661
0.0432612
0.0432546
0.0432507
0.0432404
0.0432374
0.0432234
0.0432219
0.0432037
0.0432046
0.043181
0.0431858
0.0431564
0.0431652
0.0431295
0.0431431
0.0431034
0.0438426
0.0438439
0.0438419
0.0438428
0.043838
0.0438375
0.0438314
0.043828
0.0438222
0.0438146
0.0438096
0.0437982
0.043794
0.0437784
0.0437756
0.0437555
0.0437553
0.0437292
0.0437329
0.0437001
0.0437087
0.0436684
0.0436825
0.0436378
0.044421
0.0444223
0.04442
0.0444208
0.0444155
0.0444146
0.0444078
0.0444037
0.044397
0.0443884
0.0443825
0.0443698
0.0443644
0.0443473
0.0443433
0.0443211
0.0443199
0.0442911
0.0442942
0.0442578
0.0442665
0.0442215
0.0442355
0.0441862
0.0450132
0.0450144
0.045012
0.0450125
0.0450068
0.0450054
0.044998
0.0449932
0.0449856
0.0449761
0.0449692
0.0449552
0.0449488
0.0449301
0.0449249
0.0449007
0.0448985
0.0448669
0.0448696
0.0448292
0.0448387
0.0447884
0.0448028
0.0447487
0.045619
0.0456202
0.0456176
0.0456179
0.0456117
0.04561
0.0456018
0.0455964
0.045588
0.0455776
0.0455697
0.0455545
0.045547
0.0455267
0.0455205
0.0454941
0.0454912
0.0454565
0.0454592
0.0454146
0.0454243
0.0453703
0.0453839
0.0453256
0.0462384
0.0462396
0.0462368
0.0462369
0.0462303
0.0462282
0.0462194
0.0462133
0.0462041
0.0461928
0.046184
0.0461674
0.0461591
0.046137
0.0461301
0.0461012
0.0460981
0.0460599
0.0460634
0.0460144
0.0460236
0.0459662
0.0459792
0.0459167
0.0468713
0.0468724
0.0468694
0.0468693
0.0468623
0.0468598
0.0468504
0.0468437
0.0468338
0.0468215
0.046812
0.046794
0.0467851
0.0467609
0.0467538
0.046722
0.0467191
0.0466771
0.0466809
0.0466285
0.0466371
0.0465764
0.0465886
0.0465221
0.0475174
0.0475185
0.0475153
0.047515
0.0475076
0.0475048
0.0474947
0.0474875
0.0474769
0.0474636
0.0474536
0.047434
0.0474249
0.0473982
0.0473917
0.0473564
0.0473542
0.0473089
0.0473115
0.0472571
0.0472644
0.0472008
0.0472123
0.0471418
0.0481764
0.0481776
0.0481742
0.0481738
0.0481659
0.0481629
0.0481523
0.0481445
0.0481334
0.0481189
0.0481088
0.0480871
0.0480786
0.0480489
0.0480432
0.0480046
0.0480019
0.0479547
0.0479565
0.0478997
0.0479056
0.0478394
0.04785
0.0477758
0.0488483
0.0488495
0.0488459
0.0488455
0.0488372
0.048834
0.0488227
0.0488143
0.0488031
0.0487871
0.0487774
0.0487533
0.0487454
0.0487134
0.0487071
0.0486672
0.0486634
0.0486147
0.0486147
0.0485562
0.0485611
0.0484921
0.048502
0.048424
0.0495328
0.0495341
0.0495301
0.04953
0.0495211
0.0495178
0.049506
0.0494969
0.0494858
0.0494683
0.0494586
0.0494335
0.0494245
0.0493919
0.0493843
0.0493434
0.0493381
0.0492881
0.0492869
0.0492266
0.0492301
0.0491588
0.0491679
0.0490865
0.0502297
0.0502311
0.0502268
0.0502269
0.0502172
0.0502143
0.0502017
0.0501925
0.0501807
0.0501629
0.0501523
0.0501266
0.0501167
0.0500833
0.0500748
0.0500327
0.0500265
0.0499749
0.0499726
0.0499106
0.0499131
0.0498394
0.0498477
0.049763
0.0509388
0.0509402
0.0509359
0.0509357
0.0509261
0.0509228
0.0509095
0.0509011
0.0508878
0.05087
0.0508587
0.0508323
0.0508216
0.0507877
0.050778
0.0507352
0.0507278
0.0506752
0.0506716
0.0506081
0.0506095
0.0505337
0.0505412
0.0504535
0.0516598
0.0516613
0.0516571
0.0516567
0.051647
0.0516435
0.0516299
0.0516216
0.0516068
0.05159
0.0515772
0.0515507
0.0515393
0.0515046
0.0514941
0.0514506
0.0514421
0.0513885
0.0513839
0.0513189
0.0513193
0.0512415
0.0512482
0.0511577
0.0523928
0.0523943
0.0523901
0.0523896
0.0523798
0.0523762
0.0523623
0.0523539
0.0523382
0.052322
0.0523075
0.0522818
0.0522692
0.052234
0.0522227
0.0521786
0.0521692
0.0521145
0.052109
0.0520426
0.052042
0.0519624
0.0519686
0.0518753
0.0531375
0.053139
0.0531347
0.0531343
0.0531243
0.0531207
0.0531065
0.0530982
0.0530818
0.0530659
0.0530501
0.0530251
0.0530108
0.0529759
0.0529637
0.0529189
0.0529086
0.0528532
0.0528467
0.052779
0.0527777
0.0526964
0.0527017
0.052606
0.0538938
0.0538954
0.0538911
0.0538907
0.0538806
0.053877
0.0538625
0.0538541
0.0538372
0.0538216
0.0538048
0.0537801
0.0537646
0.0537299
0.0537166
0.0536712
0.0536601
0.053604
0.0535966
0.0535279
0.0535255
0.0534428
0.0534476
0.0533496
0.0546619
0.0546635
0.0546592
0.0546588
0.0546485
0.0546449
0.0546302
0.0546218
0.0546044
0.0545889
0.0545712
0.0545468
0.0545301
0.0544956
0.0544814
0.0544352
0.0544234
0.0543665
0.0543584
0.0542886
0.0542856
0.0542015
0.0542054
0.0541056
0.0554416
0.0554433
0.0554389
0.0554385
0.0554281
0.0554245
0.0554094
0.055401
0.0553831
0.0553677
0.0553492
0.0553248
0.0553074
0.0552723
0.0552575
0.0552107
0.0551983
0.0551406
0.0551316
0.0550611
0.0550569
0.0549719
0.0549752
0.0548735
0.056233
0.0562348
0.0562303
0.05623
0.0562192
0.0562156
0.0562002
0.0561916
0.0561732
0.0561578
0.0561384
0.056114
0.0560955
0.0560604
0.0560446
0.0559975
0.0559843
0.0559255
0.0559161
0.0558446
0.0558398
0.0557536
0.0557562
0.055653
0.0570361
0.057038
0.0570332
0.057033
0.0570219
0.0570181
0.0570023
0.0569935
0.0569745
0.0569589
0.0569384
0.0569142
0.0568945
0.0568591
0.0568425
0.0567947
0.0567811
0.0567215
0.056711
0.056639
0.0566331
0.0565463
0.0565482
0.0564437
0.0578506
0.0578525
0.0578475
0.0578472
0.0578358
0.0578317
0.0578154
0.0578062
0.0577866
0.0577706
0.0577489
0.0577249
0.0577038
0.0576685
0.0576505
0.0576025
0.0575882
0.0575276
0.0575166
0.0574437
0.0574372
0.0573496
0.0573508
0.0572454
0.0586759
0.0586779
0.0586727
0.0586721
0.0586603
0.0586559
0.0586389
0.0586292
0.0586089
0.0585925
0.0585697
0.0585457
0.0585228
0.058488
0.0584684
0.0584203
0.0584051
0.058344
0.058332
0.0582586
0.0582513
0.0581634
0.0581639
0.0580576
0.059511
0.059513
0.0595077
0.0595068
0.0594947
0.0594897
0.0594723
0.059462
0.0594409
0.0594239
0.0594001
0.0593761
0.0593514
0.0593173
0.0592955
0.0592482
0.0592313
0.0591701
0.0591577
0.0590835
0.0590757
0.0589873
0.0589871
0.0588804
0.0603543
0.0603563
0.0603509
0.0603498
0.0603374
0.0603321
0.0603142
0.0603034
0.0602818
0.0602642
0.0602397
0.0602156
0.0601893
0.0601559
0.0601319
0.0600856
0.0600667
0.0600063
0.059993
0.0599186
0.05991
0.0598215
0.0598209
0.0597136
0.0612038
0.0612058
0.0612004
0.0611993
0.0611868
0.0611814
0.0611633
0.0611523
0.0611304
0.0611126
0.0610876
0.0610635
0.061036
0.0610035
0.0609772
0.0609329
0.0609114
0.0608525
0.0608378
0.0607636
0.0607546
0.060666
0.060665
0.0605577
0.0620571
0.0620592
0.0620541
0.0620531
0.0620409
0.0620357
0.062018
0.0620072
0.0619856
0.0619681
0.0619431
0.0619193
0.0618914
0.0618597
0.0618322
0.0617892
0.0617661
0.0617084
0.0616921
0.0616191
0.0616093
0.0615211
0.06152
0.0614127
0.0629125
0.0629147
0.06291
0.0629095
0.0628979
0.0628935
0.0628765
0.0628667
0.0628459
0.0628294
0.0628052
0.0627824
0.0627549
0.0627244
0.0626963
0.0626552
0.0626301
0.062575
0.0625567
0.0624852
0.0624751
0.0623871
0.0623859
0.0622791
0.063769
0.0637714
0.0637672
0.0637675
0.0637569
0.0637537
0.063738
0.0637297
0.0637105
0.0636956
0.063673
0.0636519
0.0636257
0.0635971
0.0635695
0.0635306
0.0635049
0.0634521
0.0634325
0.0633624
0.0633519
0.0632643
0.0632633
0.0631567
0.0646275
0.0646303
0.0646267
0.064628
0.0646184
0.0646168
0.0646027
0.0645963
0.0645791
0.0645664
0.0645459
0.0645273
0.0645032
0.064477
0.0644511
0.0644149
0.06439
0.0643398
0.0643203
0.0642514
0.0642411
0.0641532
0.0641524
0.0640458
0.0654914
0.0654944
0.0654913
0.0654936
0.0654851
0.0654849
0.0654724
0.065468
0.0654528
0.0654424
0.0654243
0.0654084
0.0653867
0.0653636
0.0653403
0.0653069
0.0652842
0.0652372
0.0652184
0.0651527
0.0651428
0.0650551
0.0650545
0.0649468
0.066366
0.0663697
0.0663666
0.0663699
0.0663617
0.066363
0.0663512
0.0663486
0.0663345
0.0663264
0.06631
0.0662966
0.066277
0.0662566
0.0662367
0.0662051
0.0661869
0.0661408
0.0661274
0.0660621
0.0660568
0.0659698
0.0659705
0.0658622
0.0672594
0.0672638
0.0672599
0.0672646
0.0672551
0.0672582
0.0672448
0.0672446
0.0672291
0.0672234
0.0672066
0.0671952
0.0671765
0.0671576
0.0671418
0.0671076
0.067099
0.0670475
0.0670445
0.0669767
0.0669783
0.0668938
0.0668982
0.0667954
0.0681809
0.0681847
0.0681816
0.0681844
0.068176
0.0681764
0.0681642
0.0681608
0.0681465
0.068138
0.0681217
0.0681092
0.0680898
0.0680727
0.0680541
0.0680229
0.068014
0.0679644
0.0679629
0.0678972
0.0679023
0.0678196
0.0678288
0.0677337
0.0691385
0.0691421
0.0691384
0.0691402
0.0691303
0.069129
0.0691146
0.0691089
0.0690921
0.0690809
0.0690618
0.0690465
0.0690244
0.0690055
0.0689821
0.0689542
0.0689375
0.0688919
0.0688881
0.0688221
0.0688291
0.0687447
0.0687573
0.0686625
0.070139
0.0701423
0.0701377
0.0701382
0.0701262
0.0701226
0.0701052
0.0700962
0.0700752
0.0700598
0.0700361
0.0700159
0.0699887
0.069965
0.0699357
0.0699045
0.0698811
0.0698346
0.0698253
0.069756
0.0697633
0.0696738
0.0696887
0.0695898
0.0711855
0.0711891
0.071183
0.0711826
0.0711681
0.0711622
0.071141
0.0711285
0.0711025
0.0710825
0.0710525
0.0710265
0.070992
0.0709615
0.0709239
0.0708858
0.070854
0.0708006
0.0707841
0.0707065
0.0707113
0.070613
0.0706286
0.0705213
0.0722783
0.0722824
0.0722745
0.0722737
0.0722565
0.072249
0.0722238
0.0722089
0.0721769
0.0721541
0.0721157
0.072086
0.0720416
0.0720044
0.0719575
0.0719096
0.0718695
0.0718003
0.0717778
0.0716859
0.0716833
0.0715717
0.0715849
0.0714638
0.073414
0.0734174
0.0734102
0.073407
0.0733898
0.073379
0.0733531
0.0733334
0.0733006
0.0732707
0.073231
0.0731924
0.0731446
0.0730986
0.0730429
0.072989
0.072931
0.0728576
0.0728172
0.0727123
0.0726953
0.072565
0.0725699
0.0724269
0.0745858
0.074589
0.0745818
0.074578
0.07456
0.0745483
0.0745209
0.0744997
0.0744647
0.0744325
0.0743898
0.0743478
0.0742959
0.0742449
0.0741835
0.0741227
0.0740537
0.0739794
0.0739111
0.0738087
0.0737651
0.0736172
0.0736056
0.0734294
0.0757859
0.075789
0.0757819
0.075778
0.0757597
0.0757479
0.07572
0.0756983
0.0756627
0.0756295
0.0755859
0.0755424
0.075489
0.0754359
0.0753721
0.0753082
0.075235
0.0751567
0.0750781
0.0749772
0.0749042
0.0747593
0.0747207
0.0745068
0.0770056
0.0770087
0.0770018
0.0769982
0.0769802
0.0769687
0.0769412
0.0769199
0.0768847
0.076852
0.0768088
0.0767658
0.0767129
0.0766601
0.0765967
0.0765332
0.0764603
0.0763822
0.0763029
0.0762039
0.0761246
0.075988
0.0759319
0.0757062
0.078236
0.0782395
0.0782328
0.0782299
0.0782124
0.0782018
0.078175
0.078155
0.0781208
0.0780896
0.0780477
0.0780066
0.0779553
0.0779048
0.0778435
0.0777826
0.0777122
0.0776373
0.0775631
0.0774651
0.0773978
0.0772595
0.07722
0.0770217
0.0794695
0.0794733
0.079467
0.0794648
0.079448
0.0794386
0.079413
0.0793945
0.0793619
0.0793327
0.0792929
0.0792542
0.0792056
0.079158
0.0791
0.0790427
0.0789762
0.0789059
0.078836
0.078744
0.0786822
0.0785518
0.0785152
0.0783314
0.0806988
0.0807029
0.080697
0.0806957
0.0806797
0.0806717
0.0806474
0.0806308
0.0805999
0.0805732
0.0805357
0.0805
0.0804542
0.0804103
0.0803557
0.0803027
0.0802403
0.0801753
0.0801105
0.0800247
0.0799676
0.0798469
0.0798126
0.0796426
0.0819178
0.0819224
0.0819167
0.0819165
0.0819012
0.0818949
0.0818718
0.0818574
0.0818283
0.0818044
0.0817691
0.081737
0.0816938
0.0816541
0.081603
0.0815546
0.0814967
0.0814374
0.0813766
0.0812975
0.0812458
0.0811346
0.0811024
0.0809463
0.0831217
0.0831268
0.0831209
0.0831224
0.0831072
0.0831032
0.0830806
0.0830693
0.083041
0.083021
0.0829869
0.0829597
0.082918
0.0828839
0.0828349
0.0827926
0.0827379
0.0826846
0.0826291
0.0825561
0.0825086
0.0824074
0.0823774
0.082235
0.0843061
0.0843115
0.0843057
0.0843085
0.0842937
0.0842918
0.0842698
0.0842616
0.0842341
0.0842183
0.0841848
0.084163
0.084122
0.0840946
0.0840464
0.0840118
0.083959
0.0839122
0.0838607
0.0837955
0.0837511
0.0836603
0.0836323
0.0835033
0.0854674
0.0854729
0.0854681
0.0854707
0.0854581
0.085456
0.0854373
0.085429
0.0854057
0.0853901
0.0853617
0.0853406
0.085305
0.0852794
0.0852365
0.0852052
0.0851571
0.0851165
0.0850683
0.0850099
0.0849697
0.0848886
0.0848627
0.0847466
0.086603
0.0866085
0.0866043
0.0866074
0.086596
0.0865948
0.0865781
0.0865709
0.0865506
0.0865361
0.0865117
0.0864919
0.0864614
0.0864372
0.0864001
0.0863712
0.0863287
0.0862926
0.0862475
0.0861988
0.0861607
0.086089
0.0860651
0.0859615
0.0877105
0.0877158
0.0877122
0.0877158
0.0877055
0.0877053
0.0876902
0.0876846
0.0876664
0.0876539
0.0876325
0.0876148
0.0875882
0.0875666
0.0875339
0.0875083
0.0874703
0.0874387
0.0873981
0.0873567
0.0873213
0.0872583
0.0872366
0.0871451
0.0887877
0.0887932
0.08879
0.0887941
0.0887847
0.0887856
0.0887719
0.0887678
0.0887517
0.0887411
0.0887224
0.0887071
0.0886837
0.0886649
0.0886362
0.088614
0.0885805
0.0885536
0.0885166
0.0884824
0.0884479
0.0883954
0.0883754
0.0882955
0.0898335
0.0898389
0.0898362
0.0898407
0.0898323
0.0898341
0.0898218
0.0898191
0.0898049
0.0897962
0.08978
0.0897669
0.0897467
0.0897307
0.0897057
0.0896867
0.0896573
0.0896343
0.0896024
0.089573
0.0895414
0.0894978
0.0894794
0.0894107
0.0908467
0.0908521
0.0908496
0.0908548
0.0908468
0.09085
0.0908385
0.0908376
0.0908249
0.0908182
0.0908041
0.0907934
0.0907759
0.0907626
0.090741
0.0907253
0.0906997
0.0906809
0.0906523
0.0906285
0.0905998
0.0905646
0.0905479
0.0904895
0.0918265
0.0918317
0.0918298
0.0918349
0.0918284
0.0918315
0.0918222
0.0918218
0.0918112
0.0918059
0.0917942
0.0917854
0.0917707
0.0917599
0.0917415
0.0917287
0.0917067
0.0916912
0.091667
0.0916474
0.0916228
0.0915949
0.0915792
0.0915306
0.0927723
0.0927776
0.0927754
0.092782
0.0927745
0.0927804
0.0927702
0.0927726
0.0927624
0.0927594
0.0927493
0.0927428
0.0927304
0.0927221
0.0927065
0.0926966
0.092678
0.0926663
0.0926453
0.09263
0.0926088
0.0925874
0.0925735
0.0925334
0.0936838
0.0936889
0.0936877
0.093693
0.0936885
0.0936924
0.093686
0.0936871
0.0936801
0.0936774
0.0936698
0.0936648
0.0936549
0.0936488
0.0936359
0.0936287
0.0936132
0.0936044
0.0935872
0.0935761
0.0935581
0.0935419
0.0935292
0.0934982
0.0945612
0.0945664
0.0945642
0.0945722
0.094565
0.0945733
0.0945639
0.0945695
0.0945611
0.0945617
0.0945547
0.094552
0.0945439
0.09454
0.0945296
0.0945249
0.0945123
0.0945067
0.0944923
0.0944846
0.0944702
0.0944587
0.0944476
0.0944247
0.0954042
0.0954089
0.0954089
0.0954133
0.0954118
0.0954147
0.0954123
0.0954134
0.0954104
0.0954095
0.0954057
0.0954037
0.0953979
0.0953958
0.0953878
0.0953854
0.0953753
0.0953724
0.0953609
0.0953569
0.0953449
0.0953376
0.0953291
0.0953132
0.0962135
0.0962187
0.0962163
0.0962258
0.0962179
0.0962293
0.0962196
0.0962288
0.0962212
0.0962253
0.0962206
0.0962214
0.0962168
0.0962167
0.0962108
0.0962104
0.0962029
0.0962026
0.0961937
0.0961925
0.0961836
0.0961802
0.0961734
0.0961642
0.0969893
0.0969931
0.096995
0.096997
0.0970002
0.0969997
0.0970032
0.0970021
0.0970041
0.0970034
0.0970035
0.0970038
0.0970017
0.0970029
0.0969991
0.0970006
0.0969953
0.0969974
0.0969907
0.0969929
0.096986
0.0969864
0.0969823
0.096978
0.097732
0.0977373
0.0977342
0.0977457
0.0977362
0.0977515
0.09774
0.0977535
0.0977455
0.0977534
0.09775
0.097754
0.0977522
0.0977554
0.0977531
0.0977565
0.0977532
0.0977574
0.0977533
0.0977576
0.0977535
0.0977572
0.0977547
0.0977554
0.0984427
0.0984457
0.0984496
0.0984488
0.0984569
0.0984522
0.0984619
0.0984575
0.098465
0.0984635
0.0984674
0.0984693
0.0984703
0.0984742
0.0984738
0.0984787
0.0984773
0.0984835
0.0984809
0.0984884
0.0984855
0.0984926
0.0984919
0.0984969
0.0991215
0.0991269
0.0991234
0.099136
0.0991258
0.0991434
0.0991311
0.0991476
0.0991394
0.0991504
0.0991479
0.0991548
0.0991551
0.099161
0.0991616
0.0991682
0.0991683
0.0991761
0.0991757
0.0991847
0.0991843
0.0991939
0.0991942
0.0992035
0.0997703
0.0997724
0.0997775
0.0997754
0.0997857
0.0997797
0.0997926
0.0997868
0.0997978
0.0997962
0.0998029
0.099806
0.0998096
0.0998157
0.0998179
0.0998256
0.0998272
0.0998368
0.0998373
0.0998489
0.0998493
0.0998615
0.0998633
0.0998761
0.100388
0.100393
0.100391
0.100402
0.100394
0.10041
0.100401
0.100416
0.10041
0.100422
0.100421
0.10043
0.100432
0.10044
0.100443
0.100452
0.100455
0.100466
0.100468
0.100481
0.100483
0.100497
0.1005
0.100516
0.100979
0.10098
0.100985
0.100984
0.100993
0.10099
0.101001
0.100998
0.101009
0.101009
0.101017
0.101022
0.101027
0.101035
0.101039
0.101049
0.101053
0.101065
0.101068
0.101083
0.101086
0.101102
0.101105
0.101124
0.10154
0.101544
0.101543
0.101551
0.101548
0.101559
0.101556
0.101567
0.101566
0.101576
0.101578
0.101587
0.101592
0.101601
0.101606
0.101617
0.101621
0.101634
0.101639
0.101655
0.101659
0.101677
0.101681
0.101702
0.102075
0.102077
0.102081
0.102082
0.102088
0.102089
0.102096
0.102098
0.102106
0.10211
0.102117
0.102124
0.10213
0.102139
0.102145
0.102157
0.102162
0.102177
0.102181
0.102199
0.102203
0.102223
0.102228
0.102251
0.102584
0.102587
0.102588
0.102594
0.102594
0.102601
0.102603
0.10261
0.102614
0.102621
0.102626
0.102635
0.102641
0.102651
0.102657
0.10267
0.102676
0.102691
0.102697
0.102715
0.102721
0.102742
0.102747
0.102771
0.103068
0.10307
0.103074
0.103075
0.103081
0.103083
0.103089
0.103093
0.103099
0.103106
0.103112
0.103121
0.103127
0.103138
0.103145
0.103158
0.103165
0.103181
0.103187
0.103206
0.103212
0.103234
0.103239
0.103266
0.103528
0.103531
0.103532
0.103537
0.103538
0.103545
0.103547
0.103555
0.103559
0.103567
0.103573
0.103582
0.103589
0.1036
0.103607
0.103621
0.103629
0.103645
0.103652
0.103672
0.103678
0.103702
0.103707
0.103735
0.103966
0.103967
0.103971
0.103972
0.103978
0.103979
0.103987
0.103991
0.103998
0.104005
0.104011
0.104021
0.104028
0.104039
0.104047
0.104061
0.104069
0.104086
0.104093
0.104113
0.104121
0.104145
0.104151
0.10418
0.104381
0.104383
0.104384
0.10439
0.10439
0.104399
0.104399
0.104409
0.104411
0.104421
0.104427
0.104437
0.104444
0.104456
0.104464
0.104478
0.104487
0.104504
0.104512
0.104533
0.10454
0.104565
0.104571
0.104602
0.104776
0.104777
0.10478
0.104781
0.104788
0.104788
0.104798
0.104799
0.104809
0.104814
0.104823
0.104831
0.10484
0.104852
0.10486
0.104875
0.104883
0.104901
0.104909
0.10493
0.104938
0.104964
0.10497
0.105001
0.10515
0.105152
0.105153
0.105158
0.105158
0.105167
0.105167
0.105178
0.10518
0.105191
0.105196
0.105207
0.105214
0.105227
0.105235
0.10525
0.105259
0.105277
0.105285
0.105307
0.105315
0.105341
0.105348
0.10538
0.105505
0.105506
0.10551
0.105511
0.105517
0.105518
0.105526
0.105529
0.105538
0.105544
0.105553
0.105562
0.10557
0.105582
0.105591
0.105606
0.105615
0.105633
0.105642
0.105664
0.105672
0.105699
0.105705
0.105738
0.105842
0.105844
0.105845
0.10585
0.105851
0.105858
0.10586
0.105869
0.105873
0.105883
0.105889
0.105899
0.105907
0.10592
0.105928
0.105944
0.105953
0.105971
0.10598
0.106002
0.10601
0.106037
0.106043