/*--------------------------------*- C++ -*----------------------------------*\
  =========                 |
  \\      /  F ield         | OpenFOAM: The Open Source CFD Toolbox
   \\    /   O peration     | Website:  https://openfoam.org
    \\  /    A nd           | Version:  10
     \\/     M anipulation  |
\*---------------------------------------------------------------------------*/
FoamFile
{
    format      ascii;
    class       volScalarField;
    location    "0.19";
    object      T;
}
// * * * * * * * * * * * * * * * * * * * * * * * * * * * * * * * * * * * * * //

dimensions      [0 0 0 1 0 0 0];

internalField   nonuniform List<scalar> 
4176
(
180.353
180.357
180.378
180.389
180.432
180.451
180.512
180.544
180.619
180.667
180.755
180.815
180.919
180.991
181.107
181.198
181.313
181.436
181.54
181.709
181.783
182.018
182.031
182.331
180.362
180.367
180.388
180.399
180.442
180.463
180.524
180.558
180.634
180.684
180.773
180.836
180.941
181.016
181.134
181.227
181.345
181.47
181.578
181.75
181.824
182.069
182.085
182.416
180.39
180.395
180.415
180.426
180.468
180.489
180.548
180.582
180.655
180.704
180.791
180.853
180.956
181.028
181.145
181.235
181.352
181.473
181.578
181.746
181.816
182.056
182.072
182.413
180.441
180.446
180.466
180.478
180.519
180.54
180.599
180.633
180.706
180.755
180.842
180.903
181.007
181.079
181.197
181.286
181.404
181.528
181.628
181.801
181.868
182.104
182.118
182.444
180.516
180.521
180.541
180.552
180.593
180.614
180.672
180.706
180.778
180.826
180.912
180.972
181.075
181.145
181.263
181.35
181.47
181.591
181.689
181.863
181.93
182.163
182.177
182.492
180.615
180.62
180.64
180.651
180.692
180.712
180.77
180.803
180.874
180.923
181.008
181.068
181.17
181.239
181.356
181.442
181.563
181.678
181.783
181.951
182.02
182.25
182.268
182.583
180.738
180.743
180.763
180.773
180.814
180.834
180.891
180.924
180.994
181.042
181.126
181.186
181.286
181.355
181.471
181.555
181.676
181.787
181.895
182.057
182.128
182.355
182.375
182.689
180.885
180.89
180.909
180.92
180.96
180.98
181.036
181.069
181.138
181.186
181.268
181.327
181.426
181.494
181.609
181.691
181.813
181.919
182.03
182.187
182.26
182.484
182.504
182.814
181.056
181.06
181.08
181.09
181.13
181.149
181.205
181.237
181.305
181.352
181.434
181.492
181.59
181.657
181.77
181.851
181.972
182.074
182.187
182.338
182.413
182.633
182.654
182.96
181.25
181.255
181.274
181.284
181.323
181.342
181.397
181.429
181.496
181.542
181.623
181.68
181.776
181.842
181.954
182.033
182.154
182.253
182.366
182.512
182.589
182.804
182.826
183.127
181.468
181.473
181.492
181.501
181.54
181.559
181.613
181.644
181.711
181.756
181.835
181.891
181.986
182.051
182.162
182.239
182.358
182.454
182.568
182.709
182.787
182.996
183.02
183.316
181.71
181.715
181.733
181.743
181.781
181.799
181.853
181.883
181.948
181.993
182.071
182.126
182.22
182.283
182.392
182.467
182.585
182.678
182.792
182.928
183.008
183.21
183.235
183.525
181.976
181.98
181.999
182.008
182.045
182.063
182.116
182.145
182.21
182.254
182.33
182.384
182.476
182.537
182.645
182.718
182.834
182.924
183.038
183.169
183.25
183.447
183.472
183.757
182.265
182.269
182.288
182.296
182.334
182.351
182.403
182.431
182.495
182.537
182.612
182.665
182.756
182.815
182.921
182.992
183.107
183.194
183.307
183.433
183.515
183.705
183.73
184.009
182.578
182.582
182.6
182.609
182.645
182.662
182.713
182.741
182.803
182.844
182.918
182.969
183.058
183.116
183.22
183.289
183.402
183.486
183.598
183.719
183.801
183.985
184.011
184.283
182.915
182.919
182.937
182.945
182.981
182.996
183.047
183.074
183.135
183.175
183.247
183.297
183.384
183.44
183.542
183.608
183.719
183.8
183.911
184.027
184.109
184.288
184.313
184.579
183.275
183.279
183.297
183.304
183.34
183.355
183.404
183.43
183.49
183.529
183.599
183.647
183.732
183.787
183.886
183.95
184.059
184.137
184.247
184.358
184.44
184.611
184.637
184.896
183.66
183.664
183.681
183.688
183.723
183.737
183.785
183.81
183.868
183.906
183.974
184.021
184.104
184.156
184.254
184.315
184.422
184.497
184.604
184.71
184.792
184.957
184.984
185.236
184.067
184.071
184.088
184.095
184.129
184.142
184.19
184.213
184.27
184.306
184.373
184.417
184.498
184.549
184.644
184.703
184.807
184.879
184.984
185.085
185.167
185.325
185.352
185.597
184.499
184.503
184.519
184.525
184.559
184.571
184.618
184.64
184.695
184.73
184.795
184.837
184.916
184.964
185.056
185.113
185.214
185.283
185.386
185.482
185.563
185.715
185.741
185.979
184.954
184.958
184.974
184.98
185.013
185.024
185.069
185.09
185.144
185.177
185.24
185.28
185.357
185.402
185.492
185.546
185.644
185.71
185.81
185.901
185.982
186.126
186.153
186.383
185.434
185.437
185.453
185.458
185.49
185.5
185.544
185.564
185.616
185.647
185.708
185.746
185.82
185.864
185.95
186.001
186.097
186.159
186.257
186.343
186.422
186.56
186.586
186.809
185.936
185.94
185.955
185.959
185.99
186
186.043
186.061
186.111
186.14
186.199
186.235
186.307
186.348
186.431
186.479
186.572
186.63
186.725
186.807
186.884
187.015
187.042
187.256
186.462
186.466
186.48
186.484
186.515
186.523
186.564
186.581
186.629
186.657
186.713
186.747
186.816
186.854
186.935
186.98
187.07
187.124
187.216
187.293
187.369
187.493
187.519
187.724
187.012
187.015
187.03
187.033
187.062
187.069
187.109
187.124
187.171
187.196
187.251
187.282
187.348
187.384
187.462
187.503
187.59
187.641
187.729
187.801
187.875
187.992
188.017
188.214
187.585
187.588
187.602
187.604
187.633
187.639
187.677
187.691
187.735
187.759
187.811
187.84
187.903
187.936
188.011
188.049
188.132
188.179
188.264
188.332
188.403
188.514
188.538
188.726
188.181
188.184
188.197
188.199
188.227
188.231
188.269
188.28
188.323
188.344
188.394
188.421
188.481
188.511
188.583
188.617
188.697
188.741
188.822
188.884
188.954
189.057
189.08
189.26
188.8
188.802
188.816
188.817
188.843
188.847
188.883
188.893
188.934
188.953
189
189.024
189.082
189.109
189.177
189.208
189.285
189.324
189.402
189.46
189.526
189.623
189.644
189.816
189.442
189.444
189.457
189.457
189.483
189.485
189.52
189.528
189.567
189.584
189.629
189.65
189.705
189.729
189.794
189.822
189.895
189.93
190.004
190.057
190.12
190.209
190.229
190.394
190.106
190.108
190.121
190.12
190.145
190.146
190.179
190.186
190.223
190.237
190.28
190.299
190.351
190.371
190.434
190.457
190.527
190.558
190.628
190.677
190.736
190.819
190.837
190.994
190.793
190.795
190.807
190.806
190.83
190.83
190.861
190.866
190.901
190.914
190.954
190.97
191.019
191.037
191.096
191.115
191.181
191.208
191.275
191.319
191.375
191.45
191.468
191.613
191.502
191.504
191.515
191.514
191.537
191.535
191.565
191.569
191.602
191.612
191.65
191.663
191.71
191.724
191.78
191.796
191.858
191.881
191.943
191.982
192.035
192.104
192.119
192.257
192.233
192.235
192.246
192.244
192.266
192.263
192.292
192.293
192.325
192.333
192.368
192.379
192.422
192.434
192.487
192.498
192.557
192.576
192.634
192.668
192.717
192.78
192.794
192.921
192.987
192.988
192.999
192.996
193.017
193.013
193.04
193.04
193.07
193.075
193.109
193.117
193.157
193.165
193.215
193.223
193.279
193.293
193.347
193.376
193.421
193.478
193.49
193.608
193.761
193.763
193.773
193.769
193.789
193.784
193.81
193.808
193.836
193.84
193.871
193.876
193.914
193.919
193.966
193.97
194.022
194.032
194.083
194.106
194.147
194.197
194.208
194.317
194.558
194.559
194.569
194.564
194.584
194.577
194.602
194.598
194.624
194.626
194.654
194.657
194.692
194.694
194.738
194.738
194.787
194.793
194.84
194.858
194.895
194.94
194.948
195.047
195.375
195.376
195.386
195.381
195.399
195.392
195.415
195.41
195.434
195.433
195.46
195.46
195.492
195.491
195.531
195.528
195.574
195.575
195.619
195.632
195.666
195.704
195.709
195.799
196.213
196.215
196.224
196.218
196.236
196.227
196.249
196.242
196.265
196.262
196.286
196.284
196.314
196.309
196.347
196.34
196.382
196.379
196.42
196.428
196.458
196.49
196.492
196.573
197.073
197.074
197.082
197.076
197.093
197.083
197.104
197.096
197.117
197.112
197.134
197.129
197.156
197.149
197.183
197.173
197.212
197.204
197.242
197.244
197.272
197.298
197.297
197.368
197.953
197.954
197.962
197.955
197.971
197.96
197.98
197.97
197.989
197.983
198.003
197.995
198.02
198.01
198.041
198.027
198.063
198.051
198.085
198.082
198.106
198.127
198.123
198.186
198.853
198.854
198.862
198.854
198.87
198.858
198.876
198.865
198.883
198.874
198.892
198.882
198.904
198.891
198.919
198.902
198.935
198.918
198.95
198.941
198.962
198.976
198.97
199.025
199.774
199.775
199.782
199.774
199.788
199.776
199.793
199.78
199.796
199.786
199.801
199.789
199.809
199.793
199.819
199.798
199.828
199.806
199.835
199.821
199.838
199.847
199.838
199.885
200.714
200.715
200.722
200.714
200.727
200.714
200.73
200.716
200.73
200.718
200.731
200.717
200.734
200.715
200.738
200.714
200.741
200.716
200.741
200.722
200.736
200.738
200.726
200.765
201.675
201.676
201.682
201.673
201.686
201.672
201.686
201.671
201.683
201.67
201.681
201.664
201.679
201.657
201.678
201.65
201.675
201.645
201.667
201.643
201.655
201.65
201.637
201.666
202.655
202.656
202.662
202.652
202.665
202.649
202.663
202.646
202.657
202.641
202.65
202.632
202.644
202.619
202.637
202.606
202.628
202.594
202.614
202.584
202.594
202.582
202.567
202.588
203.655
203.655
203.661
203.651
203.662
203.646
203.658
203.64
203.649
203.632
203.639
203.618
203.628
203.601
203.616
203.582
203.601
203.563
203.58
203.545
203.553
203.534
203.518
203.531
204.673
204.674
204.679
204.668
204.679
204.662
204.673
204.653
204.661
204.642
204.647
204.624
204.632
204.602
204.614
204.576
204.593
204.551
204.566
204.525
204.532
204.506
204.489
204.492
205.71
205.711
205.716
205.705
205.715
205.696
205.706
205.685
205.691
205.67
205.674
205.648
205.654
205.621
205.632
205.59
205.604
205.557
205.571
205.524
205.53
205.497
205.479
205.474
206.766
206.766
206.771
206.759
206.768
206.749
206.758
206.735
206.74
206.717
206.719
206.691
206.695
206.659
206.668
206.622
206.634
206.583
206.595
206.542
206.547
206.506
206.49
206.474
207.839
207.839
207.844
207.831
207.84
207.82
207.827
207.804
207.807
207.782
207.782
207.752
207.754
207.715
207.722
207.673
207.682
207.627
207.637
207.579
207.583
207.533
207.518
207.494
208.929
208.929
208.934
208.921
208.929
208.907
208.914
208.889
208.891
208.865
208.863
208.831
208.831
208.789
208.794
208.741
208.749
208.689
208.698
208.634
208.637
208.58
208.564
208.532
210.036
210.036
210.04
210.027
210.034
210.012
210.018
209.992
209.992
209.964
209.961
209.926
209.924
209.88
209.883
209.827
209.833
209.769
209.776
209.705
209.71
209.644
209.629
209.589
211.159
211.159
211.163
211.149
211.156
211.133
211.138
211.11
211.11
211.08
211.075
211.039
211.035
210.988
210.989
210.929
210.935
210.865
210.872
210.794
210.8
210.727
210.711
210.663
212.298
212.298
212.301
212.287
212.293
212.27
212.273
212.245
212.243
212.212
212.205
212.167
212.162
212.112
212.112
212.047
212.054
211.977
211.986
211.902
211.906
211.828
211.811
211.756
213.451
213.451
213.455
213.44
213.445
213.421
213.424
213.394
213.391
213.359
213.351
213.31
213.305
213.251
213.251
213.181
213.19
213.105
213.115
213.025
213.028
212.945
212.927
212.865
214.619
214.618
214.622
214.607
214.612
214.587
214.589
214.558
214.554
214.52
214.512
214.468
214.463
214.405
214.406
214.331
214.339
214.252
214.259
214.166
214.168
214.079
214.06
213.992
215.799
215.799
215.802
215.787
215.791
215.766
215.767
215.736
215.731
215.695
215.687
215.64
215.636
215.573
215.575
215.497
215.503
215.412
215.419
215.322
215.321
215.229
215.209
215.134
216.993
216.993
216.995
216.98
216.984
216.958
216.959
216.926
216.922
216.883
216.876
216.826
216.822
216.756
216.757
216.677
216.682
216.589
216.593
216.493
216.491
216.394
216.374
216.293
218.198
218.198
218.2
218.185
218.188
218.163
218.162
218.129
218.124
218.084
218.076
218.025
218.02
217.953
217.951
217.871
217.873
217.779
217.781
217.678
217.675
217.574
217.553
217.467
219.414
219.414
219.416
219.401
219.404
219.378
219.377
219.344
219.338
219.297
219.289
219.237
219.23
219.162
219.16
219.078
219.078
218.982
218.983
218.878
218.873
218.769
218.747
218.655
220.641
220.641
220.643
220.628
220.63
220.605
220.603
220.57
220.562
220.522
220.512
220.46
220.452
220.384
220.379
220.296
220.295
220.198
220.197
220.09
220.084
219.976
219.954
219.858
221.878
221.878
221.88
221.865
221.867
221.841
221.839
221.807
221.796
221.759
221.745
221.694
221.685
221.616
221.61
221.527
221.524
221.426
221.423
221.315
221.308
221.197
221.174
221.073
223.124
223.124
223.127
223.111
223.113
223.087
223.084
223.052
223.041
223.004
222.989
222.939
222.927
222.86
222.852
222.768
222.764
222.665
222.661
222.551
222.542
222.429
222.406
222.302
224.38
224.38
224.382
224.366
224.368
224.342
224.339
224.307
224.295
224.259
224.242
224.193
224.18
224.112
224.103
224.02
224.014
223.914
223.909
223.798
223.789
223.673
223.649
223.541
225.643
225.643
225.646
225.63
225.632
225.606
225.603
225.571
225.558
225.523
225.504
225.457
225.441
225.374
225.363
225.281
225.274
225.173
225.166
225.055
225.043
224.926
224.902
224.791
226.916
226.916
226.918
226.902
226.905
226.878
226.875
226.843
226.83
226.795
226.775
226.728
226.71
226.645
226.632
226.549
226.541
226.44
226.433
226.319
226.309
226.189
226.165
226.051
228.196
228.196
228.199
228.182
228.185
228.158
228.155
228.123
228.109
228.075
228.053
228.007
227.988
227.922
227.909
227.825
227.816
227.716
227.706
227.593
227.58
227.46
227.435
227.319
229.484
229.484
229.487
229.47
229.473
229.446
229.442
229.41
229.396
229.361
229.339
229.293
229.272
229.207
229.193
229.108
229.098
228.997
228.988
228.873
228.86
228.738
228.713
228.595
230.78
230.78
230.782
230.766
230.768
230.741
230.737
230.704
230.689
230.654
230.63
230.585
230.563
230.498
230.483
230.396
230.386
230.285
230.274
230.16
230.146
230.023
229.998
229.878
232.082
232.082
232.084
232.068
232.069
232.041
232.037
232.004
231.988
231.953
231.927
231.882
231.858
231.794
231.777
231.691
231.68
231.577
231.566
231.452
231.437
231.313
231.288
231.167
233.389
233.39
233.392
233.374
233.376
233.347
233.342
233.308
233.292
233.256
233.229
233.185
233.158
233.095
233.075
232.991
232.979
232.874
232.862
232.75
232.733
232.61
232.585
232.462
234.7
234.7
234.702
234.684
234.686
234.656
234.651
234.616
234.599
234.563
234.534
234.491
234.461
234.4
234.377
234.295
234.281
234.175
234.164
234.051
234.035
233.911
233.886
233.762
236.011
236.011
236.013
235.995
235.996
235.967
235.961
235.926
235.908
235.872
235.842
235.799
235.767
235.708
235.683
235.602
235.585
235.483
235.47
235.357
235.339
235.217
235.192
235.068
237.32
237.32
237.322
237.304
237.305
237.276
237.27
237.235
237.217
237.181
237.152
237.109
237.076
237.019
236.99
236.913
236.891
236.795
236.78
236.666
236.65
236.528
236.503
236.38
238.622
238.622
238.625
238.607
238.61
238.581
238.576
238.542
238.525
238.49
238.461
238.42
238.387
238.332
238.301
238.227
238.205
238.109
238.095
237.98
237.964
237.844
237.82
237.697
239.917
239.917
239.921
239.904
239.907
239.879
239.877
239.844
239.829
239.796
239.769
239.73
239.698
239.646
239.615
239.545
239.52
239.429
239.412
239.301
239.286
239.165
239.142
239.02
241.203
241.204
241.208
241.192
241.198
241.172
241.172
241.141
241.129
241.099
241.074
241.039
241.009
240.96
240.932
240.865
240.84
240.754
240.734
240.629
240.612
240.492
240.47
240.348
242.484
242.485
242.491
242.476
242.483
242.459
242.461
242.434
242.425
242.398
242.377
242.345
242.319
242.274
242.249
242.187
242.164
242.081
242.065
241.96
241.946
241.827
241.805
241.683
243.765
243.767
243.773
243.76
243.768
243.746
243.75
243.726
243.719
243.696
243.678
243.65
243.628
243.587
243.566
243.508
243.49
243.411
243.399
243.297
243.286
243.168
243.149
243.026
245.056
245.058
245.064
245.052
245.061
245.041
245.045
245.023
245.017
244.997
244.981
244.957
244.937
244.9
244.883
244.826
244.818
244.737
244.735
244.634
244.631
244.515
244.499
244.379
246.367
246.37
246.376
246.364
246.372
246.352
246.356
246.334
246.328
246.309
246.293
246.27
246.25
246.216
246.202
246.145
246.144
246.062
246.069
245.967
245.972
245.86
245.85
245.739
247.711
247.713
247.719
247.705
247.714
247.691
247.695
247.67
247.663
247.64
247.623
247.598
247.577
247.544
247.525
247.473
247.468
247.39
247.396
247.296
247.307
247.195
247.193
247.087
249.097
249.099
249.104
249.089
249.095
249.069
249.07
249.041
249.031
249.004
248.982
248.953
248.926
248.89
248.864
248.813
248.799
248.724
248.726
248.625
248.637
248.522
248.525
248.418
250.532
250.533
250.537
250.52
250.523
250.495
250.491
250.458
250.442
250.409
250.38
250.344
250.31
250.267
250.232
250.175
250.151
250.071
250.068
249.959
249.97
249.847
249.853
249.739
252.016
252.018
252.02
252.002
252.002
251.971
251.962
251.925
251.902
251.864
251.826
251.784
251.739
251.687
251.641
251.574
251.538
251.447
251.433
251.311
251.317
251.18
251.185
251.057
253.549
253.551
253.552
253.532
253.53
253.495
253.484
253.442
253.414
253.37
253.325
253.275
253.221
253.159
253.101
253.025
252.973
252.868
252.838
252.701
252.693
252.536
252.536
252.385
255.121
255.123
255.124
255.102
255.1
255.062
255.05
255.003
254.973
254.924
254.875
254.818
254.758
254.688
254.62
254.536
254.464
254.355
254.298
254.152
254.12
253.94
253.926
253.739
256.724
256.725
256.727
256.704
256.701
256.663
256.649
256.601
256.569
256.517
256.467
256.406
256.342
256.267
256.193
256.103
256.02
255.91
255.826
255.684
255.615
255.425
255.385
255.152
258.345
258.346
258.347
258.324
258.322
258.283
258.27
258.222
258.19
258.138
258.087
258.026
257.96
257.886
257.809
257.718
257.631
257.52
257.426
257.286
257.194
257.008
256.941
256.673
259.971
259.972
259.974
259.952
259.95
259.912
259.9
259.853
259.822
259.772
259.721
259.662
259.598
259.526
259.45
259.362
259.276
259.168
259.074
258.939
258.847
258.666
258.596
258.33
261.592
261.594
261.597
261.575
261.574
261.538
261.526
261.482
261.452
261.405
261.357
261.301
261.239
261.171
261.099
261.016
260.933
260.831
260.744
260.613
260.532
260.356
260.297
260.055
263.199
263.201
263.204
263.183
263.184
263.149
263.139
263.097
263.07
263.026
262.98
262.929
262.871
262.808
262.739
262.662
262.585
262.491
262.407
262.288
262.213
262.049
261.996
261.774
264.782
264.784
264.788
264.768
264.77
264.737
264.729
264.69
264.665
264.625
264.583
264.536
264.481
264.424
264.36
264.29
264.217
264.132
264.056
263.945
263.876
263.726
263.677
263.474
266.336
266.338
266.342
266.324
266.327
266.296
266.29
266.254
266.231
266.195
266.155
266.114
266.063
266.012
265.952
265.89
265.822
265.745
265.674
265.574
265.51
265.375
265.329
265.144
267.854
267.857
267.862
267.845
267.849
267.82
267.815
267.783
267.761
267.731
267.692
267.658
267.608
267.566
267.508
267.455
267.39
267.323
267.259
267.165
267.109
266.986
266.944
266.778
269.334
269.337
269.342
269.326
269.331
269.305
269.302
269.272
269.253
269.226
269.191
269.162
269.115
269.079
269.024
268.979
268.919
268.861
268.799
268.719
268.666
268.557
268.517
268.369
270.771
270.775
270.781
270.765
270.772
270.746
270.747
270.717
270.703
270.677
270.647
270.62
270.58
270.547
270.498
270.459
270.403
270.353
270.296
270.227
270.177
270.082
270.044
269.913
272.164
272.168
272.174
272.159
272.168
272.143
272.146
272.118
272.108
272.084
272.058
272.034
271.998
271.969
271.926
271.891
271.842
271.799
271.744
271.689
271.64
271.558
271.522
271.408
273.511
273.514
273.522
273.507
273.518
273.494
273.499
273.473
273.465
273.444
273.422
273.4
273.369
273.344
273.306
273.276
273.231
273.194
273.146
273.098
273.054
272.983
272.95
272.851
274.811
274.814
274.822
274.808
274.82
274.797
274.804
274.78
274.775
274.756
274.737
274.719
274.691
274.67
274.637
274.611
274.571
274.542
274.496
274.459
274.415
274.358
274.325
274.242
276.063
276.066
276.075
276.061
276.074
276.052
276.061
276.039
276.036
276.019
276.003
275.988
275.964
275.946
275.917
275.896
275.861
275.836
275.796
275.766
275.725
275.68
275.648
275.579
277.267
277.27
277.279
277.266
277.28
277.259
277.27
277.249
277.248
277.233
277.22
277.208
277.187
277.173
277.147
277.131
277.1
277.081
277.044
277.021
276.983
276.948
276.919
276.862
278.423
278.426
278.435
278.424
278.437
278.419
278.429
278.411
278.411
278.399
278.388
278.379
278.361
278.35
278.328
278.315
278.288
278.273
278.242
278.224
278.19
278.165
278.136
278.091
279.532
279.535
279.545
279.531
279.55
279.527
279.544
279.523
279.528
279.516
279.508
279.501
279.486
279.478
279.459
279.45
279.427
279.417
279.388
279.376
279.346
279.328
279.302
279.267
280.594
280.597
280.606
280.597
280.608
280.597
280.604
280.593
280.594
280.587
280.58
280.575
280.563
280.557
280.541
280.536
280.516
280.509
280.485
280.479
280.451
280.441
280.415
280.39
281.61
281.613
281.622
281.611
281.628
281.61
281.626
281.61
281.617
281.609
281.605
281.602
281.592
281.589
281.576
281.573
281.556
281.554
281.533
281.53
281.507
281.502
281.478
281.463
282.581
282.583
282.593
282.583
282.597
282.585
282.597
282.587
282.591
282.587
282.583
282.582
282.575
282.574
282.564
282.564
282.549
282.551
282.532
282.535
282.513
282.513
282.493
282.485
283.507
283.511
283.516
283.514
283.521
283.517
283.523
283.518
283.521
283.52
283.517
283.518
283.512
283.514
283.505
283.509
283.497
283.501
283.486
283.491
283.473
283.478
283.459
283.459
284.392
284.392
284.404
284.392
284.413
284.394
284.415
284.401
284.412
284.407
284.409
284.41
284.406
284.409
284.403
284.408
284.399
284.406
284.392
284.403
284.386
284.396
284.379
284.385
285.233
285.238
285.239
285.245
285.241
285.252
285.245
285.256
285.25
285.258
285.254
285.26
285.257
285.262
285.258
285.265
285.257
285.267
285.257
285.268
285.255
285.269
285.253
285.266
286.036
286.036
286.049
286.035
286.06
286.037
286.065
286.046
286.065
286.057
286.065
286.066
286.067
286.073
286.071
286.08
286.074
286.086
286.077
286.093
286.08
286.098
286.085
286.101
286.798
286.804
286.802
286.813
286.804
286.823
286.808
286.829
286.817
286.833
286.827
286.838
286.836
286.845
286.843
286.854
286.85
286.864
286.858
286.874
286.864
286.886
286.873
286.894
287.525
287.525
287.536
287.526
287.547
287.53
287.555
287.539
287.559
287.552
287.563
287.565
287.569
287.577
287.578
287.589
287.587
287.603
287.597
287.617
287.607
287.632
287.621
287.645
288.213
288.219
288.217
288.228
288.221
288.237
288.227
288.247
288.237
288.254
288.25
288.262
288.262
288.273
288.274
288.288
288.286
288.303
288.3
288.321
288.313
288.341
288.329
288.358
288.87
288.87
288.878
288.874
288.887
288.881
288.896
288.89
288.904
288.903
288.913
288.918
288.923
288.933
288.936
288.95
288.95
288.969
288.965
288.989
288.982
289.011
289.001
289.033
289.49
289.496
289.495
289.503
289.501
289.511
289.51
289.522
289.52
289.532
289.534
289.545
289.548
289.56
289.563
289.578
289.579
289.599
289.598
289.622
289.616
289.647
289.635
289.673
290.083
290.083
290.089
290.089
290.097
290.097
290.105
290.108
290.115
290.122
290.127
290.137
290.142
290.154
290.158
290.174
290.176
290.197
290.196
290.221
290.216
290.249
290.239
290.278
290.641
290.646
290.645
290.654
290.651
290.662
290.662
290.671
290.675
290.683
290.689
290.699
290.705
290.717
290.722
290.738
290.741
290.762
290.763
290.79
290.785
290.819
290.811
290.849
291.174
291.175
291.181
291.178
291.19
291.187
291.198
291.201
291.208
291.216
291.221
291.233
291.238
291.252
291.257
291.274
291.277
291.299
291.3
291.327
291.324
291.359
291.35
291.391
291.677
291.681
291.679
291.69
291.684
291.7
291.695
291.709
291.71
291.721
291.726
291.738
291.743
291.757
291.763
291.78
291.785
291.807
291.808
291.837
291.834
291.869
291.861
291.904
292.155
292.156
292.162
292.159
292.173
292.166
292.183
292.179
292.193
292.196
292.206
292.215
292.222
292.236
292.243
292.26
292.265
292.288
292.29
292.318
292.317
292.353
292.346
292.387
292.607
292.611
292.609
292.62
292.614
292.631
292.623
292.642
292.638
292.654
292.656
292.67
292.675
292.69
292.697
292.715
292.72
292.743
292.745
292.775
292.773
292.81
292.803
292.847
293.037
293.037
293.043
293.041
293.053
293.048
293.064
293.059
293.076
293.077
293.089
293.097
293.106
293.12
293.127
293.145
293.151
293.174
293.178
293.205
293.206
293.243
293.237
293.279
293.442
293.446
293.445
293.453
293.45
293.464
293.459
293.476
293.473
293.489
293.491
293.506
293.512
293.527
293.534
293.552
293.559
293.582
293.584
293.615
293.614
293.651
293.645
293.691
293.828
293.828
293.834
293.832
293.842
293.84
293.852
293.852
293.865
293.869
293.879
293.889
293.898
293.912
293.919
293.938
293.944
293.967
293.972
294
294.001
294.037
294.033
294.075
294.192
294.195
294.194
294.203
294.199
294.212
294.21
294.222
294.225
294.236
294.242
294.255
294.262
294.276
294.284
294.302
294.309
294.333
294.335
294.366
294.366
294.402
294.397
294.443
294.538
294.538
294.543
294.541
294.552
294.549
294.561
294.563
294.572
294.58
294.587
294.599
294.607
294.621
294.629
294.647
294.654
294.677
294.681
294.71
294.712
294.747
294.744
294.786
294.864
294.867
294.866
294.874
294.871
294.883
294.881
294.894
294.896
294.908
294.913
294.926
294.933
294.948
294.955
294.974
294.98
295.004
295.008
295.037
295.039
295.073
295.07
295.113
295.174
295.175
295.179
295.179
295.186
295.186
295.196
295.199
295.208
295.215
295.223
295.234
295.242
295.256
295.264
295.283
295.289
295.312
295.317
295.346
295.348
295.381
295.378
295.421
295.467
295.469
295.47
295.474
295.476
295.482
295.486
295.494
295.498
295.509
295.515
295.528
295.535
295.549
295.557
295.575
295.581
295.604
295.609
295.637
295.64
295.673
295.671
295.713
295.745
295.746
295.747
295.752
295.752
295.761
295.762
295.771
295.776
295.786
295.792
295.804
295.812
295.826
295.834
295.852
295.858
295.881
295.885
295.914
295.916
295.949
295.947
295.989
296.007
296.008
296.012
296.011
296.02
296.018
296.029
296.03
296.04
296.046
296.055
296.066
296.074
296.087
296.095
296.113
296.12
296.142
296.148
296.175
296.178
296.21
296.208
296.249
296.256
296.258
296.257
296.265
296.261
296.275
296.269
296.285
296.283
296.298
296.301
296.315
296.321
296.336
296.343
296.361
296.367
296.39
296.394
296.422
296.424
296.457
296.455
296.495
296.492
296.492
296.496
296.494
296.504
296.5
296.514
296.512
296.525
296.528
296.539
296.548
296.556
296.57
296.577
296.595
296.602
296.623
296.629
296.655
296.656
296.692
296.689
296.727
296.714
296.717
296.715
296.723
296.719
296.732
296.728
296.742
296.741
296.755
296.758
296.771
296.778
296.792
296.799
296.816
296.823
296.845
296.85
296.876
296.878
296.911
296.909
296.949
296.926
296.925
296.93
296.927
296.937
296.934
296.946
296.946
296.956
296.962
296.97
296.98
296.988
297.002
297.009
297.026
297.033
297.054
297.058
297.085
297.087
297.12
297.118
297.155
297.125
297.127
297.125
297.134
297.128
297.142
297.138
297.151
297.151
297.163
297.168
297.18
297.186
297.201
297.207
297.224
297.231
297.252
297.257
297.282
297.284
297.317
297.314
297.353
297.314
297.314
297.319
297.315
297.326
297.321
297.335
297.333
297.345
297.349
297.357
297.367
297.374
297.388
297.395
297.411
297.418
297.439
297.443
297.47
297.472
297.502
297.501
297.538
297.492
297.495
297.492
297.502
297.495
297.51
297.503
297.52
297.516
297.531
297.533
297.546
297.551
297.566
297.572
297.588
297.595
297.616
297.621
297.645
297.646
297.68
297.676
297.713
297.662
297.661
297.666
297.663
297.674
297.668
297.682
297.679
297.692
297.695
297.704
297.713
297.72
297.734
297.74
297.756
297.762
297.783
297.787
297.813
297.815
297.844
297.842
297.879
297.821
297.824
297.821
297.83
297.824
297.838
297.832
297.847
297.845
297.859
297.861
297.874
297.878
297.893
297.899
297.915
297.92
297.941
297.945
297.97
297.971
298.003
298
298.034
297.973
297.972
297.977
297.974
297.984
297.98
297.991
297.991
298.001
298.006
298.013
298.023
298.029
298.043
298.049
298.066
298.07
298.09
298.095
298.119
298.12
298.15
298.148
298.184
298.115
298.118
298.115
298.124
298.118
298.132
298.126
298.14
298.139
298.151
298.154
298.166
298.171
298.184
298.19
298.207
298.211
298.233
298.234
298.261
298.261
298.29
298.29
298.322
298.251
298.25
298.255
298.251
298.263
298.256
298.271
298.267
298.279
298.283
298.29
298.3
298.305
298.318
298.324
298.342
298.345
298.366
298.369
298.393
298.393
298.423
298.421
298.455
298.378
298.381
298.377
298.387
298.379
298.396
298.387
298.404
298.399
298.415
298.415
298.428
298.432
298.446
298.451
298.468
298.471
298.492
298.493
298.52
298.52
298.547
298.546
298.578
298.499
298.498
298.504
298.499
298.511
298.504
298.519
298.514
298.527
298.53
298.538
298.547
298.551
298.566
298.57
298.587
298.589
298.612
298.613
298.638
298.637
298.667
298.664
298.696
298.613
298.615
298.612
298.62
298.615
298.628
298.623
298.636
298.634
298.647
298.648
298.662
298.664
298.679
298.682
298.7
298.703
298.723
298.725
298.749
298.751
298.777
298.774
298.807
298.721
298.72
298.724
298.721
298.73
298.727
298.737
298.738
298.745
298.751
298.757
298.767
298.771
298.785
298.789
298.806
298.808
298.83
298.83
298.855
298.854
298.884
298.88
298.91
298.822
298.823
298.822
298.828
298.826
298.834
298.833
298.843
298.843
298.854
298.857
298.869
298.871
298.886
298.889
298.906
298.909
298.929
298.931
298.953
298.955
298.981
298.978
299.009
298.917
298.917
298.92
298.92
298.925
298.926
298.931
298.935
298.94
298.948
298.952
298.963
298.966
298.98
298.983
299
299.003
299.023
299.023
299.048
299.048
299.075
299.073
299.102
299.007
299.007
299.009
299.011
299.014
299.017
299.02
299.026
299.03
299.037
299.042
299.052
299.055
299.07
299.072
299.089
299.091
299.112
299.113
299.134
299.136
299.162
299.161
299.189
299.092
299.092
299.092
299.097
299.095
299.104
299.102
299.113
299.112
299.123
299.124
299.137
299.139
299.154
299.155
299.172
299.175
299.194
299.194
299.219
299.219
299.243
299.243
299.271
299.171
299.17
299.175
299.171
299.181
299.176
299.188
299.186
299.196
299.199
299.205
299.214
299.218
299.232
299.234
299.25
299.253
299.273
299.274
299.295
299.295
299.322
299.321
299.348
299.245
299.247
299.245
299.253
299.247
299.261
299.253
299.268
299.264
299.278
299.277
299.29
299.292
299.306
299.307
299.324
299.328
299.345
299.346
299.369
299.37
299.392
299.394
299.42
299.316
299.315
299.319
299.316
299.325
299.321
299.332
299.33
299.339
299.343
299.348
299.358
299.361
299.374
299.377
299.392
299.394
299.415
299.416
299.437
299.436
299.462
299.461