/*--------------------------------*- C++ -*----------------------------------*\
  =========                 |
  \\      /  F ield         | OpenFOAM: The Open Source CFD Toolbox
   \\    /   O peration     | Website:  https://openfoam.org
    \\  /    A nd           | Version:  10
     \\/     M anipulation  |
\*---------------------------------------------------------------------------*/
FoamFile
{
    format      ascii;
    class       volVectorField;
    location    "0.19";
    object      U;
}
// * * * * * * * * * * * * * * * * * * * * * * * * * * * * * * * * * * * * * //

dimensions      [0 1 -1 0 0 0 0];

internalField   nonuniform List<vector> 
4176
(
(497.483 -0.0145736 -3.17864e-09)
(497.469 0.0644801 1.0256e-09)
(497.444 0.000573133 -2.88471e-10)
(497.396 0.091449 4.939e-11)
(497.341 0.0499636 1.25604e-10)
(497.267 0.0908092 -2.34861e-10)
(497.175 0.124637 -3.84515e-10)
(497.083 0.0619236 -9.7787e-11)
(496.949 0.223863 1.51212e-10)
(496.844 0.00637265 2.29528e-10)
(496.667 0.342845 1.53968e-10)
(496.544 -0.0674442 2.75112e-10)
(496.333 0.468174 2.76783e-10)
(496.186 -0.1377 1.57977e-11)
(495.951 0.566074 -1.65301e-10)
(495.768 -0.133682 -1.49127e-10)
(495.531 0.526628 -2.24132e-10)
(495.281 0.0255564 -1.25582e-10)
(495.068 0.332833 2.17065e-10)
(494.725 0.32507 2.02094e-10)
(494.57 -0.0188974 -5.07952e-11)
(494.092 0.773587 -1.3875e-10)
(494.062 -0.518339 1.75423e-11)
(493.438 1.4446 8.15222e-11)
(497.465 0.00449675 -3.17796e-09)
(497.451 0.115297 1.0262e-09)
(497.425 0.0756199 -2.88887e-10)
(497.375 0.204352 4.87689e-11)
(497.32 0.185217 1.25764e-10)
(497.243 0.265529 -2.34753e-10)
(497.15 0.320549 -3.85563e-10)
(497.055 0.297019 -9.79279e-11)
(496.919 0.480828 1.51775e-10)
(496.809 0.299496 2.29797e-10)
(496.631 0.661355 1.53688e-10)
(496.503 0.28036 2.75362e-10)
(496.288 0.848742 2.75447e-10)
(496.137 0.260161 1.59068e-11)
(495.895 1.01076 -1.65192e-10)
(495.708 0.303987 -1.48824e-10)
(495.465 1.04039 -2.25464e-10)
(495.21 0.512622 -1.25682e-10)
(494.991 0.912392 2.16165e-10)
(494.641 0.85722 2.01758e-10)
(494.486 0.626405 -5.07769e-11)
(493.987 1.33287 -1.41144e-10)
(493.952 0.123271 1.83002e-11)
(493.264 1.99464 8.10721e-11)
(497.408 0.0228456 -3.18174e-09)
(497.394 0.161948 1.02551e-09)
(497.37 0.146794 -2.90726e-10)
(497.32 0.308686 4.99017e-11)
(497.267 0.31282 1.25608e-10)
(497.19 0.427716 -2.35718e-10)
(497.103 0.504677 -3.8338e-10)
(497.007 0.516254 -9.64676e-11)
(496.877 0.721554 1.53597e-10)
(496.767 0.574151 2.30143e-10)
(496.594 0.959131 1.52971e-10)
(496.469 0.607748 2.74962e-10)
(496.259 1.20453 2.77407e-10)
(496.111 0.635733 1.60845e-11)
(495.872 1.42697 -1.6552e-10)
(495.693 0.715736 -1.47867e-10)
(495.45 1.52091 -2.28444e-10)
(495.204 0.967879 -1.27376e-10)
(494.989 1.4552 2.16977e-10)
(494.648 1.34589 2.01464e-10)
(494.501 1.24565 -5.17725e-11)
(494.011 1.88406 -1.3862e-10)
(493.977 0.836853 1.85284e-11)
(493.266 2.61074 8.19591e-11)
(497.304 0.0415792 -3.18164e-09)
(497.29 0.209449 1.02914e-09)
(497.266 0.219288 -2.91716e-10)
(497.216 0.414996 5.31059e-11)
(497.164 0.442787 1.25047e-10)
(497.087 0.593069 -2.402e-10)
(496.999 0.69224 -3.83809e-10)
(496.903 0.739886 -9.93771e-11)
(496.773 0.966773 1.4669e-10)
(496.664 0.854456 2.33673e-10)
(496.49 1.26246 1.54108e-10)
(496.366 0.94209 2.73602e-10)
(496.153 1.56719 2.79287e-10)
(496.008 1.01992 1.46417e-11)
(495.766 1.85185 -1.72726e-10)
(495.588 1.13721 -1.49316e-10)
(495.342 2.01536 -2.26289e-10)
(495.092 1.42843 -1.27793e-10)
(494.886 2.00733 2.19396e-10)
(494.536 1.84277 2.0098e-10)
(494.394 1.85623 -5.46162e-11)
(493.911 2.42193 -1.39567e-10)
(493.882 1.52383 1.66864e-11)
(493.2 3.20744 7.23677e-11)
(497.153 0.05991 -3.18346e-09)
(497.139 0.255968 1.03538e-09)
(497.115 0.290206 -2.87931e-10)
(497.065 0.519175 5.32629e-11)
(497.014 0.569923 1.28524e-10)
(496.938 0.755232 -2.35021e-10)
(496.851 0.875718 -3.8625e-10)
(496.756 0.959433 -9.76116e-11)
(496.627 1.20665 1.51995e-10)
(496.52 1.12993 2.31658e-10)
(496.347 1.55925 1.54477e-10)
(496.225 1.27088 2.7687e-10)
(496.013 1.92246 2.76189e-10)
(495.872 1.39766 1.3748e-11)
(495.629 2.26957 -1.7088e-10)
(495.457 1.5519 -1.52063e-10)
(495.206 2.5107 -2.27625e-10)
(494.962 1.87162 -1.27055e-10)
(494.76 2.55237 2.14067e-10)
(494.407 2.34065 2.06866e-10)
(494.267 2.45074 -4.69515e-11)
(493.789 2.94778 -1.36714e-10)
(493.759 2.16639 2.02234e-11)
(493.098 3.76528 8.31232e-11)
(496.953 0.0782334 -3.19561e-09)
(496.939 0.302192 1.03293e-09)
(496.915 0.360971 -2.86381e-10)
(496.865 0.622769 4.8747e-11)
(496.815 0.696753 1.17596e-10)
(496.739 0.91654 -2.40158e-10)
(496.653 1.05876 -3.84301e-10)
(496.558 1.17793 -1.01894e-10)
(496.431 1.44596 1.52391e-10)
(496.323 1.40433 2.37114e-10)
(496.153 1.85516 1.54921e-10)
(496.031 1.59884 2.71503e-10)
(495.821 2.27611 2.73832e-10)
(495.68 1.7753 1.62427e-11)
(495.439 2.68399 -1.73996e-10)
(495.27 1.97085 -1.4971e-10)
(495.014 3.00134 -2.17363e-10)
(494.783 2.31451 -1.24243e-10)
(494.567 3.10189 2.24011e-10)
(494.225 2.83744 2.09114e-10)
(494.08 3.047 -5.12337e-11)
(493.607 3.47581 -1.4755e-10)
(493.572 2.81326 1.69329e-11)
(492.909 4.32218 8.32659e-11)
(496.704 0.0963799 -3.19505e-09)
(496.69 0.347753 1.02987e-09)
(496.667 0.430946 -3.02276e-10)
(496.618 0.724926 4.89486e-11)
(496.568 0.822128 1.32499e-10)
(496.492 1.07563 -2.3941e-10)
(496.408 1.2397 -3.96195e-10)
(496.313 1.39349 -9.77301e-11)
(496.188 1.68251 1.58755e-10)
(496.081 1.67523 2.32397e-10)
(495.912 2.14762 1.523e-10)
(495.791 1.923 2.829e-10)
(495.584 2.62537 2.89967e-10)
(495.444 2.1493 1.82306e-11)
(495.204 3.09233 -1.69664e-10)
(495.039 2.38815 -1.46648e-10)
(494.781 3.48095 -2.27103e-10)
(494.561 2.75919 -1.29962e-10)
(494.334 3.64931 2.18632e-10)
(494.006 3.32235 2.06762e-10)
(493.855 3.64213 -5.26913e-11)
(493.389 4.00338 -1.47765e-10)
(493.349 3.46986 1.91693e-11)
(492.688 4.88441 8.82436e-11)
(496.407 0.114389 -3.21e-09)
(496.393 0.39285 1.03988e-09)
(496.37 0.5003 -2.81898e-10)
(496.321 0.826065 5.2546e-11)
(496.272 0.946334 1.1991e-10)
(496.196 1.23312 -2.36599e-10)
(496.113 1.41889 -3.80223e-10)
(496.02 1.60689 -9.93768e-11)
(495.896 1.91673 1.40412e-10)
(495.79 1.94351 2.29939e-10)
(495.623 2.43715 1.63306e-10)
(495.503 2.24428 2.77591e-10)
(495.297 2.97103 2.64776e-10)
(495.16 2.52034 9.66281e-12)
(494.92 3.49617 -1.62713e-10)
(494.759 2.80295 -1.54963e-10)
(494.5 3.95317 -2.23766e-10)
(494.288 3.20147 -1.13472e-10)
(494.055 4.19205 2.22601e-10)
(493.739 3.80285 1.92178e-10)
(493.582 4.23536 -5.28828e-11)
(493.123 4.52607 -1.31765e-10)
(493.08 4.12119 1.65798e-11)
(492.427 5.43941 6.49617e-11)
(496.061 0.132218 -3.2209e-09)
(496.048 0.437392 1.026e-09)
(496.025 0.568872 -3.03762e-10)
(495.976 0.925976 4.04507e-11)
(495.928 1.06908 1.20046e-10)
(495.853 1.38868 -2.45049e-10)
(495.771 1.5959 -3.96068e-10)
(495.678 1.81765 -1.02931e-10)
(495.555 2.14802 1.46846e-10)
(495.451 2.2085 2.26912e-10)
(495.286 2.72301 1.51643e-10)
(495.167 2.56179 2.76429e-10)
(494.963 3.31223 2.73483e-10)
(494.829 2.88738 1.10279e-11)
(494.59 3.89458 -1.69503e-10)
(494.433 3.21392 -1.52101e-10)
(494.173 4.41692 -2.28341e-10)
(493.97 3.64079 -1.24624e-10)
(493.731 4.72798 2.1928e-10)
(493.427 4.27674 1.99182e-10)
(493.264 4.82599 -5.48911e-11)
(492.814 5.04398 -1.42969e-10)
(492.768 4.76815 1.82652e-11)
(492.123 5.98779 8.12526e-11)
(495.668 0.149863 -3.20357e-09)
(495.654 0.481389 1.05418e-09)
(495.632 0.636658 -2.84946e-10)
(495.583 1.02468 6.37448e-11)
(495.535 1.19037 1.38829e-10)
(495.461 1.54233 -2.28124e-10)
(495.38 1.77072 -3.79664e-10)
(495.288 2.02578 -8.59495e-11)
(495.167 2.37636 1.65138e-10)
(495.063 2.47018 2.43685e-10)
(494.9 3.00509 1.70084e-10)
(494.784 2.8754 2.92668e-10)
(494.582 3.64883 2.9238e-10)
(494.449 3.25017 2.37888e-11)
(494.213 4.28745 -1.55915e-10)
(494.059 3.62075 -1.41601e-10)
(493.799 4.87254 -2.14812e-10)
(493.604 4.07635 -1.13769e-10)
(493.361 5.2564 2.33278e-10)
(493.069 4.74442 2.10894e-10)
(492.9 5.41197 -4.28086e-11)
(492.461 5.55522 -1.3093e-10)
(492.41 5.40891 2.76484e-11)
(491.775 6.52782 9.0346e-11)
(495.225 0.167298 -3.22277e-09)
(495.211 0.524787 1.0426e-09)
(495.19 0.70356 -2.94542e-10)
(495.141 1.12207 5.63746e-11)
(495.094 1.31004 1.32267e-10)
(495.021 1.69392 -2.36301e-10)
(494.941 1.94317 -3.85291e-10)
(494.85 2.23107 -8.8065e-11)
(494.73 2.60149 1.63322e-10)
(494.628 2.72823 2.42037e-10)
(494.467 3.28307 1.70534e-10)
(494.352 3.18468 2.95546e-10)
(494.152 3.98038 2.95372e-10)
(494.023 3.60814 2.559e-11)
(493.788 4.67429 -1.51317e-10)
(493.638 4.02273 -1.35797e-10)
(493.379 5.3199 -2.07608e-10)
(493.191 4.50763 -1.07658e-10)
(492.944 5.77644 2.43847e-10)
(492.663 5.20544 2.21779e-10)
(492.489 5.99156 -5.45389e-11)
(492.062 6.05867 -1.64961e-10)
(492.007 6.0431 -1.61366e-12)
(491.383 7.05906 5.91476e-11)
(494.734 0.184499 -3.22942e-09)
(494.72 0.56754 1.04513e-09)
(494.699 0.769502 -2.97755e-10)
(494.651 1.21804 5.10544e-11)
(494.605 1.42798 1.27376e-10)
(494.532 1.84333 -2.42435e-10)
(494.454 2.11309 -3.93917e-10)
(494.364 2.4334 -9.83062e-11)
(494.246 2.82324 1.53395e-10)
(494.145 2.98252 2.3265e-10)
(493.986 3.55673 1.6018e-10)
(493.873 3.4894 2.86684e-10)
(493.675 4.30659 2.84759e-10)
(493.548 3.96089 1.59445e-11)
(493.315 5.05473 -1.65986e-10)
(493.17 4.41924 -1.49698e-10)
(492.912 5.75907 -2.24953e-10)
(492.73 4.93424 -1.21129e-10)
(492.481 6.28754 2.25518e-10)
(492.212 5.65989 2.03437e-10)
(492.032 6.56275 -4.96633e-11)
(491.618 6.55257 -1.35762e-10)
(491.559 6.67024 2.42952e-11)
(490.946 7.58094 8.55879e-11)
(494.194 0.201441 -3.23667e-09)
(494.181 0.609592 1.0445e-09)
(494.16 0.834383 -3.03948e-10)
(494.112 1.31247 4.52445e-11)
(494.067 1.54402 1.19259e-10)
(493.995 1.99036 -2.54951e-10)
(493.918 2.28028 -4.08975e-10)
(493.829 2.63255 -1.15168e-10)
(493.713 3.04139 1.36562e-10)
(493.613 3.23279 2.14021e-10)
(493.456 3.82582 1.34102e-10)
(493.346 3.78924 2.60934e-10)
(493.15 4.62714 2.5223e-10)
(493.026 4.30797 1.04919e-11)
(492.795 5.42832 -1.42198e-10)
(492.654 4.80961 -1.32587e-10)
(492.397 6.18988 -2.07141e-10)
(492.223 5.35581 -1.08843e-10)
(491.971 6.78899 2.38192e-10)
(491.713 6.10647 2.13897e-10)
(491.529 7.1253 -4.15345e-11)
(491.128 7.03665 -1.30698e-10)
(491.066 7.28861 2.95884e-11)
(490.465 8.09292 8.87009e-11)
(493.606 0.218097 -3.23591e-09)
(493.592 0.650888 1.06865e-09)
(493.571 0.898111 -3.05144e-10)
(493.525 1.40523 2.5791e-11)
(493.48 1.658 1.16461e-10)
(493.409 2.13485 -2.46304e-10)
(493.333 2.44451 -3.88527e-10)
(493.246 2.82828 -7.80593e-11)
(493.131 3.25568 1.56067e-10)
(493.034 3.47879 2.14694e-10)
(492.878 4.09009 1.47323e-10)
(492.77 4.08394 2.84785e-10)
(492.577 4.94176 2.94864e-10)
(492.456 4.64904 2.97494e-11)
(492.228 5.79469 -1.75436e-10)
(492.091 5.19332 -1.73726e-10)
(491.836 6.61195 -2.4378e-10)
(491.668 5.77175 -1.27576e-10)
(491.414 7.28034 2.32603e-10)
(491.168 6.54481 2.19723e-10)
(490.98 7.67846 -5.39375e-11)
(490.592 7.5098 -1.59663e-10)
(490.527 7.89691 1.27318e-11)
(489.939 8.59447 8.5912e-11)
(492.968 0.234444 -3.25793e-09)
(492.955 0.691379 1.02983e-09)
(492.934 0.960598 -2.96637e-10)
(492.888 1.49621 8.24973e-11)
(492.844 1.76976 1.4234e-10)
(492.774 2.27657 -2.43768e-10)
(492.7 2.60554 -4.0923e-10)
(492.614 3.02032 -1.24135e-10)
(492.501 3.46582 1.53524e-10)
(492.406 3.7202 2.57033e-10)
(492.253 4.34922 1.6833e-10)
(492.147 4.37318 2.79426e-10)
(491.956 5.25013 2.6085e-10)
(491.839 4.98375 8.20983e-12)
(491.613 6.15353 -1.51438e-10)
(491.481 5.56989 -1.44782e-10)
(491.227 7.02482 -2.33813e-10)
(491.066 6.18132 -1.39042e-10)
(490.812 7.76098 1.9212e-10)
(490.577 6.97461 1.90741e-10)
(490.385 8.22185 -4.10281e-11)
(490.01 7.97118 -1.35505e-10)
(489.942 8.4939 1.28827e-11)
(489.368 9.08504 6.05734e-11)
(492.281 0.250462 -3.24987e-09)
(492.268 0.731019 1.08094e-09)
(492.248 1.02176 -3.04018e-10)
(492.202 1.58529 2.28333e-11)
(492.16 1.87913 1.15169e-10)
(492.09 2.41535 -2.44678e-10)
(492.018 2.76313 -3.81975e-10)
(491.933 3.20838 -7.10076e-11)
(491.823 3.67147 1.57877e-10)
(491.729 3.95667 2.16544e-10)
(491.579 4.60285 1.54341e-10)
(491.475 4.65657 2.93717e-10)
(491.287 5.55192 3.0567e-10)
(491.173 5.31174 4.71066e-12)
(490.95 6.50451 -2.08001e-10)
(490.822 5.93891 -1.70364e-10)
(490.571 7.42812 -2.34427e-10)
(490.417 6.58372 -1.14223e-10)
(490.162 8.23015 2.48239e-10)
(489.939 7.39559 1.97389e-10)
(489.743 8.75481 -8.00404e-11)
(489.382 8.42049 -1.48833e-10)
(489.311 9.07897 2.62524e-11)
(488.751 9.56394 9.81219e-11)
(491.545 0.266129 -3.27175e-09)
(491.531 0.769761 1.04522e-09)
(491.512 1.08153 -3.22679e-10)
(491.467 1.67236 1.91231e-11)
(491.425 1.98595 1.26231e-10)
(491.357 2.55097 -2.18591e-10)
(491.286 2.91701 -3.79106e-10)
(491.203 3.39217 -8.96135e-11)
(491.095 3.87229 1.54993e-10)
(491.004 4.18781 2.28297e-10)
(490.856 4.85054 1.43418e-10)
(490.756 4.93368 2.62637e-10)
(490.57 5.84671 2.86685e-10)
(490.46 5.63259 3.53857e-11)
(490.239 6.84727 -1.57548e-10)
(490.117 6.29997 -1.47202e-10)
(489.868 7.82161 -2.31101e-10)
(489.72 6.97809 -1.30733e-10)
(489.466 8.68701 2.06255e-10)
(489.254 7.80741 1.74373e-10)
(489.055 9.27581 -9.17034e-11)
(488.709 8.85841 -1.45721e-10)
(488.633 9.65258 4.4176e-11)
(488.088 10.0299 9.48668e-11)
(490.758 0.281418 -3.27134e-09)
(490.745 0.80755 1.07178e-09)
(490.726 1.1398 -2.89492e-10)
(490.682 1.75729 7.4125e-11)
(490.642 2.09007 1.49806e-10)
(490.575 2.68325 -2.23585e-10)
(490.505 3.06695 -3.72239e-10)
(490.424 3.57139 -6.55626e-11)
(490.318 4.06792 1.95912e-10)
(490.229 4.41322 2.40738e-10)
(490.084 5.09187 1.27688e-10)
(489.987 5.20401 2.59717e-10)
(489.805 6.134 2.54349e-10)
(489.698 5.94579 -1.63714e-11)
(489.481 7.18139 -1.99845e-10)
(489.363 6.65266 -1.72692e-10)
(489.117 8.20504 -2.4846e-10)
(488.976 7.3637 -1.34275e-10)
(488.723 9.13093 2.19633e-10)
(488.523 8.20979 2.02938e-10)
(488.32 9.78442 -4.82276e-11)
(487.989 9.28448 -1.31525e-10)
(487.909 10.2139 3.30443e-11)
(487.38 10.4823 9.89118e-11)
(489.922 0.296302 -3.28552e-09)
(489.909 0.844324 1.06062e-09)
(489.891 1.19647 -3.10682e-10)
(489.847 1.83994 4.7994e-11)
(489.808 2.1913 1.17347e-10)
(489.743 2.81196 -2.67449e-10)
(489.675 3.21269 -4.19077e-10)
(489.596 3.74575 -1.15753e-10)
(489.492 4.25803 1.37826e-10)
(489.406 4.63252 2.16971e-10)
(489.264 5.3264 1.41005e-10)
(489.17 5.46709 2.64685e-10)
(488.991 6.41329 2.50669e-10)
(488.888 6.25078 -2.45862e-11)
(488.675 7.50634 -2.18132e-10)
(488.562 6.99642 -1.95883e-10)
(488.319 8.57796 -2.36158e-10)
(488.185 7.74003 -9.34676e-11)
(487.933 9.56143 2.59839e-10)
(487.744 8.60231 2.29423e-10)
(487.539 10.2802 -2.74887e-11)
(487.223 9.69839 -1.20428e-10)
(487.139 10.7623 4.12642e-11)
(486.626 10.9208 1.03145e-10)
(489.036 0.310746 -3.31094e-09)
(489.023 0.880003 1.07426e-09)
(489.005 1.25143 -2.8225e-10)
(488.963 1.92016 5.30442e-11)
(488.925 2.28945 1.43424e-10)
(488.861 2.93688 -2.18849e-10)
(488.795 3.35397 -3.98422e-10)
(488.718 3.91498 -1.20038e-10)
(488.617 4.4423 1.56213e-10)
(488.533 4.84534 2.56555e-10)
(488.394 5.55371 1.55051e-10)
(488.304 5.72244 2.95165e-10)
(488.128 6.68405 3.01256e-10)
(488.03 6.54697 -4.60022e-12)
(487.82 7.82154 -1.73308e-10)
(487.713 7.33061 -1.36533e-10)
(487.473 8.93982 -2.41489e-10)
(487.346 8.10653 -1.56e-10)
(487.096 9.97814 2.10602e-10)
(486.918 8.98457 2.02646e-10)
(486.711 10.7625 -8.09157e-11)
(486.41 10.0998 -1.48655e-10)
(486.321 11.2972 2.88723e-11)
(485.826 11.3449 6.6531e-11)
(488.099 0.32471 -3.29954e-09)
(488.087 0.914498 1.0885e-09)
(488.069 1.30452 -2.8341e-10)
(488.028 1.99775 8.76832e-11)
(487.991 2.38429 1.61967e-10)
(487.929 3.05776 -2.57636e-10)
(487.865 3.4905 -4.45447e-10)
(487.79 4.07876 -1.29188e-10)
(487.692 4.62039 1.38439e-10)
(487.611 5.05134 2.25958e-10)
(487.475 5.77341 1.55654e-10)
(487.388 5.96963 2.91801e-10)
(487.217 6.9458 2.92644e-10)
(487.123 6.83382 2.07373e-11)
(486.917 8.1264 -1.55116e-10)
(486.815 7.65457 -1.32765e-10)
(486.579 9.29005 -2.03822e-10)
(486.459 8.46251 -1.31555e-10)
(486.211 10.3807 1.82871e-10)
(486.045 9.35619 1.70478e-10)
(485.835 11.2307 -8.13289e-11)
(485.55 10.4884 -1.61528e-10)
(485.458 11.8181 2.43402e-12)
(484.98 11.7543 7.53707e-11)
(487.112 0.338154 -3.32791e-09)
(487.099 0.947718 1.04387e-09)
(487.083 1.3556 -3.07774e-10)
(487.042 2.07252 8.81798e-11)
(487.007 2.47557 1.38896e-10)
(486.946 3.17431 -2.58763e-10)
(486.885 3.62199 -4.23003e-10)
(486.812 4.23679 -8.57215e-11)
(486.716 4.79198 2.021e-10)
(486.639 5.25016 2.64661e-10)
(486.507 5.98514 1.70939e-10)
(486.423 6.20825 2.79139e-10)
(486.256 7.1981 2.49117e-10)
(486.167 7.1108 -2.13654e-12)
(485.965 8.42037 -1.60832e-10)
(485.869 7.96763 -1.55101e-10)
(485.637 9.628 -2.49421e-10)
(485.524 8.80715 -1.53202e-10)
(485.28 10.7687 2.28491e-10)
(485.124 9.71681 2.26265e-10)
(484.913 11.6839 -4.77142e-11)
(484.644 10.8637 -1.53307e-10)
(484.547 12.3245 -1.13754e-11)
(484.087 12.1484 8.01263e-11)
(486.074 0.35104 -3.34124e-09)
(486.061 0.979578 1.04794e-09)
(486.046 1.40454 -3.09073e-10)
(486.006 2.14427 9.39624e-11)
(485.972 2.56306 1.49264e-10)
(485.913 3.28627 -2.54526e-10)
(485.854 3.74812 -4.24342e-10)
(485.784 4.38871 -1.3577e-10)
(485.691 4.9567 1.53013e-10)
(485.617 5.44145 2.70627e-10)
(485.488 6.18852 1.81782e-10)
(485.409 6.43793 2.89885e-10)
(485.246 7.44055 2.60131e-10)
(485.161 7.37747 6.71326e-12)
(484.964 8.70296 -1.51195e-10)
(484.874 8.2692 -1.5099e-10)
(484.647 9.95302 -2.44993e-10)
(484.541 9.13959 -1.44382e-10)
(484.3 11.1419 2.3968e-10)
(484.155 10.066 2.35722e-10)
(483.943 12.1212 -3.78797e-11)
(483.69 11.2252 -1.44786e-10)
(483.59 12.8157 3.37253e-12)
(483.149 12.527 5.29573e-11)
(484.985 0.363338 -3.35983e-09)
(484.972 1.01 1.09233e-09)
(484.958 1.4512 -2.85032e-10)
(484.919 2.21285 5.06046e-11)
(484.887 2.64654 9.38931e-11)
(484.829 3.39337 -2.71758e-10)
(484.773 3.86858 -4.00029e-10)
(484.705 4.53421 -1.20029e-10)
(484.616 5.11419 1.58996e-10)
(484.545 5.62484 2.61587e-10)
(484.42 6.38317 1.56369e-10)
(484.345 6.65829 3.06025e-10)
(484.186 7.67276 3.1926e-10)
(484.107 7.63344 1.40758e-12)
(483.914 8.97374 -2.21345e-10)
(483.83 8.55877 -1.75318e-10)
(483.607 10.2646 -2.29631e-10)
(483.51 9.45914 -1.39848e-10)
(483.272 11.4997 2.35219e-10)
(483.138 10.4033 2.22498e-10)
(482.926 12.5416 -6.44883e-11)
(482.689 11.572 -1.31225e-10)
(482.585 13.2908 5.43764e-11)
(482.163 12.8895 8.64904e-11)
(483.844 0.375024 -3.34028e-09)
(483.832 1.03895 1.12028e-09)
(483.818 1.49552 -2.70749e-10)
(483.781 2.27812 6.21346e-11)
(483.75 2.72584 9.94684e-11)
(483.695 3.49538 -2.73232e-10)
(483.641 3.9831 -4.06691e-10)
(483.576 4.67295 -7.672e-11)
(483.49 5.26409 1.97655e-10)
(483.422 5.79993 2.41818e-10)
(483.302 6.56868 1.29879e-10)
(483.231 6.86891 2.76286e-10)
(483.076 7.89432 2.81895e-10)
(483.002 7.8783 1.09804e-11)
(482.815 9.23232 -1.61583e-10)
(482.737 8.83593 -1.26483e-10)
(482.519 10.5623 -2.41265e-10)
(482.429 9.76526 -1.59276e-10)
(482.196 11.8416 2.08478e-10)
(482.073 10.7278 1.94485e-10)
(481.861 12.9446 -4.85331e-11)
(481.64 11.9034 -1.21928e-10)
(481.533 13.7486 5.99929e-11)
(481.131 13.2353 8.67673e-11)
(482.653 0.386085 -3.34689e-09)
(482.641 1.06637 1.09396e-09)
(482.628 1.53741 -3.31258e-10)
(482.591 2.33999 7.42555e-11)
(482.563 2.80083 1.26757e-10)
(482.509 3.59213 -2.80271e-10)
(482.458 4.09144 -3.91665e-10)
(482.396 4.80465 -9.87239e-11)
(482.313 5.40605 1.37764e-10)
(482.249 5.96635 2.59383e-10)
(482.133 6.74463 1.69739e-10)
(482.066 7.06939 2.77559e-10)
(481.917 8.10481 3.0534e-10)
(481.848 8.11165 1.56821e-13)
(481.665 9.4783 -2.13877e-10)
(481.594 9.10028 -1.5752e-10)
(481.381 10.8457 -2.53226e-10)
(481.299 10.0575 -1.49463e-10)
(481.071 12.1671 2.38259e-10)
(480.958 11.0389 1.90058e-10)
(480.747 13.3294 -8.86511e-11)
(480.543 12.2184 -1.42106e-10)
(480.434 14.1876 2.33426e-13)
(480.052 13.5638 5.17938e-11)
(481.411 0.396508 -3.41596e-09)
(481.399 1.09225 1.07313e-09)
(481.386 1.57685 -3.32714e-10)
(481.351 2.39839 4.49177e-11)
(481.324 2.8714 1.27387e-10)
(481.273 3.68349 -2.58426e-10)
(481.224 4.19342 -4.04335e-10)
(481.165 4.92908 -8.13104e-11)
(481.086 5.53979 1.84431e-10)
(481.025 6.12375 2.71881e-10)
(480.913 6.91062 2.05225e-10)
(480.852 7.2593 2.84351e-10)
(480.707 8.30378 2.77198e-10)
(480.644 8.33306 -5.85043e-12)
(480.466 9.71127 -1.91617e-10)
(480.401 9.35142 -1.63259e-10)
(480.194 11.1145 -2.36431e-10)
(480.12 10.3353 -1.13469e-10)
(479.896 12.4759 2.51224e-10)
(479.794 11.3359 2.20955e-10)
(479.585 13.6954 -8.92133e-11)
(479.397 12.517 -1.67947e-10)
(479.286 14.6075 6.59248e-13)
(478.924 13.8748 6.77113e-11)
(480.117 0.406285 -3.38694e-09)
(480.105 1.11655 1.13027e-09)
(480.094 1.61379 -2.77113e-10)
(480.059 2.45327 5.76694e-11)
(480.034 2.93748 9.35733e-11)
(479.985 3.76935 -2.89799e-10)
(479.939 4.28892 -4.23091e-10)
(479.882 5.04607 -8.71917e-11)
(479.807 5.66507 1.8544e-10)
(479.751 6.27185 2.84739e-10)
(479.643 7.06632 1.70757e-10)
(479.586 7.43823 2.6282e-10)
(479.446 8.49079 2.66147e-10)
(479.389 8.54205 -1.19045e-11)
(479.217 9.93079 -1.86753e-10)
(479.159 9.5889 -1.47562e-10)
(478.957 11.3683 -2.07185e-10)
(478.892 10.5984 -7.63337e-11)
(478.672 12.7678 2.4065e-10)
(478.581 11.6179 1.69273e-10)
(478.374 14.0414 -7.76072e-11)
(478.204 12.7994 -1.47407e-10)
(478.089 15.009 3.60049e-11)
(477.747 14.1685 1.15931e-10)
(478.772 0.415402 -3.38634e-09)
(478.76 1.13926 1.10229e-09)
(478.749 1.64819 -3.54189e-10)
(478.716 2.50457 5.15661e-11)
(478.693 2.99901 1.64577e-10)
(478.646 3.84964 -2.5408e-10)
(478.602 4.37784 -4.36569e-10)
(478.549 5.1555 -8.70354e-11)
(478.478 5.78175 1.50586e-10)
(478.425 6.41046 2.08652e-10)
(478.322 7.21146 1.71585e-10)
(478.27 7.60587 3.34064e-10)
(478.135 8.66544 2.91727e-10)
(478.084 8.73818 -2.385e-11)
(477.917 10.1364 -1.8168e-10)
(477.866 9.81225 -1.25723e-10)
(477.67 11.6067 -2.32626e-10)
(477.613 10.8463 -1.41857e-10)
(477.399 13.0424 2.54676e-10)
(477.318 11.8841 1.96567e-10)
(477.114 14.3663 -9.67557e-11)
(476.961 13.0655 -1.53184e-10)
(476.843 15.3908 4.82448e-11)
(476.523 14.4433 8.91456e-11)
(477.375 0.423844 -3.45925e-09)
(477.364 1.16034 1.07985e-09)
(477.354 1.67999 -3.43542e-10)
(477.322 2.55222 3.89702e-11)
(477.3 3.05591 1.17116e-10)
(477.255 3.92427 -2.80625e-10)
(477.215 4.46008 -4.26154e-10)
(477.164 5.25727 -9.93492e-11)
(477.097 5.88971 1.64054e-10)
(477.048 6.53944 2.46283e-10)
(476.949 7.34585 1.78613e-10)
(476.902 7.76198 3.17618e-10)
(476.773 8.82742 3.05475e-10)
(476.727 8.92108 1.06672e-11)
(476.567 10.3275 -1.76295e-10)
(476.523 10.021 -1.49045e-10)
(476.333 11.8292 -2.26831e-10)
(476.284 11.0786 -1.08247e-10)
(476.076 13.2995 2.62631e-10)
(476.005 12.1342 2.30251e-10)
(475.805 14.6696 -2.74933e-11)
(475.669 13.314 -1.75665e-10)
(475.549 15.7532 -1.35746e-11)
(475.249 14.7003 6.1587e-11)
(475.927 0.431594 -3.3973e-09)
(475.916 1.17975 1.14808e-09)
(475.907 1.70915 -3.02766e-10)
(475.876 2.59615 7.90141e-11)
(475.856 3.10808 1.48377e-10)
(475.813 3.99315 -2.56188e-10)
(475.776 4.53555 -4.09111e-10)
(475.728 5.35131 -8.64985e-11)
(475.664 5.98888 1.71581e-10)
(475.619 6.65872 2.4751e-10)
(475.525 7.46939 1.73127e-10)
(475.483 7.90645 3.00672e-10)
(475.359 8.9765 2.81004e-10)
(475.32 9.09046 -1.38494e-11)
(475.166 10.5039 -2.16023e-10)
(475.129 10.2146 -1.96531e-10)
(474.945 12.0352 -2.79837e-10)
(474.905 11.2946 -9.67379e-11)
(474.702 13.5385 2.64533e-10)
(474.643 12.3678 2.19863e-10)
(474.446 14.9509 -4.04779e-11)
(474.326 13.545 -1.37006e-10)
(474.204 16.0943 2.47364e-11)
(473.927 14.938 9.03459e-11)
(474.427 0.438638 -3.42807e-09)
(474.416 1.19746 1.12489e-09)
(474.408 1.73561 -3.41586e-10)
(474.378 2.63629 7.92866e-11)
(474.361 3.15546 1.36539e-10)
(474.32 4.05619 -2.8414e-10)
(474.285 4.60417 -3.98063e-10)
(474.241 5.43753 -9.27269e-11)
(474.18 6.07916 1.53454e-10)
(474.14 6.76823 2.74367e-10)
(474.05 7.58202 1.8048e-10)
(474.013 8.03922 2.95884e-10)
(473.894 9.11261 3.211e-10)
(473.861 9.24622 4.07824e-12)
(473.713 10.6653 -2.10762e-10)
(473.683 10.3927 -1.49267e-10)
(473.506 12.2243 -2.47767e-10)
(473.475 11.4939 -1.43609e-10)
(473.278 13.759 2.66172e-10)
(473.229 12.5842 2.08974e-10)
(473.038 15.2106 -8.06777e-11)
(472.933 13.759 -1.25867e-10)
(472.809 16.4126 2.53988e-11)
(472.555 15.1547 6.78114e-11)
(472.875 0.444968 -3.49314e-09)
(472.865 1.21345 1.12973e-09)
(472.857 1.75935 -3.05192e-10)
(472.829 2.6726 3.88305e-11)
(472.813 3.198 1.43455e-10)
(472.775 4.11332 -2.38389e-10)
(472.743 4.66586 -4.38419e-10)
(472.702 5.51583 -8.60068e-11)
(472.645 6.16047 2.00267e-10)
(472.608 6.86792 2.36755e-10)
(472.523 7.68369 1.87862e-10)
(472.491 8.16026 3.4832e-10)
(472.378 9.2357 2.89158e-10)
(472.351 9.38831 9.81468e-12)
(472.208 10.8114 -1.58227e-10)
(472.186 10.5553 -1.80397e-10)
(472.015 12.3961 -2.42071e-10)
(471.993 11.6758 -9.58056e-11)
(471.803 13.9603 2.33838e-10)
(471.765 12.7825 2.1551e-10)
(471.579 15.4486 -2.7056e-11)
(471.489 13.9562 -1.55483e-10)
(471.364 16.7079 3.23948e-11)
(471.133 15.351 1.15284e-10)
(471.272 0.450584 -3.46997e-09)
(471.262 1.22772 1.17217e-09)
(471.255 1.78036 -2.74497e-10)
(471.228 2.70507 7.4266e-11)
(471.214 3.23566 1.05334e-10)
(471.178 4.1645 -2.80943e-10)
(471.148 4.72055 -4.07352e-10)
(471.111 5.58616 -5.89803e-11)
(471.058 6.23274 2.28139e-10)
(471.025 6.95769 2.71226e-10)
(470.945 7.7743 1.48465e-10)
(470.918 8.26953 3.04704e-10)
(470.81 9.34575 3.17295e-10)
(470.789 9.51677 3.48331e-11)
(470.652 10.9425 -1.38775e-10)
(470.638 10.7022 -1.62498e-10)
(470.473 12.5506 -2.91486e-10)
(470.46 11.8401 -1.3855e-10)
(470.276 14.142 2.49222e-10)
(470.249 12.9618 2.28392e-10)
(470.068 15.6647 -6.69741e-12)
(469.993 14.1367 -1.44452e-10)
(469.868 16.9794 -2.1989e-11)
(469.66 15.526 6.79113e-11)
(469.616 0.455494 -3.54404e-09)
(469.607 1.2403 1.10265e-09)
(469.601 1.79868 -3.60627e-10)
(469.575 2.73372 2.53637e-11)
(469.563 3.26847 1.05774e-10)
(469.529 4.20976 -3.03377e-10)
(469.502 4.76825 -4.55677e-10)
(469.468 5.64848 -1.27179e-10)
(469.419 6.2959 1.42044e-10)
(469.39 7.03747 2.25427e-10)
(469.315 7.85378 1.49282e-10)
(469.293 8.36695 2.86448e-10)
(469.19 9.44268 2.70609e-10)
(469.175 9.63159 -3.03846e-11)
(469.044 11.0584 -2.29688e-10)
(469.037 10.8337 -2.01273e-10)
(468.879 12.6878 -2.85662e-10)
(468.875 11.9869 -1.57254e-10)
(468.697 14.3039 2.08871e-10)
(468.682 13.1218 1.74363e-10)
(468.506 15.8582 -9.81149e-11)
(468.446 14.2999 -1.8135e-10)
(468.321 17.2267 -1.48452e-11)
(468.136 15.6796 5.62828e-11)
(467.909 0.459708 -3.49363e-09)
(467.9 1.2512 1.14673e-09)
(467.895 1.81434 -3.49428e-10)
(467.87 2.75861 9.01946e-11)
(467.86 3.29649 1.46411e-10)
(467.828 4.24913 -2.83926e-10)
(467.804 4.80899 -3.89953e-10)
(467.773 5.70282 -7.84935e-11)
(467.728 6.34995 1.70469e-10)
(467.703 7.10722 3.01743e-10)
(467.632 7.92205 2.0539e-10)
(467.615 8.45242 3.14811e-10)
(467.518 9.52638 3.48199e-10)
(467.51 9.73269 2.15656e-11)
(467.385 11.1592 -1.95771e-10)
(467.385 10.9496 -1.89122e-10)
(467.233 12.8077 -2.93908e-10)
(467.238 12.1163 -1.19535e-10)
(467.066 14.4462 2.32079e-10)
(467.062 13.2622 1.75142e-10)
(466.893 16.0287 -4.8789e-11)
(466.847 14.4446 -1.57561e-10)
(466.723 17.4488 -1.46195e-11)
(466.56 15.8117 9.99311e-11)
(466.15 0.46324 -3.50196e-09)
(466.141 1.26045 1.1602e-09)
(466.137 1.82739 -3.44775e-10)
(466.114 2.77978 9.80558e-11)
(466.105 3.31979 1.53797e-10)
(466.075 4.2827 -2.78575e-10)
(466.054 4.84286 -3.84772e-10)
(466.026 5.74923 -7.11841e-11)
(465.984 6.39494 1.78423e-10)
(465.964 7.16695 2.41114e-10)
(465.897 7.97906 1.43682e-10)
(465.886 8.52587 3.30023e-10)
(465.794 9.59671 2.93323e-10)
(465.792 9.81991 -3.211e-11)
(465.673 11.2445 -1.82892e-10)
(465.681 11.0501 -1.76911e-10)
(465.534 12.9104 -2.81123e-10)
(465.548 12.2284 -1.06689e-10)
(465.383 14.5691 2.48503e-10)
(465.39 13.3834 1.88451e-10)
(465.226 16.1767 -3.51157e-11)
(465.195 14.5695 -1.46111e-10)
(465.073 17.6438 6.74603e-12)
(464.934 15.9222 1.19345e-10)
(464.339 0.466099 -3.53624e-09)
(464.33 1.26808 1.21274e-09)
(464.327 1.83786 -3.19405e-10)
(464.305 2.79731 3.9767e-11)
(464.298 3.33845 1.54248e-10)
(464.27 4.31054 -2.22448e-10)
(464.252 4.86994 -4.1402e-10)
(464.226 5.78782 -1.20611e-10)
(464.188 6.43095 1.86575e-10)
(464.172 7.21674 3.05418e-10)
(464.11 8.02485 1.93922e-10)
(464.103 8.58727 2.97306e-10)
(464.017 9.6536 3.15847e-10)
(464.021 9.89314 4.14808e-11)
(463.908 11.3144 -1.98148e-10)
(463.924 11.1347 -2.04121e-10)
(463.784 12.9956 -2.53517e-10)
(463.807 12.3231 -9.36456e-11)
(463.648 14.6726 2.50684e-10)
(463.665 13.4858 1.76551e-10)
(463.507 16.3031 -6.49958e-11)
(463.49 14.6736 -1.27956e-10)
(463.372 17.8105 1.4366e-11)
(463.255 16.011 5.09523e-11)
(462.476 0.468293 -3.57974e-09)
(462.467 1.2741 1.14797e-09)
(462.464 1.8458 -3.54946e-10)
(462.443 2.81121 2.5089e-11)
(462.438 3.3525 9.2779e-11)
(462.412 4.33272 -3.332e-10)
(462.397 4.89032 -4.22927e-10)
(462.374 5.81868 -2.72144e-11)
(462.34 6.45809 2.37233e-10)
(462.327 7.2567 3.14073e-10)
(462.27 8.05951 2.23435e-10)
(462.269 8.63671 3.47484e-10)
(462.188 9.69705 3.24391e-10)
(462.198 9.95231 7.11612e-12)
(462.091 11.3685 -2.06443e-10)
(462.114 11.2034 -1.91601e-10)
(461.981 13.063 -2.83964e-10)
(462.013 12.4004 -1.59165e-10)
(461.861 14.7566 2.00979e-10)
(461.889 13.5692 1.57931e-10)
(461.737 16.4079 -5.85942e-11)
(461.733 14.7578 -9.65996e-11)
(461.618 17.9488 7.39055e-11)
(461.524 16.0774 1.2748e-10)
(460.56 0.469821 -3.62382e-09)
(460.551 1.27852 1.16166e-09)
(460.549 1.85121 -3.22572e-10)
(460.529 2.82151 1.80284e-11)
(460.526 3.36199 1.13691e-10)
(460.502 4.34928 -2.83366e-10)
(460.489 4.90404 -4.1786e-10)
(460.469 5.84188 -6.28908e-11)
(460.439 6.47643 1.53611e-10)
(460.43 7.28691 2.58572e-10)
(460.378 8.08315 2.03119e-10)
(460.381 8.6743 2.86176e-10)
(460.305 9.72713 2.89404e-10)
(460.322 9.99748 -1.97541e-13)
(460.221 11.4069 -1.85797e-10)
(460.252 11.2559 -1.45206e-10)
(460.125 13.1123 -2.77724e-10)
(460.167 12.4596 -1.26258e-10)
(460.021 14.8206 2.69593e-10)
(460.06 13.6334 1.71427e-10)
(459.914 16.4911 -8.96011e-11)
(459.923 14.8223 -1.54866e-10)
(459.812 18.0595 3.68504e-11)
(459.739 16.122 1.15149e-10)
(458.591 0.470682 -3.57006e-09)
(458.582 1.28134 1.1915e-09)
(458.581 1.85408 -3.45009e-10)
(458.562 2.8282 3.3344e-11)
(458.561 3.3669 1.00179e-10)
(458.539 4.3602 -2.62786e-10)
(458.529 4.91111 -4.40992e-10)