/*--------------------------------*- C++ -*----------------------------------*\
  =========                 |
  \\      /  F ield         | OpenFOAM: The Open Source CFD Toolbox
   \\    /   O peration     | Website:  https://openfoam.org
    \\  /    A nd           | Version:  10
     \\/     M anipulation  |
\*---------------------------------------------------------------------------*/
FoamFile
{
    format      ascii;
    class       surfaceScalarField;
    location    "0.49";
    object      phi;
}
// * * * * * * * * * * * * * * * * * * * * * * * * * * * * * * * * * * * * * //

dimensions      [1 0 -1 0 0 0 0];

internalField   nonuniform List<scalar> 
8154
(
-5.79669e-09
-2.20078e-08
-5.65954e-08
-9.14389e-08
-1.71013e-07
-2.25309e-07
-3.69403e-07
-4.53675e-07
-6.73916e-07
-8.13363e-07
-1.10399e-06
-1.33705e-06
-1.66842e-06
-2.02789e-06
-2.36095e-06
-2.86658e-06
-3.2575e-06
-3.98734e-06
-4.569e-06
-5.51287e-06
-6.83464e-06
-7.2283e-06
-6.85513e-06
-0.000277438
-0.000832369
2.40529e-08
-0.00138746
9.63342e-08
-0.00194289
2.13591e-07
-0.00249866
3.78436e-07
-0.00305504
5.77823e-07
-0.00361201
8.24097e-07
-0.00416974
1.0891e-06
-0.00472844
1.39826e-06
-0.00528791
1.71177e-06
-0.00584877
2.05674e-06
-0.00641056
2.40334e-06
-0.00697377
2.74848e-06
-0.00753865
3.11999e-06
-0.00810414
3.43593e-06
-0.00867309
3.84982e-06
-0.00924025
4.12596e-06
-0.00981487
4.57215e-06
-0.0103833
4.92305e-06
-0.0109645
5.13841e-06
-0.0115338
5.27903e-06
-0.0121234
5.11407e-06
-0.0126947
4.02766e-06
-0.013293
2.45274e-06
-0.000277462
-0.000832441
2.63644e-08
-0.00138758
1.04869e-07
-0.00194305
2.34969e-07
-0.00249886
4.105e-07
-0.00305528
6.35723e-07
-0.00361228
8.90118e-07
-0.00417004
1.19531e-06
-0.00472875
1.50167e-06
-0.00528826
1.8677e-06
-0.00584912
2.19141e-06
-0.00641091
2.59397e-06
-0.00697414
2.89329e-06
-0.00753897
3.2988e-06
-0.00810456
3.53912e-06
-0.00867337
3.90419e-06
-0.00924069
4.10463e-06
-0.00981522
4.38831e-06
-0.0103835
5.00079e-06
-0.0109647
4.66558e-06
-0.0115337
5.23121e-06
-0.0121223
5.32729e-06
-0.0126931
5.04366e-06
-0.0132906
4.23199e-06
-0.000277489
-0.00083252
2.12982e-08
-0.00138771
8.49731e-08
-0.00194323
1.88268e-07
-0.00249909
3.30798e-07
-0.00305554
5.02323e-07
-0.00361258
7.0783e-07
-0.00417035
9.23285e-07
-0.00472912
1.16701e-06
-0.00528858
1.39485e-06
-0.00584952
1.64262e-06
-0.00641121
1.8471e-06
-0.00697455
2.05039e-06
-0.00753921
2.19735e-06
-0.00810492
2.28391e-06
-0.00867357
2.3538e-06
-0.00924098
2.20635e-06
-0.00981584
2.342e-06
-0.0103832
1.89828e-06
-0.0109653
1.78187e-06
-0.0115338
1.39148e-06
-0.0121221
1.1526e-06
-0.0126923
7.21468e-07
-0.0132863
5.21979e-07
-0.00027751
-0.000832583
2.55277e-08
-0.00138781
1.01912e-07
-0.00194337
2.26189e-07
-0.00249926
3.98011e-07
-0.00305574
6.05972e-07
-0.0036128
8.56079e-07
-0.00417059
1.12006e-06
-0.00472935
1.42117e-06
-0.00528883
1.70326e-06
-0.00584972
2.01775e-06
-0.00641141
2.27298e-06
-0.00697469
2.54905e-06
-0.00753929
2.73376e-06
-0.00810499
2.89527e-06
-0.00867342
2.98552e-06
-0.00924111
2.89769e-06
-0.0098154
2.97315e-06
-0.010383
2.28187e-06
-0.0109649
2.51744e-06
-0.0115336
1.72478e-06
-0.0121216
1.20368e-06
-0.0126921
3.81387e-07
-0.0132858
-1.64406e-07
-0.000277535
-0.00083266
3.36351e-08
-0.00138793
1.34249e-07
-0.00194354
2.99277e-07
-0.00249947
5.26581e-07
-0.00305599
8.08206e-07
-0.00361306
1.14204e-06
-0.00417089
1.5125e-06
-0.00472963
1.91977e-06
-0.00528914
2.33984e-06
-0.00584998
2.7743e-06
-0.00641169
3.19509e-06
-0.00697488
3.59671e-06
-0.00753946
3.96429e-06
-0.00810508
4.25889e-06
-0.00867333
4.52232e-06
-0.00924119
4.61522e-06
-0.00981471
4.72969e-06
-0.0103833
4.39954e-06
-0.0109641
4.36564e-06
-0.011533
3.67282e-06
-0.0121208
3.21157e-06
-0.0126915
2.27192e-06
-0.013286
1.35617e-06
-0.000277569
-0.00083276
3.75509e-08
-0.0013881
1.49889e-07
-0.00194377
3.34416e-07
-0.00249975
5.88524e-07
-0.00305633
9.04544e-07
-0.00361343
1.27867e-06
-0.0041713
1.6967e-06
-0.00473005
2.15459e-06
-0.00528958
2.63184e-06
-0.0058504
3.12204e-06
-0.00641209
3.60343e-06
-0.00697525
4.05894e-06
-0.00753975
4.48177e-06
-0.00810534
4.82158e-06
-0.00867342
5.12413e-06
-0.0092413
5.24991e-06
-0.00981438
5.36878e-06
-0.0103832
5.08107e-06
-0.0109634
4.96486e-06
-0.0115326
4.21617e-06
-0.0121199
3.68082e-06
-0.0126906
2.64123e-06
-0.0132847
1.61849e-06
-0.000277607
-0.000832873
4.13778e-08
-0.00138828
1.65178e-07
-0.00194402
3.68638e-07
-0.00250007
6.48921e-07
-0.0030567
9.9793e-07
-0.00361385
1.41148e-06
-0.00417176
1.87453e-06
-0.00473053
2.3826e-06
-0.00529007
2.91335e-06
-0.00585088
3.46021e-06
-0.00641255
3.99763e-06
-0.00697567
4.50981e-06
-0.00754009
4.98248e-06
-0.00810565
5.37069e-06
-0.00867355
5.7072e-06
-0.00924142
5.86274e-06
-0.00981409
5.99687e-06
-0.0103831
5.71699e-06
-0.0109626
5.5923e-06
-0.011532
4.81127e-06
-0.0121188
4.2124e-06
-0.0126896
2.99266e-06
-0.013283
1.79732e-06
-0.000277648
-0.000832996
4.50674e-08
-0.00138849
1.79898e-07
-0.0019443
4.01544e-07
-0.00250041
7.06791e-07
-0.00305711
1.08725e-06
-0.00361432
1.53791e-06
-0.00417227
2.0436e-06
-0.00473106
2.5983e-06
-0.00529061
3.17985e-06
-0.00585142
3.77903e-06
-0.00641306
4.3705e-06
-0.00697614
4.93476e-06
-0.00754048
5.45656e-06
-0.00810598
5.88841e-06
-0.00867371
6.25792e-06
-0.00924155
6.44165e-06
-0.00981381
6.58138e-06
-0.010383
6.32655e-06
-0.0109619
6.16693e-06
-0.0115314
5.37081e-06
-0.0121176
4.85698e-06
-0.0126884
3.36042e-06
-0.0132812
2.01169e-06
-0.000277693
-0.000833131
4.87087e-08
-0.00138871
1.94414e-07
-0.00194461
4.33939e-07
-0.00250079
7.63657e-07
-0.00305756
1.17473e-06
-0.00361482
1.66139e-06
-0.00417282
2.20802e-06
-0.00473164
2.80744e-06
-0.00529121
3.43713e-06
-0.00585201
4.08626e-06
-0.00641362
4.72884e-06
-0.00697667
5.34335e-06
-0.00754091
5.91219e-06
-0.00810635
6.38665e-06
-0.00867389
6.7878e-06
-0.00924169
6.9971e-06
-0.00981356
7.13801e-06
-0.0103828
6.90281e-06
-0.0109611
6.71884e-06
-0.0115309
5.87773e-06
-0.0121162
4.88819e-06
-0.012687
3.68132e-06
-0.0132792
2.20399e-06
-0.000277742
-0.000833277
5.23009e-08
-0.00138895
2.0873e-07
-0.00194494
4.65863e-07
-0.00250121
8.19642e-07
-0.00305805
1.2607e-06
-0.00361537
1.78247e-06
-0.00417342
2.36869e-06
-0.00473227
3.01105e-06
-0.00529186
3.68647e-06
-0.00585265
4.38278e-06
-0.00641424
5.0733e-06
-0.00697724
5.73509e-06
-0.00754139
6.34849e-06
-0.00810675
6.86386e-06
-0.0086741
7.29603e-06
-0.00924183
7.52886e-06
-0.00981333
7.66932e-06
-0.0103827
7.45053e-06
-0.0109602
7.25126e-06
-0.0115301
6.40063e-06
-0.0121147
5.58097e-06
-0.0126855
4.03915e-06
-0.013277
2.40846e-06
-0.000277794
-0.000833433
5.58595e-08
-0.00138921
2.22914e-07
-0.00194529
4.97504e-07
-0.00250165
8.75145e-07
-0.00305857
1.34591e-06
-0.00361595
1.90238e-06
-0.00417406
2.52751e-06
-0.00473294
3.21182e-06
-0.00529255
3.93133e-06
-0.00585334
4.67271e-06
-0.0064149
5.40831e-06
-0.00697785
6.11434e-06
-0.0075419
6.76915e-06
-0.00810719
7.3231e-06
-0.00867433
7.78545e-06
-0.00924197
8.04293e-06
-0.00981311
8.18955e-06
-0.0103825
7.97201e-06
-0.0109594
7.74306e-06
-0.0115293
6.85798e-06
-0.0121132
6.00755e-06
-0.0126839
4.35554e-06
-0.0132746
2.59065e-06
-0.00027785
-0.0008336
5.93777e-08
-0.00138948
2.36945e-07
-0.00194567
5.28826e-07
-0.00250212
9.30152e-07
-0.00305913
1.43042e-06
-0.00361658
2.02141e-06
-0.00417474
2.68515e-06
-0.00473366
3.41091e-06
-0.0052933
4.17357e-06
-0.00585408
4.95852e-06
-0.00641561
5.73687e-06
-0.00697851
6.48421e-06
-0.00754246
7.17686e-06
-0.00810765
7.76583e-06
-0.00867459
8.25545e-06
-0.00924211
8.53597e-06
-0.00981289
8.68956e-06
-0.0103822
8.46996e-06
-0.0109585
8.20679e-06
-0.0115284
7.28463e-06
-0.0121115
6.37002e-06
-0.0126821
4.65214e-06
-0.013272
2.76281e-06
-0.000277909
-0.000833778
6.28556e-08
-0.00138977
2.5082e-07
-0.00194607
5.59825e-07
-0.00250262
9.84653e-07
-0.00305972
1.51426e-06
-0.00361724
2.13966e-06
-0.00417547
2.8419e-06
-0.00473443
3.609e-06
-0.00529408
4.41448e-06
-0.00585486
5.2423e-06
-0.00641635
6.06203e-06
-0.0069792
6.84846e-06
-0.00754305
7.5758e-06
-0.00810814
8.19605e-06
-0.00867487
8.70923e-06
-0.00924227
9.00962e-06
-0.00981267
9.16763e-06
-0.010382
8.94847e-06
-0.0109576
8.64505e-06
-0.0115275
7.67707e-06
-0.0121098
6.70266e-06
-0.0126803
4.89618e-06
-0.0132693
2.91087e-06
-0.000277972
-0.000833966
6.62956e-08
-0.00139008
2.64542e-07
-0.00194649
5.90484e-07
-0.00250315
1.03858e-06
-0.00306034
1.59727e-06
-0.00361795
2.25684e-06
-0.00417624
2.9974e-06
-0.00473523
3.80576e-06
-0.00529491
4.65401e-06
-0.00585568
5.52456e-06
-0.00641714
6.38515e-06
-0.00697993
7.20948e-06
-0.00754367
7.96932e-06
-0.00810865
8.61754e-06
-0.00867517
9.15016e-06
-0.00924242
9.46637e-06
-0.00981246
9.62714e-06
-0.0103817
9.4103e-06
-0.0109566
9.06454e-06
-0.0115265
8.05174e-06
-0.012108
7.00728e-06
-0.0126783
5.0559e-06
-0.0132663
3.03816e-06
-0.000278038
-0.000834164
6.9705e-08
-0.00139041
2.78133e-07
-0.00194694
6.20823e-07
-0.00250371
1.0919e-06
-0.003061
1.67927e-06
-0.00361869
2.37257e-06
-0.00417704
3.15101e-06
-0.00473608
4.0003e-06
-0.00529578
4.89113e-06
-0.00585654
5.8044e-06
-0.00641797
6.70591e-06
-0.00698069
7.56798e-06
-0.00754432
8.35956e-06
-0.00810918
9.03381e-06
-0.00867548
9.58242e-06
-0.00924258
9.90953e-06
-0.00981224
1.0069e-05
-0.0103813
9.85204e-06
-0.0109556
9.4649e-06
-0.0115255
8.41391e-06
-0.0121061
7.30568e-06
-0.0126763
5.27859e-06
-0.0132633
3.1719e-06
-0.000278108
-0.000834372
7.30866e-08
-0.00139075
2.91604e-07
-0.00194741
6.50842e-07
-0.00250429
1.14454e-06
-0.0030617
1.76006e-06
-0.00361947
2.48639e-06
-0.00417789
3.30189e-06
-0.00473697
4.1913e-06
-0.00529669
5.12407e-06
-0.00585744
6.07972e-06
-0.00641883
7.02222e-06
-0.00698148
7.92236e-06
-0.00754499
8.74615e-06
-0.00810973
9.44632e-06
-0.00867581
1.00098e-05
-0.00924274
1.03444e-05
-0.00981203
1.0496e-05
-0.0103809
1.02662e-05
-0.0109545
9.84437e-06
-0.0115244
8.75567e-06
-0.012104
7.58698e-06
-0.0126742
5.49701e-06
-0.0132601
3.29611e-06
-0.000278181
-0.000834591
7.64304e-08
-0.00139111
3.04908e-07
-0.00194791
6.80432e-07
-0.00250491
1.1963e-06
-0.00306242
1.83926e-06
-0.00362028
2.59762e-06
-0.00417878
3.44897e-06
-0.0047379
4.37716e-06
-0.00529765
5.35055e-06
-0.00585838
6.34757e-06
-0.00641973
7.33055e-06
-0.0069823
8.26886e-06
-0.00754569
9.12569e-06
-0.0081103
9.85292e-06
-0.00867614
1.04325e-05
-0.00924289
1.0775e-05
-0.0098118
1.09174e-05
-0.0103805
1.06709e-05
-0.0109535
1.02135e-05
-0.0115232
9.08861e-06
-0.0121019
7.85772e-06
-0.0126719
5.69776e-06
-0.0132568
3.41227e-06
-0.000278257
-0.000834819
7.97098e-08
-0.00139149
3.17942e-07
-0.00194842
7.09368e-07
-0.00250555
1.2468e-06
-0.00306318
1.9163e-06
-0.00362113
2.70552e-06
-0.00417971
3.59117e-06
-0.00473888
4.55637e-06
-0.00529864
5.56849e-06
-0.00585936
6.60508e-06
-0.00642067
7.62715e-06
-0.00698316
8.60293e-06
-0.00754642
9.49314e-06
-0.00811088
1.02486e-05
-0.00867648
1.08465e-05
-0.00924303
1.1199e-05
-0.00981155
1.13343e-05
-0.0103801
1.10733e-05
-0.0109523
1.05762e-05
-0.011522
9.41788e-06
-0.0120998
8.12549e-06
-0.0126697
5.89237e-06
-0.0132534
3.52254e-06
-0.000278337
-0.000835057
8.28662e-08
-0.00139188
3.3048e-07
-0.00194896
7.37184e-07
-0.00250622
1.29528e-06
-0.00306397
1.99017e-06
-0.00362202
2.80875e-06
-0.00418067
3.72692e-06
-0.00473989
4.72699e-06
-0.00529968
5.77544e-06
-0.00586039
6.84909e-06
-0.00642164
7.90788e-06
-0.00698405
8.9193e-06
-0.00754718
9.84202e-06
-0.00811147
1.06262e-05
-0.00867684
1.12444e-05
-0.00924316
1.16098e-05
-0.00981129
1.17419e-05
-0.0103796
1.14691e-05
-0.0109512
1.09322e-05
-0.0115207
9.74728e-06
-0.0120975
8.39648e-06
-0.0126673
6.08634e-06
-0.0132499
3.62978e-06
-0.00027842
-0.000835305
8.58214e-08
-0.00139228
3.42223e-07
-0.00194952
7.63249e-07
-0.00250692
1.34075e-06
-0.00306479
2.05946e-06
-0.00362294
2.90561e-06
-0.00418167
3.8542e-06
-0.00474094
4.88677e-06
-0.00530075
5.96884e-06
-0.00586145
7.07659e-06
-0.00642265
8.16902e-06
-0.00698497
9.21311e-06
-0.00754796
1.0166e-05
-0.00811209
1.09776e-05
-0.0086772
1.16168e-05
-0.00924329
1.19978e-05
-0.00981102
1.21317e-05
-0.010379
1.18519e-05
-0.01095
1.12795e-05
-0.0115193
1.00766e-05
-0.0120952
8.67192e-06
-0.0126648
6.28629e-06
-0.0132463
3.73802e-06
-0.000278506
-0.000835561
8.84854e-08
-0.00139271
3.52819e-07
-0.0019501
7.86818e-07
-0.00250764
1.38197e-06
-0.00306563
2.12246e-06
-0.00362389
2.99389e-06
-0.00418271
3.97044e-06
-0.00474202
5.03285e-06
-0.00530186
6.14564e-06
-0.00586254
7.28427e-06
-0.0064237
8.40682e-06
-0.00698593
9.47988e-06
-0.00754877
1.04595e-05
-0.00811273
1.12955e-05
-0.00867758
1.19541e-05
-0.00924342
1.23509e-05
-0.00981074
1.24906e-05
-0.0103785
1.22112e-05
-0.0109488
1.16181e-05
-0.0115179
1.03974e-05
-0.0120928
8.94501e-06
-0.0126623
6.49274e-06
-0.0132426
3.84984e-06
-0.000278594
-0.000835825
9.07711e-08
-0.00139314
3.61926e-07
-0.00195069
8.07133e-07
-0.00250838
1.41764e-06
-0.00306651
2.17724e-06
-0.00362486
3.07107e-06
-0.00418377
4.07257e-06
-0.00474314
5.16172e-06
-0.005303
6.30203e-06
-0.00586366
7.46816e-06
-0.00642477
8.61712e-06
-0.00698691
9.71511e-06
-0.00754961
1.07171e-05
-0.00811339
1.15733e-05
-0.00867797
1.22477e-05
-0.00924356
1.26577e-05
-0.00981046
1.28031e-05
-0.0103779
1.25279e-05
-0.0109476
1.19258e-05
-0.0115165
1.0689e-05
-0.0120904
9.19588e-06
-0.0126597
6.69618e-06
-0.0132387
3.9623e-06
-0.000278685
-0.000836096
9.2607e-08
-0.00139358
3.69254e-07
-0.0019513
8.23539e-07
-0.00250914
1.4466e-06
-0.0030674
2.22199e-06
-0.00362587
3.13456e-06
-0.00418486
4.15722e-06
-0.00474428
5.26931e-06
-0.00530417
6.4334e-06
-0.00586481
7.62329e-06
-0.00642587
8.79483e-06
-0.00698791
9.91362e-06
-0.00755046
1.09336e-05
-0.00811407
1.18052e-05
-0.00867838
1.24908e-05
-0.00924371
1.29096e-05
-0.00981019
1.30575e-05
-0.0103773
1.27843e-05
-0.0109463
1.21725e-05
-0.011515
1.09269e-05
-0.0120879
9.39937e-06
-0.012657
6.87045e-06
-0.0132347
4.05962e-06
-0.000278777
-0.000836372
9.39443e-08
-0.00139404
3.74602e-07
-0.00195192
8.35547e-07
-0.00250991
1.4679e-06
-0.00306831
2.25512e-06
-0.00362689
3.18198e-06
-0.00418597
4.22106e-06
-0.00474544
5.35131e-06
-0.00530536
6.53453e-06
-0.00586598
7.74376e-06
-0.00642699
8.93362e-06
-0.00698893
1.0069e-05
-0.00755133
1.11026e-05
-0.00811475
1.19848e-05
-0.0086788
1.26766e-05
-0.00924385
1.30991e-05
-0.00980991
1.32452e-05
-0.0103767
1.29702e-05
-0.0109451
1.23468e-05
-0.0115134
1.10958e-05
-0.0120854
9.52865e-06
-0.0126542
6.9719e-06
-0.0132306
4.10962e-06
-0.000278871
-0.000836652
9.47708e-08
-0.0013945
3.77907e-07
-0.00195256
8.42985e-07
-0.0025107
1.48115e-06
-0.00306924
2.27587e-06
-0.00362793
3.21199e-06
-0.0041871
4.26196e-06
-0.00474662
5.40471e-06
-0.00530657
6.60142e-06
-0.00586717
7.82487e-06
-0.00642812
9.02822e-06
-0.00698996
1.01762e-05
-0.00755221
1.12192e-05
-0.00811545
1.21085e-05
-0.00867922
1.28016e-05
-0.009244
1.32239e-05
-0.00980964
1.33626e-05
-0.0103761
1.30822e-05
-0.0109438
1.24451e-05
-0.0115119
1.11904e-05
-0.0120828
9.57244e-06
-0.0126513
6.96502e-06
-0.0132265
4.08816e-06
-0.000278966
-0.000836935
9.54664e-08
-0.00139496
3.80684e-07
-0.00195319
8.49219e-07
-0.0025115
1.49226e-06
-0.00307017
2.29329e-06
-0.00362898
3.23734e-06
-0.00418824
4.29693e-06
-0.00474782
5.45116e-06
-0.00530779
6.66105e-06
-0.00586837
7.89932e-06
-0.00642927
9.11836e-06
-0.006991
1.02824e-05
-0.0075531
1.13404e-05
-0.00811614
1.22431e-05
-0.00867965
1.29458e-05
-0.00924414
1.33752e-05
-0.00980936
1.35152e-05
-0.0103754
1.32366e-05
-0.0109426
1.25939e-05
-0.0115102
1.13393e-05
-0.0120802
9.69101e-06
-0.0126484
7.06211e-06
-0.0132224
4.20444e-06
-0.000279061
-0.00083722
9.57636e-08
-0.00139543
3.81861e-07
-0.00195384
8.51844e-07
-0.0025123
1.49692e-06
-0.00307112
2.30062e-06
-0.00363004
3.24817e-06
-0.0041894
4.31227e-06
-0.00474903
5.47235e-06
-0.00530903
6.68964e-06
-0.00586959
7.93712e-06
-0.00643044
9.16709e-06
-0.00699206
1.03436e-05
-0.007554
1.14147e-05
-0.00811684
1.23302e-05
-0.00868008
1.30436e-05
-0.00924428
1.34812e-05
-0.00980908
1.36249e-05
-0.0103748
1.33484e-05
-0.0109413
1.27008e-05
-0.0115086
1.1442e-05
-0.0120776
9.7787e-06
-0.0126455
7.15023e-06
-0.0132183
4.41966e-06
-0.000279157
-0.000837506
9.55522e-08
-0.0013959
3.81003e-07
-0.00195448
8.49892e-07
-0.0025131
1.49345e-06
-0.00307207
2.29526e-06
-0.0036311
3.24076e-06
-0.00419056
4.30283e-06
-0.00475025
5.46131e-06
-0.00531028
6.6778e-06
-0.00587082
7.92592e-06
-0.00643161
9.15831e-06
-0.00699313
1.03395e-05
-0.00755492
1.14175e-05
-0.00811756
1.23412e-05
-0.00868051
1.3063e-05
-0.00924442
1.35078e-05
-0.0098088
1.36549e-05
-0.0103741
1.338e-05
-0.0109401
1.2727e-05
-0.0115069
1.14686e-05
-0.012075
9.79494e-06
-0.0126427
7.14872e-06
-0.013214
4.02689e-06
-0.000279252
-0.000837791
9.48698e-08
-0.00139637
3.78269e-07
-0.00195512
8.43755e-07
-0.00251391
1.48263e-06
-0.00307301
2.27855e-06
-0.00363217
3.21719e-06
-0.00419172
4.2716e-06
-0.00475147
5.42204e-06
-0.00531152
6.63047e-06
-0.00587205
7.87132e-06
-0.00643279
9.09786e-06
-0.0069942
1.02757e-05
-0.00755584
1.13535e-05
-0.00811828
1.22805e-05
-0.00868096
1.30081e-05
-0.00924457
1.34606e-05
-0.00980853
1.3614e-05
-0.0103735
1.33437e-05
-0.0109388
1.26877e-05
-0.0115052
1.14311e-05
-0.0120723
9.75237e-06
-0.0126398
7.13878e-06
-0.0132097
3.96141e-06
-0.000279347
-0.000838074
9.37431e-08
-0.00139684
3.73774e-07
-0.00195576
8.33728e-07
-0.0025147
1.46506e-06
-0.00307395
2.25156e-06
-0.00363322
3.17924e-06
-0.00419287
4.22133e-06
-0.00475267
5.35846e-06
-0.00531276
6.55289e-06
-0.00587328
7.77979e-06
-0.00643397
8.99318e-06
-0.00699528
1.016e-05
-0.00755677
1.12301e-05
-0.00811901
1.2154e-05
-0.00868141
1.28834e-05
-0.00924472
1.3343e-05
-0.00980827
1.35066e-05
-0.0103728
1.32482e-05
-0.0109375
1.25982e-05
-0.0115036
1.13458e-05
-0.0120697
9.65079e-06
-0.0126368
7.09526e-06
-0.0132055
4.18987e-06
-0.00027944
-0.000838354
9.22002e-08
-0.0013973
3.67634e-07
-0.00195639
8.2008e-07
-0.00251549
1.44124e-06
-0.00307488
2.2152e-06
-0.00363426
3.12839e-06
-0.004194
4.15432e-06
-0.00475387
5.274e-06
-0.00531399
6.4499e-06
-0.00587449
7.65786e-06
-0.00643514
8.85241e-06
-0.00699635
1.00019e-05
-0.00755769
1.10571e-05
-0.00811974
1.19709e-05
-0.00868187
1.2696e-05
-0.00924489
1.31592e-05
-0.00980801
1.33341e-05
-0.0103722
1.30943e-05
-0.0109363
1.24645e-05
-0.0115019
1.12343e-05
-0.0120672
9.54551e-06
-0.0126338
7.01669e-06
-0.0132014
4.17043e-06
-0.000279533
-0.000838629
9.02812e-08
-0.00139775
3.60007e-07
-0.00195702
8.03159e-07
-0.00251626
1.41179e-06
-0.00307579
2.17041e-06
-0.00363529
3.06598e-06
-0.00419512
4.0725e-06
-0.00475504
5.17142e-06
-0.0053152
6.3255e-06
-0.00587569
7.51109e-06
-0.00643629
8.68307e-06
-0.0069974
9.81091e-06
-0.00755861
1.0846e-05
-0.00812046
1.17434e-05
-0.00868233
1.24574e-05
-0.00924506
1.29178e-05
-0.00980778
1.31004e-05
-0.0103715
1.28802e-05
-0.0109351
1.22792e-05
-0.0115002
1.10886e-05
-0.0120646
9.43616e-06
-0.012631
6.93822e-06
-0.0131972
4.1212e-06
-0.000279623
-0.000838899
8.8045e-08
-0.00139819
3.51121e-07
-0.00195762
7.8345e-07
-0.00251702
1.3775e-06
-0.00307669
2.1183e-06
-0.0036363
2.99351e-06
-0.00419622
3.97774e-06
-0.0047562
5.0531e-06
-0.00531638
6.18276e-06
-0.00587686
7.3437e-06
-0.00643741
8.49101e-06
-0.00699844
9.59502e-06
-0.0075595
1.06072e-05
-0.00812118
1.14847e-05
-0.00868279
1.21821e-05
-0.00924524
1.26333e-05
-0.00980756
1.28162e-05
-0.0103709
1.26105e-05
-0.0109339
1.20386e-05
-0.0114985
1.08948e-05
-0.0120621
9.29268e-06
-0.0126282
6.85699e-06
-0.0131931
4.06822e-06
-0.000279711
-0.000839162
8.55665e-08
-0.00139862
3.41269e-07
-0.00195822
7.61574e-07
-0.00251776
1.33938e-06
-0.00307756
2.06031e-06
-0.00363728
2.91277e-06
-0.00419729
3.87213e-06
-0.00475733
4.92133e-06
-0.00531755
6.02427e-06
-0.00587801
7.15867e-06
-0.00643852
8.28005e-06
-0.00699945
9.35953e-06
-0.00756038
1.03485e-05
-0.00812188
1.12052e-05
-0.00868324
1.18842e-05
-0.00924542
1.23223e-05
-0.00980735
1.24985e-05
-0.0103704
1.2299e-05
-0.0109327
1.17485e-05
-0.0114969
1.0649e-05
-0.0120597
9.11042e-06
-0.0126254
6.7755e-06
-0.013189
4.00845e-06
-0.000279796
-0.000839417
8.29285e-08
-0.00139905
3.30772e-07
-0.0019588
7.3823e-07
-0.00251849
1.29861e-06
-0.00307841
1.9981e-06
-0.00363824
2.8259e-06
-0.00419834
3.75814e-06
-0.00475843
4.77877e-06
-0.00531868
5.85262e-06
-0.00587913
6.95847e-06
-0.0064396
8.05257e-06
-0.00700044
9.10709e-06
-0.00756124
1.00735e-05
-0.00812256
1.0911e-05
-0.00868368
1.15735e-05
-0.0092456
1.1999e-05
-0.00980715
1.21661e-05
-0.0103698
1.19661e-05
-0.0109316
1.14249e-05
-0.0114954
1.03553e-05
-0.0120574
8.87647e-06
-0.0126226
6.64892e-06
-0.013185
3.93203e-06
-0.000279879
-0.000839665
8.02071e-08
-0.00139945
3.19932e-07
-0.00195936
7.14082e-07
-0.00251919
1.25632e-06
-0.00307924
1.93336e-06
-0.00363917
2.73509e-06
-0.00419936
3.63846e-06
-0.0047595
4.6284e-06
-0.00531979
5.67078e-06
-0.00588022
6.74573e-06
-0.00644066
7.81052e-06
-0.00700141
8.83885e-06
-0.00756208
9.78284e-06
-0.00812322
1.06028e-05
-0.0086841
1.12525e-05
-0.00924576
1.16699e-05
-0.00980694
1.18317e-05
-0.0103693
1.16318e-05
-0.0109306
1.10943e-05
-0.0114939
1.00403e-05
-0.0120551
8.59351e-06
-0.0126199
6.42172e-06
-0.0131811
3.8222e-06
-0.000279959
-0.000839905
7.74597e-08
-0.00139985
3.0898e-07
-0.0019599
6.89647e-07
-0.00251987
1.21343e-06
-0.00308004
1.86748e-06
-0.00364007
2.64231e-06
-0.00420035
3.51556e-06
-0.00476055
4.47315e-06
-0.00532086
5.48194e-06
-0.00588129
6.52345e-06
-0.00644168
7.55624e-06
-0.00700235
8.55586e-06
-0.00756289
9.47586e-06
-0.00812387
1.02782e-05
-0.00868452
1.09175e-05
-0.00924592
1.13315e-05
-0.00980673
1.14957e-05
-0.0103688
1.13032e-05
-0.0109295
1.07762e-05
-0.0114925
9.7378e-06
-0.012053
8.31482e-06
-0.0126173
6.19029e-06
-0.0131773
3.67919e-06
-0.000280037
-0.000840136
7.4717e-08
-0.00140023
2.9804e-07
-0.00196042
6.65218e-07
-0.00252052
1.17047e-06
-0.00308082
1.80134e-06
-0.00364095
2.54885e-06
-0.00420131
3.39125e-06
-0.00476155
4.31534e-06
-0.0053219
5.28886e-06
-0.00588232
6.29462e-06
-0.00644269
7.29246e-06
-0.00700327
8.25997e-06
-0.0075637
9.15255e-06
-0.00812451
9.93447e-06
-0.00868493
1.05624e-05
-0.00924609
1.09746e-05
-0.00980653
1.1147e-05
-0.0103682
1.09704e-05
-0.0109285
1.04679e-05
-0.0114911
9.45519e-06
-0.0120508
8.06011e-06
-0.0126148
5.97412e-06
-0.0131736
3.49361e-06
-0.000280111
-0.000840359
7.19774e-08
-0.0014006
2.87112e-07
-0.00196093
6.40803e-07
-0.00252115
1.1275e-06
-0.00308157
1.73507e-06
-0.00364179
2.45499e-06
-0.00420223
3.26605e-06
-0.00476253
4.15584e-06
-0.00532291
5.09287e-06
-0.00588332
6.061e-06
-0.00644365
7.02115e-06
-0.00700416
7.95293e-06
-0.00756448
8.81374e-06
-0.00812514
9.57024e-06
-0.00868534
1.0182e-05
-0.00924626
1.05887e-05
-0.00980635
1.07694e-05
-0.0103677
1.0612e-05
-0.0109274
1.01481e-05
-0.0114897
9.17814e-06
-0.0120488
7.83777e-06
-0.0126123
5.79515e-06
-0.0131701
3.31992e-06
-0.000280183
-0.000840574
6.92178e-08
-0.00140095
2.76107e-07
-0.00196142
6.16214e-07
-0.00252176
1.0842e-06
-0.00308229
1.66822e-06
-0.0036426
2.36018e-06
-0.00420312
3.13937e-06
-0.00476346
3.99409e-06
-0.00532387
4.89362e-06
-0.00588428
5.8226e-06
-0.00644459
6.74283e-06
-0.00700502
7.63567e-06
-0.00756523
8.46048e-06
-0.00812575
9.18577e-06
-0.00868575
9.77435e-06
-0.00924644
1.01673e-05
-0.0098062
1.03494e-05
-0.0103673
1.02053e-05
-0.0109265
9.78336e-06
-0.0114883
8.86494e-06
-0.0120467
7.61018e-06
-0.0126098
5.6501e-06
-0.0131668
3.29543e-06
-0.000280252
-0.000840781
6.63887e-08
-0.00140129
2.6483e-07
-0.00196189
5.91018e-07
-0.00252234
1.03981e-06
-0.00308298
1.59964e-06
-0.00364338
2.26281e-06
-0.00420397
3.00914e-06
-0.00476436
3.82764e-06
-0.0053248
4.68834e-06
-0.00588521
5.57647e-06
-0.00644548
6.45476e-06
-0.00700585
7.30584e-06
-0.00756596
8.09109e-06
-0.00812634
8.77982e-06
-0.00868614
9.33794e-06
-0.00924662
9.70766e-06
-0.00980606
9.88014e-06
-0.0103668
9.73667e-06
-0.0109256
9.34621e-06
-0.011487
8.47051e-06
-0.0120447
7.30548e-06
-0.0126075
5.43842e-06
-0.0131635
3.23067e-06
-0.000280319
-0.00084098
6.34229e-08
-0.00140162
2.53002e-07
-0.00196233
5.64586e-07
-0.00252291
9.93208e-07
-0.00308364
1.52759e-06
-0.00364412
2.16043e-06
-0.00420479
2.87209e-06
-0.00476522
3.65236e-06
-0.00532569
4.47193e-06
-0.00588609
5.31692e-06
-0.00644634
6.1504e-06
-0.00700663
6.95717e-06
-0.00756664
7.69879e-06
-0.00812689
8.34745e-06
-0.00868652
8.86721e-06
-0.00924679
9.20718e-06
-0.00980592
9.35584e-06
-0.0103665
9.20333e-06
-0.0109247
8.82098e-06
-0.0114859
7.97691e-06
-0.0120428
6.87677e-06
-0.0126053
5.10286e-06
-0.0131603
3.04772e-06
-0.000280382
-0.000841169
6.05766e-08
-0.00140193
2.41641e-07
-0.00196276
5.39199e-07
-0.00252344
9.48481e-07
-0.00308427
1.45845e-06
-0.00364483
2.06225e-06
-0.00420557
2.74077e-06
-0.00476604
3.48477e-06
-0.00532653
4.26533e-06
-0.00588692
5.07003e-06
-0.00644714
5.86169e-06
-0.00700737
6.6283e-06
-0.00756729
7.33001e-06
-0.00812741
7.94406e-06
-0.00868686
8.42834e-06
-0.00924694
8.74401e-06
-0.00980578
8.86863e-06
-0.0103661
8.7116e-06
-0.0109239
8.32591e-06
-0.0114848
7.51261e-06
-0.0120411
6.45169e-06
-0.0126032
4.75838e-06
-0.0131573
2.81987e-06
-0.000280443
-0.00084135
5.80617e-08
-0.00140223
2.31616e-07
-0.00196317
5.16823e-07
-0.00252395
9.0911e-07
-0.00308488
1.3977e-06
-0.00364551
1.97618e-06
-0.00420631
2.62607e-06
-0.00476682
3.33893e-06
-0.00532734
4.08678e-06
-0.00588772
4.8578e-06
-0.00644791
5.61635e-06
-0.00700807
6.35103e-06
-0.00756791
7.02469e-06
-0.00812789
7.61374e-06
-0.00868717
8.07841e-06
-0.00924706
8.37954e-06
-0.00980563
8.50152e-06
-0.0103657
8.34816e-06
-0.010923
7.98002e-06
-0.0114837
7.19457e-06
-0.0120394
6.19016e-06
-0.0126013
4.55026e-06
-0.0131545
2.74087e-06
-0.000280501
-0.000841524
5.53475e-08
-0.00140251
2.20798e-07
-0.00196357
4.9267e-07
-0.00252444
8.66611e-07
-0.00308545
1.33211e-06
-0.00364616
1.88325e-06
-0.00420702
2.50223e-06
-0.00476757
3.18137e-06
-0.00532811
3.89378e-06
-0.00588848
4.62825e-06
-0.00644865
5.35099e-06
-0.00700875
6.05085e-06
-0.0075685
6.69401e-06
-0.00812836
7.25554e-06
-0.00868747
7.69922e-06
-0.00924718
7.98458e-06
-0.00980547
8.10617e-06
-0.0103653
7.95832e-06
-0.0109222
7.60952e-06
-0.0114827
6.8483e-06
-0.0120377
5.8889e-06
-0.0125994
4.2919e-06
-0.0131517
2.65657e-06
-0.000280556
-0.000841689
5.2406e-08
-0.00140278
2.09072e-07
-0.00196394
4.66499e-07
-0.00252491
8.20571e-07
-0.00308601
1.26111e-06
-0.00364678
1.7827e-06
-0.0042077
2.36831e-06
-0.00476828
3.01102e-06
-0.00532884
3.68507e-06
-0.0058892
4.37999e-06
-0.00644935
5.06407e-06
-0.00700939
5.72619e-06
-0.00756906
6.33599e-06
-0.0081288
6.86723e-06
-0.00868775
7.28776e-06
-0.0092473
7.55583e-06
-0.00980531
7.67809e-06
-0.010365
7.53884e-06
-0.0109215
7.21783e-06
-0.0114818
6.48478e-06
-0.0120362
5.56881e-06
-0.0125978
3.98881e-06
-0.0131491
2.45792e-06
-0.000280608
-0.000841845
4.9212e-08
-0.00140304
1.96342e-07
-0.00196429
4.38098e-07
-0.00252535
7.70656e-07
-0.00308653
1.18421e-06
-0.00364737
1.67392e-06
-0.00420834
2.22357e-06
-0.00476895
2.82704e-06
-0.00532954
3.45977e-06
-0.00588989
4.11208e-06
-0.00645002
4.75478e-06
-0.00701
5.37621e-06
-0.00756958
5.9502e-06
-0.00812923
6.44823e-06
-0.00868802
6.84397e-06
-0.00924741
7.0922e-06
-0.00980516
7.21402e-06
-0.0103647
7.08166e-06
-0.0109207
6.7954e-06
-0.0114809
6.09386e-06
-0.0120346
5.27776e-06
-0.0125963
3.98729e-06
-0.0131466
2.31738e-06
-0.000280658
-0.000841992
4.57439e-08
-0.00140328
1.8252e-07
-0.00196463
4.07279e-07
-0.00252576
7.16533e-07
-0.00308702
1.10093e-06
-0.00364792
1.55628e-06
-0.00420894
2.06722e-06
-0.00476959
2.62846e-06
-0.00533019
3.21685e-06
-0.00589053
3.8234e-06
-0.00645064
4.42199e-06
-0.00701057
4.99976e-06
-0.00757008
5.53576e-06
-0.00812964
5.99785e-06
-0.00868827
6.36854e-06
-0.00924753
6.59502e-06
-0.00980502
6.71517e-06
-0.0103644
6.58385e-06
-0.01092
6.32498e-06
-0.0114801
5.63884e-06
-0.0120331
4.96057e-06
-0.0125948
3.64696e-06
-0.0131443
2.16385e-06
-0.000280703
-0.000842129
4.19906e-08
-0.00140351
1.67558e-07
-0.00196493
3.73921e-07
-0.00252615
6.57982e-07
-0.00308747
1.01091e-06
-0.00364843
1.42925e-06
-0.0042095
1.89852e-06
-0.00477017
2.41438e-06
-0.0053308
2.95529e-06
-0.00589113
3.51283e-06
-0.00645122
4.06458e-06
-0.0070111
4.59541e-06
-0.00757053
5.0914e-06
-0.00813002
5.51449e-06
-0.0086885
5.86128e-06
-0.00924764
6.0651e-06
-0.00980488
6.1856e-06
-0.0103641
6.05061e-06
-0.0109194
5.8233e-06
-0.0114794
5.12608e-06
-0.0120318
4.60323e-06
-0.0125933
3.34404e-06
-0.0131421
1.98763e-06
-0.000280745
-0.000842254
3.79607e-08
-0.00140371
1.51469e-07
-0.00196522
3.38028e-07
-0.0025265
5.94947e-07
-0.00308789
9.1402e-07
-0.0036489
1.29261e-06
-0.00421002
1.7171e-06
-0.00477072
2.18422e-06
-0.00533136
2.67445e-06
-0.00589168
3.17958e-06
-0.00645175
3.68176e-06
-0.0070116
4.16199e-06
-0.00757095
4.61603e-06
-0.00813037
4.99609e-06
-0.0086887
5.32137e-06
-0.00924776
5.50069e-06
-0.00980475
5.62297e-06
-0.0103639
5.47337e-06
-0.0109187
5.33713e-06
-0.0114789
4.95868e-06
-0.0120305
4.106e-06
-0.012592
3.03657e-06
-0.0131402
1.79549e-06
-0.000280783
-0.000842368
3.36769e-08
-0.0014039
1.34329e-07
-0.00196547
2.9972e-07
-0.00252682
5.27605e-07
-0.00308827
8.10415e-07
-0.00364932
1.14652e-06
-0.00421048
1.52314e-06
-0.00477121
1.93805e-06
-0.00533186
2.3743e-06
-0.00589219
2.82338e-06
-0.00645223
3.27346e-06
-0.00701205
3.69899e-06
-0.00757132
4.10945e-06
-0.0081307
4.44083e-06
-0.00868887
4.74975e-06
-0.00924789
4.90092e-06
-0.00980461
5.03061e-06
-0.0103637
4.8276e-06
-0.0109181
4.81995e-06
-0.0114782
4.36427e-06
-0.0120294
3.66777e-06
-0.0125907
2.72312e-06
-0.0131384
1.60863e-06
-0.000280817
-0.000842468
2.91515e-08
-0.00140407
1.16208e-07
-0.0019657
2.59164e-07
-0.0025271
4.56235e-07
-0.00308861
7.00509e-07
-0.0036497
9.91595e-07
-0.0042109
1.3175e-06
-0.00477164
1.67682e-06
-0.00533231
2.05582e-06
-0.00589264
2.44485e-06
-0.00645266
2.84099e-06
-0.00701246
3.20682e-06
-0.00757166
3.57364e-06
-0.008131
3.84719e-06
-0.00868902
4.14929e-06
-0.00924803
4.26367e-06
-0.00980438
4.43718e-06
-0.0103638
4.52899e-06
-0.0109176
4.15381e-06
-0.0114776
3.76483e-06
-0.0120285
3.20158e-06
-0.0125896
2.38812e-06
-0.0131367
1.40987e-06
-0.000280846
-0.000842555
2.43483e-08
-0.00140421
9.71187e-08
-0.0019659
2.16509e-07
-0.00252735
3.81269e-07
-0.0030889
5.85085e-07
-0.00365003
8.28941e-07
-0.00421126
1.10157e-06