/*--------------------------------*- C++ -*----------------------------------*\
  =========                 |
  \\      /  F ield         | OpenFOAM: The Open Source CFD Toolbox
   \\    /   O peration     | Website:  https://openfoam.org
    \\  /    A nd           | Version:  10
     \\/     M anipulation  |
\*---------------------------------------------------------------------------*/
FoamFile
{
    format      ascii;
    class       volScalarField;
    location    "0.49";
    object      T;
}
// * * * * * * * * * * * * * * * * * * * * * * * * * * * * * * * * * * * * * //

dimensions      [0 0 0 1 0 0 0];

internalField   nonuniform List<scalar> 
4176
(
180.347
180.351
180.373
180.382
180.426
180.444
180.507
180.537
180.614
180.66
180.749
180.809
180.913
180.985
181.101
181.192
181.306
181.43
181.534
181.703
181.777
182.011
182.026
182.325
180.356
180.36
180.382
180.392
180.437
180.456
180.519
180.552
180.628
180.677
180.767
180.83
180.935
181.01
181.128
181.221
181.339
181.465
181.571
181.743
181.818
182.063
182.08
182.41
180.384
180.388
180.41
180.42
180.463
180.482
180.543
180.575
180.649
180.698
180.785
180.847
180.95
181.022
181.139
181.229
181.346
181.468
181.572
181.74
181.81
182.05
182.068
182.408
180.436
180.44
180.461
180.471
180.514
180.534
180.594
180.627
180.701
180.749
180.837
180.897
181.001
181.073
181.191
181.28
181.398
181.522
181.622
181.794
181.862
182.099
182.114
182.438
180.511
180.515
180.536
180.546
180.588
180.607
180.667
180.699
180.773
180.82
180.907
180.967
181.07
181.14
181.258
181.344
181.464
181.586
181.683
181.857
181.923
182.157
182.173
182.486
180.61
180.614
180.635
180.644
180.687
180.706
180.765
180.797
180.869
180.917
181.002
181.062
181.164
181.234
181.351
181.436
181.558
181.673
181.777
181.945
182.013
182.245
182.264
182.577
180.733
180.737
180.758
180.767
180.809
180.828
180.886
180.918
180.989
181.036
181.12
181.18
181.28
181.35
181.465
181.549
181.671
181.782
181.889
182.051
182.122
182.35
182.371
182.683
180.88
180.884
180.904
180.914
180.955
180.973
181.031
181.063
181.133
181.18
181.263
181.322
181.421
181.489
181.604
181.686
181.808
181.914
182.024
182.181
182.254
182.478
182.501
182.808
181.05
181.055
181.075
181.084
181.125
181.143
181.2
181.231
181.3
181.346
181.428
181.486
181.584
181.652
181.765
181.845
181.967
182.069
182.181
182.332
182.408
182.627
182.651
182.954
181.245
181.249
181.269
181.278
181.318
181.336
181.393
181.423
181.491
181.537
181.618
181.675
181.771
181.837
181.949
182.028
182.148
182.248
182.361
182.506
182.583
182.799
182.824
183.121
181.463
181.467
181.487
181.496
181.536
181.553
181.609
181.638
181.706
181.75
181.83
181.886
181.981
182.046
182.157
182.233
182.353
182.449
182.563
182.703
182.782
182.99
183.017
183.309
181.705
181.709
181.729
181.737
181.777
181.793
181.848
181.877
181.944
181.988
182.066
182.121
182.215
182.278
182.387
182.461
182.58
182.673
182.787
182.922
183.002
183.205
183.233
183.519
181.971
181.975
181.994
182.002
182.041
182.057
182.112
182.14
182.205
182.248
182.325
182.379
182.471
182.533
182.64
182.713
182.829
182.92
183.033
183.163
183.245
183.441
183.47
183.75
182.26
182.264
182.283
182.291
182.329
182.345
182.398
182.426
182.49
182.532
182.608
182.66
182.751
182.811
182.916
182.987
183.102
183.189
183.302
183.427
183.509
183.7
183.728
184.003
182.573
182.577
182.596
182.603
182.641
182.656
182.709
182.735
182.799
182.839
182.913
182.964
183.053
183.112
183.215
183.284
183.397
183.481
183.593
183.713
183.796
183.98
184.008
184.277
182.91
182.914
182.932
182.939
182.977
182.991
183.043
183.068
183.13
183.17
183.242
183.292
183.379
183.435
183.537
183.603
183.714
183.795
183.907
184.022
184.104
184.282
184.311
184.573
183.271
183.274
183.293
183.299
183.336
183.349
183.4
183.425
183.485
183.523
183.595
183.642
183.728
183.782
183.882
183.945
184.054
184.132
184.242
184.352
184.435
184.606
184.635
184.891
183.655
183.659
183.676
183.683
183.719
183.731
183.781
183.805
183.864
183.901
183.97
184.016
184.099
184.152
184.249
184.31
184.417
184.492
184.6
184.705
184.788
184.952
184.982
185.23
184.063
184.067
184.084
184.09
184.125
184.137
184.186
184.208
184.266
184.301
184.369
184.413
184.494
184.544
184.639
184.698
184.802
184.874
184.98
185.08
185.162
185.32
185.35
185.591
184.495
184.498
184.515
184.52
184.555
184.566
184.614
184.635
184.691
184.725
184.79
184.833
184.912
184.96
185.052
185.108
185.21
185.278
185.382
185.477
185.559
185.71
185.74
185.973
184.95
184.954
184.97
184.975
185.009
185.019
185.065
185.085
185.14
185.172
185.235
185.276
185.352
185.398
185.488
185.541
185.64
185.705
185.806
185.896
185.977
186.122
186.151
186.377
185.429
185.433
185.449
185.453
185.486
185.495
185.54
185.559
185.612
185.642
185.704
185.742
185.816
185.859
185.946
185.997
186.092
186.154
186.252
186.338
186.418
186.555
186.584
186.803
185.932
185.935
185.951
185.955
185.987
185.995
186.039
186.056
186.107
186.135
186.195
186.231
186.303
186.343
186.427
186.475
186.568
186.626
186.721
186.802
186.88
187.01
187.039
187.251
186.458
186.461
186.477
186.48
186.511
186.518
186.56
186.576
186.625
186.652
186.709
186.743
186.812
186.85
186.931
186.976
187.065
187.12
187.212
187.288
187.364
187.488
187.515
187.72
187.008
187.011
187.026
187.028
187.058
187.064
187.105
187.119
187.167
187.191
187.247
187.278
187.344
187.38
187.457
187.499
187.585
187.636
187.725
187.796
187.87
187.987
188.014
188.21
187.581
187.583
187.598
187.6
187.629
187.634
187.674
187.686
187.732
187.754
187.807
187.836
187.899
187.932
188.007
188.045
188.128
188.175
188.26
188.327
188.399
188.508
188.534
188.722
188.177
188.179
188.193
188.194
188.223
188.227
188.265
188.275
188.319
188.34
188.39
188.416
188.477
188.507
188.578
188.614
188.693
188.736
188.818
188.88
188.949
189.052
189.077
189.256
188.796
188.798
188.812
188.812
188.84
188.842
188.879
188.888
188.93
188.948
188.996
189.02
189.078
189.104
189.173
189.204
189.28
189.32
189.398
189.455
189.522
189.617
189.642
189.811
189.438
189.44
189.453
189.453
189.479
189.481
189.516
189.523
189.563
189.579
189.625
189.646
189.701
189.724
189.79
189.818
189.89
189.926
190
190.053
190.116
190.205
190.226
190.39
190.102
190.104
190.117
190.116
190.142
190.142
190.176
190.181
190.219
190.233
190.276
190.295
190.347
190.367
190.429
190.454
190.522
190.554
190.624
190.672
190.733
190.814
190.834
190.989
190.789
190.791
190.803
190.802
190.826
190.825
190.858
190.862
190.898
190.909
190.95
190.966
191.015
191.032
191.091
191.112
191.177
191.204
191.271
191.314
191.371
191.445
191.465
191.609
191.498
191.5
191.512
191.51
191.533
191.531
191.562
191.564
191.599
191.608
191.646
191.659
191.706
191.72
191.775
191.792
191.854
191.877
191.94
191.978
192.031
192.099
192.117
192.252
192.23
192.231
192.243
192.24
192.262
192.259
192.289
192.289
192.321
192.329
192.365
192.375
192.419
192.429
192.482
192.495
192.553
192.572
192.631
192.664
192.713
192.775
192.791
192.917
192.983
192.984
192.995
192.992
193.013
193.009
193.037
193.036
193.066
193.071
193.105
193.113
193.154
193.161
193.21
193.22
193.274
193.289
193.344
193.372
193.418
193.473
193.487
193.604
193.758
193.759
193.769
193.765
193.786
193.78
193.807
193.804
193.833
193.836
193.867
193.872
193.91
193.915
193.961
193.967
194.018
194.028
194.079
194.102
194.144
194.193
194.206
194.312
194.554
194.555
194.565
194.56
194.58
194.573
194.599
194.594
194.621
194.622
194.651
194.653
194.689
194.69
194.733
194.736
194.783
194.789
194.836
194.855
194.892
194.935
194.945
195.043
195.371
195.373
195.382
195.377
195.396
195.388
195.412
195.406
195.431
195.429
195.456
195.456
195.489
195.487
195.527
195.526
195.57
195.571
195.615
195.629
195.662
195.7
195.707
195.795
196.21
196.211
196.22
196.214
196.232
196.223
196.246
196.238
196.261
196.258
196.283
196.28
196.31
196.305
196.342
196.337
196.378
196.376
196.416
196.425
196.455
196.486
196.49
196.568
197.069
197.07
197.079
197.072
197.09
197.08
197.101
197.092
197.113
197.108
197.13
197.125
197.153
197.145
197.178
197.17
197.208
197.201
197.238
197.242
197.268
197.294
197.295
197.364
197.949
197.95
197.958
197.951
197.968
197.957
197.977
197.966
197.986
197.979
197.999
197.991
198.017
198.006
198.036
198.024
198.058
198.047
198.081
198.079
198.103
198.122
198.121
198.181
198.85
198.85
198.858
198.85
198.866
198.854
198.873
198.861
198.879
198.87
198.888
198.878
198.901
198.887
198.915
198.899
198.93
198.915
198.945
198.938
198.958
198.972
198.967
199.02
199.77
199.771
199.779
199.77
199.785
199.772
199.79
199.776
199.793
199.782
199.798
199.786
199.806
199.789
199.814
199.795
199.823
199.803
199.83
199.818
199.835
199.843
199.835
199.88
200.711
200.712
200.719
200.71
200.724
200.71
200.727
200.712
200.727
200.714
200.728
200.713
200.731
200.712
200.734
200.711
200.737
200.712
200.737
200.719
200.733
200.734
200.723
200.761
201.672
201.672
201.679
201.67
201.683
201.668
201.683
201.667
201.68
201.666
201.678
201.661
201.676
201.654
201.673
201.647
201.67
201.641
201.663
201.641
201.652
201.646
201.633
201.662
202.652
202.652
202.659
202.649
202.661
202.645
202.66
202.642
202.653
202.637
202.647
202.628
202.641
202.616
202.633
202.603
202.624
202.59
202.61
202.582
202.59
202.579
202.564
202.584
203.652
203.652
203.658
203.647
203.659
203.642
203.655
203.636
203.646
203.628
203.636
203.615
203.626
203.597
203.612
203.579
203.597
203.559
203.576
203.543
203.549
203.53
203.515
203.527
204.67
204.67
204.676
204.665
204.676
204.658
204.67
204.649
204.658
204.638
204.644
204.62
204.629
204.598
204.61
204.574
204.589
204.548
204.561
204.523
204.528
204.502
204.486
204.488
205.707
205.707
205.713
205.701
205.711
205.693
205.703
205.682
205.688
205.667
205.671
205.645
205.651
205.618
205.627
205.587
205.6
205.555
205.566
205.522
205.526
205.493
205.476
205.47
206.763
206.763
206.768
206.755
206.765
206.745
206.755
206.732
206.737
206.714
206.716
206.688
206.692
206.656
206.662
206.62
206.631
206.58
206.59
206.54
206.543
206.502
206.487
206.471
207.836
207.836
207.841
207.828
207.836
207.816
207.824
207.8
207.804
207.779
207.779
207.749
207.751
207.712
207.716
207.67
207.679
207.624
207.632
207.577
207.579
207.53
207.515
207.49
208.926
208.926
208.931
208.917
208.925
208.904
208.911
208.886
208.888
208.861
208.86
208.827
208.827
208.786
208.788
208.738
208.745
208.686
208.693
208.632
208.633
208.576
208.562
208.528
210.033
210.033
210.037
210.023
210.031
210.009
210.015
209.988
209.989
209.961
209.957
209.923
209.921
209.877
209.877
209.824
209.829
209.765
209.772
209.703
209.707
209.641
209.626
209.585
211.157
211.156
211.16
211.146
211.152
211.129
211.135
211.107
211.106
211.077
211.072
211.035
211.032
210.985
210.984
210.927
210.931
210.862
210.868
210.792
210.796
210.724
210.708
210.66
212.295
212.295
212.298
212.284
212.29
212.266
212.27
212.241
212.239
212.209
212.202
212.163
212.159
212.108
212.107
212.045
212.049
211.973
211.983
211.899
211.903
211.824
211.807
211.752
213.449
213.448
213.452
213.436
213.442
213.417
213.421
213.391
213.388
213.356
213.348
213.307
213.301
213.248
213.247
213.178
213.185
213.103
213.111
213.024
213.024
212.942
212.924
212.862
214.616
214.615
214.619
214.603
214.608
214.583
214.586
214.555
214.551
214.517
214.509
214.465
214.46
214.402
214.402
214.328
214.335
214.248
214.256
214.164
214.164
214.076
214.057
213.989
215.797
215.796
215.799
215.783
215.788
215.763
215.764
215.732
215.728
215.692
215.684
215.637
215.632
215.57
215.571
215.493
215.499
215.41
215.414
215.32
215.318
215.226
215.206
215.131
216.99
216.99
216.992
216.977
216.98
216.955
216.956
216.923
216.918
216.88
216.873
216.822
216.818
216.754
216.753
216.674
216.677
216.585
216.589
216.491
216.488
216.391
216.37
216.29
218.195
218.195
218.197
218.182
218.185
218.159
218.159
218.126
218.121
218.081
218.073
218.021
218.016
217.95
217.948
217.867
217.869
217.776
217.777
217.677
217.671
217.571
217.549
217.464
219.412
219.411
219.413
219.398
219.4
219.375
219.374
219.341
219.335
219.294
219.285
219.233
219.226
219.16
219.156
219.074
219.074
218.979
218.978
218.876
218.87
218.765
218.743
218.652
220.638
220.638
220.64
220.624
220.627
220.601
220.599
220.567
220.559
220.519
220.509
220.456
220.448
220.381
220.376
220.293
220.291
220.195
220.193
220.088
220.08
219.974
219.95
219.855
221.875
221.875
221.877
221.861
221.864
221.837
221.835
221.803
221.793
221.755
221.742
221.691
221.681
221.614
221.607
221.523
221.52
221.423
221.42
221.313
221.304
221.194
221.171
221.07
223.122
223.121
223.124
223.107
223.11
223.084
223.081
223.049
223.038
223.001
222.986
222.936
222.923
222.857
222.849
222.765
222.76
222.662
222.658
222.549
222.539
222.427
222.403
222.298
224.377
224.377
224.379
224.363
224.365
224.339
224.336
224.304
224.292
224.256
224.239
224.19
224.176
224.11
224.101
224.016
224.01
223.911
223.906
223.795
223.785
223.67
223.646
223.538
225.641
225.64
225.643
225.627
225.629
225.603
225.6
225.568
225.555
225.52
225.501
225.453
225.437
225.372
225.362
225.276
225.27
225.169
225.163
225.051
225.04
224.924
224.899
224.788
226.913
226.913
226.915
226.899
226.902
226.875
226.872
226.84
226.827
226.792
226.772
226.725
226.708
226.642
226.631
226.544
226.538
226.436
226.429
226.317
226.304
226.186
226.162
226.047
228.193
228.193
228.196
228.179
228.182
228.155
228.152
228.12
228.106
228.071
228.05
228.004
227.985
227.92
227.907
227.821
227.814
227.71
227.704
227.59
227.577
227.458
227.432
227.316
229.481
229.481
229.484
229.467
229.47
229.443
229.439
229.407
229.392
229.358
229.336
229.29
229.269
229.204
229.191
229.104
229.096
228.993
228.984
228.87
228.856
228.735
228.71
228.592
230.777
230.777
230.779
230.763
230.765
230.737
230.734
230.701
230.686
230.651
230.627
230.582
230.559
230.495
230.48
230.393
230.384
230.28
230.272
230.156
230.142
230.02
229.995
229.875
232.079
232.079
232.081
232.064
232.066
232.038
232.034
232
231.985
231.95
231.924
231.879
231.855
231.791
231.774
231.687
231.678
231.574
231.564
231.447
231.433
231.311
231.286
231.164
233.387
233.387
233.389
233.371
233.373
233.344
233.339
233.305
233.288
233.253
233.226
233.182
233.155
233.092
233.072
232.987
232.976
232.871
232.862
232.744
232.73
232.607
232.582
232.459
234.697
234.697
234.699
234.681
234.683
234.653
234.648
234.613
234.596
234.56
234.531
234.487
234.458
234.397
234.373
234.291
234.279
234.173
234.163
234.046
234.031
233.907
233.883
233.759
236.008
236.008
236.01
235.992
235.993
235.964
235.958
235.923
235.905
235.869
235.839
235.796
235.764
235.705
235.678
235.599
235.582
235.48
235.468
235.352
235.337
235.214
235.189
235.065
237.317
237.317
237.319
237.301
237.302
237.272
237.268
237.232
237.214
237.178
237.149
237.106
237.073
237.016
236.987
236.91
236.89
236.791
236.778
236.662
236.647
236.524
236.5
236.376
238.619
238.619
238.622
238.604
238.607
238.577
238.573
238.539
238.522
238.487
238.458
238.417
238.384
238.329
238.298
238.224
238.201
238.107
238.092
237.976
237.962
237.841
237.817
237.694
239.914
239.914
239.918
239.9
239.904
239.876
239.874
239.841
239.826
239.793
239.766
239.727
239.695
239.643
239.612
239.542
239.518
239.426
239.408
239.298
239.283
239.162
239.139
239.017
241.2
241.201
241.206
241.189
241.195
241.169
241.169
241.138
241.126
241.096
241.072
241.035
241.006
240.957
240.928
240.862
240.838
240.751
240.732
240.624
240.61
240.489
240.468
240.345
242.481
242.482
242.488
242.473
242.48
242.456
242.459
242.431
242.422
242.395
242.374
242.342
242.316
242.271
242.245
242.184
242.161
242.08
242.06
241.958
241.943
241.823
241.803
241.68
243.763
243.764
243.77
243.756
243.765
243.743
243.748
243.722
243.716
243.693
243.675
243.647
243.625
243.584
243.563
243.505
243.487
243.409
243.395
243.294
243.284
243.165
243.146
243.023
245.053
245.055
245.061
245.049
245.058
245.038
245.043
245.02
245.015
244.994
244.978
244.954
244.933
244.897
244.88
244.823
244.815
244.735
244.731
244.63
244.628
244.511
244.497
244.376
246.364
246.367
246.373
246.36
246.369
246.349
246.354
246.331
246.325
246.306
246.29
246.267
246.247
246.214
246.199
246.142
246.141
246.059
246.065
245.964
245.97
245.856
245.848
245.736
247.708
247.71
247.717
247.702
247.711
247.688
247.692
247.666
247.66
247.637
247.62
247.595
247.574
247.541
247.522
247.47
247.465
247.388
247.392
247.294
247.304
247.192
247.19
247.084
249.094
249.096
249.101
249.085
249.092
249.066
249.068
249.038
249.028
249
248.979
248.949
248.923
248.887
248.861
248.81
248.796
248.72
248.724
248.622
248.635
248.519
248.522
248.415
250.529
250.53
250.535
250.516
250.521
250.491
250.489
250.454
250.439
250.406
250.377
250.341
250.307
250.264
250.229
250.172
250.148
250.07
250.063
249.956
249.968
249.844
249.85
249.736
252.014
252.015
252.018
251.998
252
251.967
251.96
251.921
251.899
251.861
251.823
251.781
251.736
251.684
251.637
251.571
251.536
251.443
251.43
251.308
251.315
251.177
251.183
251.054
253.546
253.548
253.549
253.528
253.528
253.492
253.481
253.438
253.411
253.367
253.322
253.272
253.218
253.157
253.098
253.022
252.97
252.866
252.835
252.697
252.691
252.533
252.533
252.382
255.119
255.12
255.122
255.098
255.098
255.059
255.047
255
254.97
254.92
254.873
254.815
254.755
254.685
254.616
254.532
254.461
254.352
254.295
254.149
254.118
253.936
253.923
253.736
256.721
256.722
256.724
256.7
256.699
256.659
256.646
256.597
256.566
256.514
256.464
256.403
256.339
256.265
256.19
256.1
256.017
255.907
255.823
255.68
255.613
255.421
255.382
255.149
258.342
258.342
258.345
258.321
258.32
258.28
258.267
258.218
258.187
258.135
258.084
258.023
257.958
257.883
257.806
257.715
257.628
257.516
257.423
257.283
257.192
257.004
256.939
256.671
259.968
259.969
259.972
259.948
259.948
259.909
259.897
259.849
259.819
259.768
259.718
259.659
259.595
259.523
259.447
259.359
259.273
259.165
259.072
258.936
258.844
258.662
258.593
258.328
261.589
261.59
261.594
261.571
261.572
261.534
261.524
261.478
261.45
261.401
261.354
261.298
261.237
261.168
261.096
261.013
260.93
260.828
260.741
260.61
260.528
260.352
260.294
260.053
263.196
263.197
263.201
263.179
263.182
263.145
263.137
263.093
263.067
263.022
262.977
262.926
262.868
262.805
262.736
262.659
262.582
262.488
262.406
262.284
262.21
262.046
261.993
261.771
264.779
264.781
264.786
264.765
264.768
264.733
264.727
264.686
264.663
264.621
264.58
264.533
264.479
264.421
264.357
264.287
264.214
264.129
264.053
263.941
263.874
263.723
263.673
263.471
266.333
266.335
266.34
266.32
266.325
266.293
266.288
266.25
266.228
266.192
266.152
266.111
266.06
266.009
265.949
265.887
265.819
265.742
265.672
265.57
265.508
265.372
265.325
265.141
267.851
267.854
267.859
267.841
267.846
267.817
267.813
267.779
267.759
267.727
267.689
267.655
267.605
267.563
267.505
267.452
267.387
267.32
267.254
267.165
267.106
266.984
266.94
266.775
269.331
269.334
269.34
269.323
269.329
269.301
269.3
269.268
269.251
269.223
269.188
269.158
269.112
269.076
269.021
268.976
268.916
268.857
268.797
268.716
268.662
268.554
268.513
268.366
270.768
270.771
270.778
270.761
270.77
270.742
270.744
270.714
270.701
270.674
270.644
270.617
270.577
270.544
270.495
270.456
270.4
270.35
270.293
270.225
270.174
270.079
270.04
269.91
272.161
272.164
272.172
272.156
272.166
272.139
272.144
272.115
272.105
272.081
272.055
272.031
271.995
271.966
271.923
271.888
271.839
271.795
271.742
271.685
271.638
271.555
271.518
271.405
273.508
273.511
273.519
273.504
273.515
273.49
273.497
273.469
273.463
273.44
273.419
273.397
273.366
273.341
273.303
273.273
273.228
273.191
273.143
273.097
273.051
272.981
272.946
272.848
274.808
274.811
274.82
274.805
274.818
274.793
274.802
274.776
274.772
274.752
274.734
274.715
274.688
274.667
274.634
274.608
274.568
274.538
274.494
274.455
274.412
274.356
274.321
274.239
276.06
276.063
276.072
276.058
276.071
276.049
276.058
276.035
276.033
276.016
276
275.985
275.961
275.943
275.914
275.893
275.858
275.833
275.793
275.763
275.722
275.676
275.645
275.576
277.264
277.267
277.277
277.262
277.278
277.255
277.268
277.245
277.246
277.23
277.217
277.204
277.184
277.17
277.145
277.128
277.097
277.077
277.041
277.018
276.98
276.946
276.915
276.859
278.42
278.423
278.432
278.421
278.433
278.417
278.425
278.408
278.408
278.397
278.385
278.375
278.358
278.347
278.325
278.313
278.285
278.27
278.239
278.221
278.188
278.162
278.133
278.089
279.529
279.531
279.543
279.527
279.548
279.523
279.542
279.519
279.526
279.513
279.506
279.497
279.483
279.475
279.456
279.447
279.423
279.414
279.386
279.374
279.343
279.326
279.297
279.265
280.591
280.594
280.602
280.595
280.603
280.595
280.6
280.591
280.59
280.585
280.576
280.572
280.56
280.554
280.539
280.533
280.512
280.507
280.482
280.475
280.449
280.438
280.411
280.389
281.606
281.608
281.621
281.605
281.629
281.603
281.627
281.603
281.617
281.604
281.603
281.598
281.589
281.586
281.573
281.571
281.553
281.551
281.53
281.528
281.503
281.499
281.474
281.461
282.578
282.581
282.586
282.586
282.587
282.59
282.586
282.59
282.584
282.587
282.579
282.58
282.572
282.571
282.561
282.561
282.546
282.548
282.529
282.531
282.51
282.511
282.488
282.484
283.504
283.505
283.52
283.501
283.531
283.5
283.533
283.505
283.525
283.512
283.517
283.514
283.51
283.511
283.503
283.506
283.493
283.498
283.482
283.489
283.47
283.475
283.454
283.457
284.388
284.393
284.392
284.403
284.391
284.411
284.394
284.412
284.398
284.411
284.402
284.409
284.403
284.407
284.401
284.406
284.396
284.403
284.39
284.399
284.383
284.394
284.374
284.384
285.23
285.23
285.247
285.224
285.262
285.224
285.266
285.233
285.262
285.246
285.256
285.255
285.255
285.259
285.255
285.262
285.254
285.264
285.254
285.266
285.252
285.267
285.249
285.264
286.032
286.039
286.033
286.052
286.03
286.064
286.034
286.067
286.044
286.066
286.055
286.067
286.063
286.071
286.068
286.077
286.071
286.084
286.074
286.089
286.078
286.096
286.08
286.1
286.796
286.794
286.812
286.789
286.828
286.79
286.835
286.801
286.834
286.817
286.832
286.831
286.835
286.841
286.841
286.851
286.847
286.861
286.854
286.872
286.861
286.883
286.868
286.893
287.52
287.528
287.52
287.542
287.519
287.554
287.524
287.56
287.537
287.563
287.552
287.566
287.564
287.575
287.575
287.587
287.584
287.6
287.594
287.614
287.605
287.63
287.616
287.644
288.212
288.21
288.225
288.209
288.238
288.212
288.247
288.223
288.251
288.239
288.254
288.255
288.261
288.27
288.272
288.285
288.283
288.301
288.297
288.318
288.31
288.338
288.325
288.356
288.865
288.873
288.866
288.884
288.869
288.894
288.876
288.903
288.889
288.91
288.904
288.918
288.919
288.931
288.933
288.947
288.947
288.966
288.962
288.986
288.979
289.009
288.998
289.03
289.489
289.489
289.499
289.491
289.509
289.498
289.517
289.509
289.525
289.524
289.534
289.54
289.546
289.557
289.561
289.576
289.576
289.596
289.594
289.619
289.613
289.645
289.634
289.669
290.078
290.084
290.08
290.093
290.086
290.102
290.096
290.111
290.109
290.121
290.123
290.135
290.138
290.151
290.156
290.171
290.173
290.195
290.192
290.218
290.214
290.247
290.24
290.27
290.64
290.64
290.648
290.644
290.657
290.652
290.664
290.666
290.674
290.681
290.686
290.697
290.702
290.715
290.72
290.736
290.739
290.76
290.76
290.787
290.782
290.817
290.808
290.846
291.17
291.175
291.173
291.184
291.178
291.193
291.189
291.201
291.204
291.213
291.219
291.23
291.235
291.249
291.254
291.271
291.274
291.297
291.297
291.324
291.321
291.356
291.349
291.387
291.675
291.676
291.682
291.68
291.69
291.688
291.699
291.702
291.709
291.718
291.723
291.735
291.741
291.755
291.761
291.778
291.782
291.804
291.805
291.834
291.831
291.866
291.86
291.9
292.152
292.156
292.155
292.163
292.161
292.172
292.172
292.183
292.186
292.196
292.201
292.214
292.219
292.234
292.24
292.258
292.262
292.286
292.288
292.315
292.314
292.35
292.343
292.386
292.605
292.607
292.609
292.613
292.617
292.622
292.627
292.633
292.64
292.648
292.655
292.667
292.673
292.688
292.694
292.712
292.718
292.741
292.743
292.772
292.771
292.807
292.802
292.844
293.034
293.036
293.039
293.041
293.046
293.05
293.055
293.063
293.068
293.078
293.083
293.097
293.103
293.118
293.124
293.143
293.148
293.171
293.175
293.203
293.203
293.24
293.234
293.278
293.44
293.443
293.443
293.45
293.449
293.459
293.46
293.47
293.474
293.484
293.491
293.503
293.51
293.524
293.531
293.55
293.556
293.579
293.582
293.612
293.612
293.648
293.644
293.687
293.825
293.827
293.829
293.832
293.837
293.841
293.847
293.853
293.86
293.868
293.876
293.887
293.895
293.909
293.917
293.935
293.941
293.965
293.969
293.997
293.998
294.035
294.03
294.074
294.19
294.192
294.194
294.197
294.201
294.206
294.21
294.218
294.223
294.234
294.239
294.252
294.259
294.274
294.281
294.3
294.306
294.33
294.333
294.363
294.363
294.4
294.397
294.439
294.535
294.537
294.538
294.544
294.543
294.552
294.554
294.563
294.568
294.578
294.585
294.597
294.604
294.619
294.626
294.645
294.651
294.675
294.679
294.708
294.708
294.745
294.741
294.785
294.862
294.863
294.866
294.868
294.873
294.876
294.883
294.888
294.896
294.904
294.912
294.923
294.931
294.945
294.953
294.972
294.978
295.001
295.005
295.035
295.036
295.071
295.068
295.11
295.172
295.173
295.175
295.178
295.181
295.187
295.19
295.199
295.203
295.214
295.22
295.233
295.24
295.255
295.262
295.28
295.287
295.31
295.315
295.343
295.344
295.38
295.376
295.419
295.465
295.466
295.467
295.472
295.472
295.481
295.483
295.492
295.497
295.506
295.513
295.525
295.532
295.547
295.554
295.573
295.579
295.602
295.607
295.635
295.636
295.672
295.669
295.71
295.742
295.743
295.747
295.746
295.755
295.753
295.764
295.766
295.776
295.782
295.791
295.801
295.809
295.824
295.831
295.849
295.856
295.879
295.883
295.912
295.912
295.948
295.945
295.986
296.005
296.007
296.006
296.014
296.01
296.023
296.019
296.034
296.033
296.047
296.051
296.064
296.071
296.085
296.093
296.111
296.118
296.14
296.145
296.172
296.174
296.209
296.206
296.247
296.254
296.254
296.259
296.256
296.267
296.263
296.277
296.274
296.288
296.291
296.302
296.311
296.319
296.333
296.34
296.359
296.365
296.387
296.392
296.421
296.42
296.456
296.452
296.494
296.489
296.491
296.49
296.498
296.494
296.507
296.503
296.518
296.516
296.53
296.534
296.547
296.553
296.568
296.575
296.593
296.6
296.621
296.626
296.654
296.659
296.686
296.687
296.725
296.712
296.712
296.718
296.713
296.725
296.72
296.735
296.732
296.745
296.749
296.758
296.768
296.776
296.79
296.796
296.814
296.821
296.842
296.848
296.875
296.877
296.908
296.907
296.947
296.923
296.925
296.923
296.932
296.927
296.941
296.936
296.95
296.95
296.962
296.967
296.979
296.985
297
297.006
297.024
297.031
297.052
297.056
297.083
297.085
297.118
297.116
297.154
297.123
297.122
297.128
297.124
297.135
297.13
297.144
297.142
297.154
297.158
297.167
297.177
297.185
297.198
297.204
297.222
297.229
297.25
297.255
297.281
297.283
297.314
297.312
297.35
297.311
297.313
297.312
297.318
297.317
297.327
297.325
297.337
297.338
297.35
297.354
297.366
297.372
297.386
297.392
297.41
297.416
297.437
297.441
297.467
297.468
297.502
297.499
297.536
297.491
297.49
297.494
297.493
297.5
297.501
297.508
297.511
297.519
297.526
297.533
297.543
297.55
297.564
297.57
297.587
297.593
297.614
297.617
297.645
297.646
297.677
297.675
297.711
297.659
297.66
297.661
297.664
297.667
297.671
297.675
297.681
297.686
297.695
297.701
297.712
297.718
297.732
297.738
297.755
297.761
297.781
297.786
297.81
297.811
297.844
297.84
297.877
297.819
297.82
297.821
297.824
297.826
297.832
297.834
297.842
297.845
297.855
297.86
297.871
297.877
297.891
297.896
297.914
297.919
297.939
297.943
297.969
297.971
298
297.998
298.032
297.971
297.971
297.974
297.973
297.981
297.979
297.989
297.989
297.999
298.004
298.011
298.021
298.027
298.041
298.047
298.064
298.067
298.09
298.092
298.118
298.117
298.15
298.145
298.182
298.113
298.115
298.113
298.122
298.116
298.13
298.123
298.139
298.136
298.15
298.152
298.164
298.169
298.183
298.189
298.205
298.21
298.229
298.234
298.258
298.26
298.289
298.287
298.32
298.249
298.248
298.255
298.248
298.263
298.252
298.271
298.263
298.279
298.28
298.289
298.298
298.303
298.317
298.323
298.339
298.343
298.364
298.366
298.393
298.391
298.423
298.418
298.453
298.376
298.379
298.374
298.388
298.375
298.397
298.382
298.405
298.396
298.414
298.412
298.427
298.429
298.444
298.449
298.466
298.468
298.491
298.493
298.517
298.518
298.546
298.544
298.576
298.498
298.495
298.504
298.494
298.514
298.498
298.521
298.509
298.528
298.526
298.536
298.545
298.551
298.563
298.568
298.586
298.588
298.609
298.61
298.637
298.635
298.666
298.662
298.694
298.611
298.615
298.607
298.624
298.607
298.634
298.614
298.641
298.628
298.648
298.645
298.66
298.662
298.677
298.681
298.698
298.7
298.723
298.723
298.747
298.749
298.776
298.773
298.805
298.719
298.716
298.726
298.715
298.735
298.718
298.743
298.73
298.749
298.747
298.757
298.765
298.77
298.784
298.787
298.805
298.807
298.827
298.829
298.854
298.852
298.882
298.878
298.91
298.819
298.824
298.816
298.832
298.816
298.841
298.823
298.848
298.837
298.856
298.853
298.868
298.869
298.884
298.888
298.905
298.906
298.929
298.929
298.951
298.953
298.98
298.978
299.008
298.916
298.914
298.922
298.913
298.929
298.918
298.936
298.929
298.943
298.944
298.952
298.961
298.965
298.979
298.982
298.999
299.001
299.02
299.022
299.047
299.046
299.074
299.071
299.101
299.005
299.008
299.003
299.015
299.005
299.022
299.012
299.03
299.024
299.039
299.038
299.052
299.054
299.068
299.071
299.088
299.089
299.111
299.112
299.133
299.134
299.161
299.159
299.187
299.09
299.09
299.094
299.091
299.1
299.096
299.106
299.106
299.114
299.119
299.124
299.135
299.138
299.151
299.155
299.171
299.174
299.192
299.193
299.218
299.218
299.242
299.242
299.27
299.169
299.172
299.169
299.177
299.172
299.183
299.179
299.191
299.189
299.201
299.202
299.215
299.216
299.23
299.233
299.25
299.25
299.272
299.273
299.293
299.294
299.321
299.319
299.347
299.244
299.244
299.247
299.246
299.252
299.252
299.259
299.261
299.266
299.273
299.277
299.288
299.29
299.304
299.307
299.324
299.326
299.343
299.344
299.368
299.369
299.391
299.392
299.418
299.314
299.316
299.314
299.32
299.318
299.326
299.324
299.334
299.334
299.344
299.346
299.358
299.36
299.373
299.376
299.392
299.393
299.414
299.415
299.435
299.435
299.461
299.459
299.486
299.38
299.38
299.382
299.383