/*--------------------------------*- C++ -*----------------------------------*\
  =========                 |
  \\      /  F ield         | OpenFOAM: The Open Source CFD Toolbox
   \\    /   O peration     | Website:  https://openfoam.org
    \\  /    A nd           | Version:  10
     \\/     M anipulation  |
\*---------------------------------------------------------------------------*/
FoamFile
{
    format      ascii;
    class       volVectorField;
    location    "0.49";
    object      U;
}
// * * * * * * * * * * * * * * * * * * * * * * * * * * * * * * * * * * * * * //

dimensions      [0 1 -1 0 0 0 0];

internalField   nonuniform List<vector> 
4176
(
(497.488 -0.0140579 -7.36273e-09)
(497.474 0.063647 2.10233e-09)
(497.45 0.00158573 -7.31147e-10)
(497.4 0.0903475 -8.27722e-11)
(497.346 0.0511784 -2.28142e-10)
(497.271 0.0895399 -5.56222e-10)
(497.181 0.125976 -2.18929e-10)
(497.088 0.0605025 4.71794e-10)
(496.954 0.225304 8.1598e-10)
(496.848 0.00484956 7.20191e-10)
(496.672 0.344407 4.17798e-10)
(496.549 -0.0690311 2.78569e-10)
(496.339 0.469814 4.4545e-11)
(496.191 -0.139449 -2.94358e-10)
(495.956 0.567788 -4.10312e-10)
(495.773 -0.13554 -2.52513e-10)
(495.536 0.52849 -1.93629e-10)
(495.286 0.0236399 -1.42557e-11)
(495.073 0.33483 2.92261e-10)
(494.73 0.322894 1.61941e-10)
(494.575 -0.0170842 -1.27309e-10)
(494.097 0.771908 -1.19082e-10)
(494.067 -0.515971 1.92334e-10)
(493.444 1.44217 3.30308e-10)
(497.47 0.00500919 -7.36143e-09)
(497.455 0.114474 2.10235e-09)
(497.431 0.0766312 -7.31239e-10)
(497.379 0.203257 -8.35707e-11)
(497.325 0.186428 -2.28023e-10)
(497.247 0.264258 -5.55711e-10)
(497.156 0.321884 -2.19545e-10)
(497.059 0.295593 4.7187e-10)
(496.925 0.482271 8.16546e-10)
(496.814 0.29798 7.20203e-10)
(496.636 0.662928 4.17214e-10)
(496.508 0.278794 2.7843e-10)
(496.293 0.8504 4.29813e-11)
(496.142 0.258427 -2.94158e-10)
(495.901 1.01248 -4.10059e-10)
(495.714 0.302133 -2.52014e-10)
(495.47 1.04223 -1.94815e-10)
(495.216 0.51067 -1.44145e-11)
(494.996 0.914416 2.9122e-10)
(494.646 0.855095 1.61565e-10)
(494.491 0.628584 -1.27249e-10)
(493.992 1.33079 -1.21394e-10)
(493.956 0.125301 1.93098e-10)
(493.269 1.99259 3.29947e-10)
(497.413 0.0233573 -7.365e-09)
(497.399 0.161128 2.10137e-09)
(497.375 0.147805 -7.33266e-10)
(497.324 0.307592 -8.26499e-11)
(497.273 0.314026 -2.28326e-10)
(497.194 0.426441 -5.56293e-10)
(497.108 0.506003 -2.16671e-10)
(497.011 0.514824 4.73738e-10)
(496.882 0.722997 8.18461e-10)
(496.772 0.572644 7.20255e-10)
(496.599 0.960715 4.16095e-10)
(496.474 0.6062 2.77506e-10)
(496.263 1.2062 4.45856e-11)
(496.116 0.63401 -2.93948e-10)
(495.877 1.42869 -4.10206e-10)
(495.698 0.713879 -2.50771e-10)
(495.454 1.52272 -1.97558e-10)
(495.209 0.965906 -1.60773e-11)
(494.993 1.45725 2.91838e-10)
(494.653 1.34375 1.61154e-10)
(494.506 1.24779 -1.28164e-10)
(494.016 1.88202 -1.18665e-10)
(493.981 0.838962 1.93445e-10)
(493.271 2.60875 3.30922e-10)
(497.309 0.0420899 -7.36336e-09)
(497.294 0.208632 2.10546e-09)
(497.271 0.220296 -7.34271e-10)
(497.22 0.413904 -7.97044e-11)
(497.169 0.443989 -2.29078e-10)
(497.09 0.591789 -5.60443e-10)
(497.004 0.693559 -2.16413e-10)
(496.907 0.738453 4.71342e-10)
(496.778 0.968215 8.11705e-10)
(496.668 0.852956 7.23547e-10)
(496.494 1.26406 4.16844e-10)
(496.37 0.940559 2.75646e-10)
(496.158 1.56889 4.60793e-11)
(496.013 1.01821 -2.95399e-10)
(495.771 1.85358 -4.17263e-10)
(495.593 1.13536 -2.51932e-10)
(495.346 2.01715 -1.95153e-10)
(495.097 1.42643 -1.64898e-11)
(494.891 2.00941 2.94116e-10)
(494.54 1.84062 1.60556e-10)
(494.398 1.8584 -1.30936e-10)
(493.916 2.41988 -1.194e-10)
(493.886 1.52595 1.91747e-10)
(493.205 3.20558 3.21492e-10)
(497.157 0.0604195 -7.36565e-09)
(497.143 0.255151 2.11202e-09)
(497.12 0.291211 -7.30534e-10)
(497.069 0.518081 -7.98543e-11)
(497.019 0.571117 -2.25815e-10)
(496.941 0.753949 -5.54883e-10)
(496.856 0.877028 -2.1807e-10)
(496.76 0.957997 4.73663e-10)
(496.632 1.20809 8.17245e-10)
(496.524 1.12844 7.21395e-10)
(496.351 1.56085 4.16877e-10)
(496.229 1.26936 2.78417e-10)
(496.018 1.92416 4.26584e-11)
(495.876 1.39597 -2.9627e-10)
(495.634 2.27131 -4.1529e-10)
(495.461 1.55005 -2.54436e-10)
(495.21 2.5125 -1.96259e-10)
(494.967 1.86961 -1.57514e-11)
(494.764 2.55446 2.8863e-10)
(494.411 2.3385 1.6635e-10)
(494.271 2.45289 -1.23144e-10)
(493.793 2.94572 -1.16413e-10)
(493.763 2.16855 1.95404e-10)
(493.103 3.76348 3.32396e-10)
(496.957 0.0787409 -7.37893e-09)
(496.942 0.301376 2.11024e-09)
(496.92 0.361971 -7.29182e-10)
(496.869 0.621673 -8.46892e-11)
(496.819 0.69794 -2.3704e-10)
(496.742 0.915252 -5.59808e-10)
(496.658 1.06007 -2.15381e-10)
(496.561 1.17649 4.70039e-10)
(496.435 1.44739 8.1794e-10)
(496.327 1.40284 7.26731e-10)
(496.157 1.85676 4.16999e-10)
(496.035 1.59732 2.72543e-10)
(495.825 2.27781 3.98876e-11)
(495.684 1.77361 -2.93825e-10)
(495.443 2.68574 -4.18295e-10)
(495.274 1.96901 -2.5185e-10)
(495.018 3.00315 -1.85737e-10)
(494.787 2.3125 -1.29228e-11)
(494.57 3.10398 2.98438e-10)
(494.229 2.83529 1.68505e-10)
(494.084 3.04915 -1.27359e-10)
(493.611 3.47376 -1.27088e-10)
(493.575 2.81542 1.92237e-10)
(492.913 4.32042 3.32754e-10)
(496.708 0.0968847 -7.38e-09)
(496.693 0.346936 2.10751e-09)
(496.671 0.431939 -7.45471e-10)
(496.621 0.723826 -8.47517e-11)
(496.572 0.823307 -2.22446e-10)
(496.495 1.07434 -5.58722e-10)
(496.412 1.24099 -2.26461e-10)
(496.316 1.39205 4.74957e-10)
(496.192 1.68395 8.24678e-10)
(496.084 1.67374 7.21918e-10)
(495.916 2.14923 4.14051e-10)
(495.795 1.92149 2.83371e-10)
(495.587 2.62707 5.55421e-11)
(495.448 2.14762 -2.91934e-10)
(495.208 3.09408 -4.13851e-10)
(495.043 2.38631 -2.48544e-10)
(494.784 3.48278 -1.95195e-10)
(494.565 2.75719 -1.85894e-11)
(494.337 3.65139 2.92913e-10)
(494.01 3.32016 1.66045e-10)
(493.859 3.64432 -1.28759e-10)
(493.393 4.00137 -1.27125e-10)
(493.352 3.47197 1.94679e-10)
(492.692 4.88265 3.37945e-10)
(496.41 0.114891 -7.39738e-09)
(496.396 0.392031 2.11816e-09)
(496.374 0.501285 -7.25454e-10)
(496.324 0.82496 -8.14518e-11)
(496.276 0.947504 -2.35446e-10)
(496.199 1.23183 -5.55712e-10)
(496.118 1.42018 -2.0961e-10)
(496.022 1.60546 4.74148e-10)
(495.9 1.91817 8.06754e-10)
(495.793 1.94203 7.19498e-10)
(495.626 2.43877 4.24759e-10)
(495.506 2.24277 2.77564e-10)
(495.301 2.97273 2.97836e-11)
(495.163 2.51864 -3.00631e-10)
(494.924 3.49791 -4.06799e-10)
(494.763 2.80111 -2.56612e-10)
(494.503 3.95502 -1.91613e-10)
(494.292 3.19949 -2.04865e-12)
(494.059 4.19411 2.96747e-10)
(493.742 3.80052 1.51351e-10)
(493.586 4.23774 -1.28939e-10)
(493.127 4.52425 -1.10943e-10)
(493.083 4.12314 1.92294e-10)
(492.431 5.43761 3.14913e-10)
(496.065 0.132716 -7.41133e-09)
(496.051 0.43657 2.10507e-09)
(496.029 0.569847 -7.47857e-10)
(495.979 0.924865 -9.38529e-11)
(495.932 1.07024 -2.35754e-10)
(495.855 1.38738 -5.63984e-10)
(495.775 1.59719 -2.24579e-10)
(495.68 1.81621 4.71496e-10)
(495.559 2.14947 8.13734e-10)
(495.454 2.20703 7.16493e-10)
(495.289 2.72462 4.12789e-10)
(495.171 2.56027 2.75849e-10)
(494.967 3.31392 3.79619e-11)
(494.832 2.88567 -2.99442e-10)
(494.594 3.8963 -4.13514e-10)
(494.437 3.21208 -2.53521e-10)
(494.176 4.41878 -1.95925e-10)
(493.974 3.63884 -1.31224e-11)
(493.734 4.72999 2.93293e-10)
(493.43 4.27415 1.58212e-10)
(493.267 4.82867 -1.30918e-10)
(492.818 5.04246 -1.21948e-10)
(492.771 4.76985 1.94206e-10)
(492.127 5.98591 3.31465e-10)
(495.671 0.150357 -7.39766e-09)
(495.656 0.480564 2.13457e-09)
(495.635 0.637623 -7.29568e-10)
(495.585 1.02357 -7.09245e-11)
(495.539 1.19152 -2.17433e-10)
(495.463 1.54103 -5.46936e-10)
(495.384 1.77201 -2.07243e-10)
(495.29 2.02435 4.89412e-10)
(495.171 2.37781 8.32551e-10)
(495.066 2.46871 7.33317e-10)
(494.903 3.00671 4.30949e-10)
(494.787 2.87389 2.91505e-10)
(494.585 3.65052 5.62647e-11)
(494.452 3.24846 -2.86904e-10)
(494.216 4.28917 -3.99943e-10)
(494.062 3.61891 -2.42802e-10)
(493.802 4.87441 -1.82083e-10)
(493.607 4.07446 -2.14376e-12)
(493.364 5.25839 3.07172e-10)
(493.071 4.74166 1.6977e-10)
(492.902 5.41478 -1.18807e-10)
(492.464 5.55386 -1.09712e-10)
(492.413 5.41044 2.0384e-10)
(491.778 6.52588 3.40851e-10)
(495.228 0.167788 -7.42134e-09)
(495.214 0.523957 2.12414e-09)
(495.193 0.704515 -7.39782e-10)
(495.144 1.12094 -7.86442e-11)
(495.098 1.31119 -2.24509e-10)
(495.023 1.69262 -5.54993e-10)
(494.945 1.94446 -2.11921e-10)
(494.852 2.22965 4.88298e-10)
(494.734 2.60294 8.31381e-10)
(494.631 2.72677 7.31771e-10)
(494.47 3.28469 4.31112e-10)
(494.355 3.18317 2.93786e-10)
(494.155 3.98207 5.86211e-11)
(494.025 3.60643 -2.85359e-10)
(493.791 4.676 -3.95345e-10)
(493.641 4.02088 -2.36773e-10)
(493.382 5.32179 -1.74547e-10)
(493.194 4.50577 4.07991e-12)
(492.947 5.77855 3.17624e-10)
(492.666 5.20364 1.80493e-10)
(492.491 5.9933 -1.30524e-10)
(492.066 6.05631 -1.43527e-10)
(492.01 6.0455 1.74849e-10)
(491.386 7.05717 3.09949e-10)
(494.737 0.184985 -7.43307e-09)
(494.723 0.566707 2.12795e-09)
(494.702 0.770447 -7.43627e-10)
(494.653 1.21691 -8.43265e-11)
(494.608 1.42912 -2.29932e-10)
(494.534 1.84203 -5.61035e-10)
(494.457 2.11438 -2.19556e-10)
(494.365 2.43198 4.79157e-10)
(494.249 2.8247 8.22178e-10)
(494.147 2.98106 7.22525e-10)
(493.988 3.55835 4.20472e-10)
(493.876 3.48789 2.84309e-10)
(493.678 4.30828 4.73377e-11)
(493.551 3.95917 -2.95298e-10)
(493.318 5.05644 -4.1004e-10)
(493.173 4.4174 -2.50446e-10)
(492.914 5.76095 -1.91639e-10)
(492.733 4.93238 -9.2511e-12)
(492.483 6.28962 2.99172e-10)
(492.214 5.65784 1.61993e-10)
(492.035 6.56478 -1.25634e-10)
(491.621 6.55051 -1.14131e-10)
(491.562 6.67244 2.01075e-10)
(490.949 7.57902 3.36717e-10)
(494.197 0.201923 -7.44593e-09)
(494.183 0.608756 2.12879e-09)
(494.163 0.835319 -7.5045e-10)
(494.114 1.31134 -9.04982e-11)
(494.07 1.54516 -2.38627e-10)
(493.996 1.98907 -5.7349e-10)
(493.921 2.28157 -2.33572e-10)
(493.83 2.63114 4.6347e-10)
(493.716 3.04285 8.06154e-10)
(493.616 3.23133 7.04166e-10)
(493.459 3.82744 3.9414e-10)
(493.348 3.78772 2.57951e-10)
(493.152 4.62883 1.40258e-11)
(493.029 4.30625 -3.01156e-10)
(492.798 5.43002 -3.86276e-10)
(492.657 4.80776 -2.33066e-10)
(492.399 6.19177 -1.73471e-10)
(492.225 5.35396 3.18407e-12)
(491.973 6.7911 3.11734e-10)
(491.715 6.10449 1.72277e-10)
(491.531 7.12723 -1.17538e-10)
(491.131 7.03451 -1.08859e-10)
(491.068 7.29088 2.06704e-10)
(490.467 8.09099 3.40193e-10)
(493.608 0.218576 -7.4512e-09)
(493.594 0.650051 2.1546e-09)
(493.574 0.89904 -7.52288e-10)
(493.526 1.4041 -1.10034e-10)
(493.483 1.65914 -2.42046e-10)
(493.41 2.13356 -5.64829e-10)
(493.336 2.44581 -2.12012e-10)
(493.247 2.82688 5.01805e-10)
(493.134 3.25715 8.26566e-10)
(493.036 3.47732 7.05089e-10)
(492.881 4.0917 4.07141e-10)
(492.773 4.08242 2.81156e-10)
(492.579 4.94344 5.58954e-11)
(492.459 4.64732 -2.82322e-10)
(492.23 5.7964 -4.19582e-10)
(492.094 5.19146 -2.73952e-10)
(491.838 6.61384 -2.09785e-10)
(491.67 5.76991 -1.53721e-11)
(491.416 7.28245 3.06025e-10)
(491.17 6.54284 1.77919e-10)
(490.982 7.68038 -1.29961e-10)
(490.594 7.50767 -1.37565e-10)
(490.529 7.89921 1.902e-10)
(489.941 8.59253 3.37798e-10)
(492.97 0.234921 -7.47985e-09)
(492.956 0.690542 2.11777e-09)
(492.937 0.961523 -7.44567e-10)
(492.889 1.49508 -5.3631e-11)
(492.847 1.7709 -2.16828e-10)
(492.775 2.2753 -5.62307e-10)
(492.703 2.60686 -2.31634e-10)
(492.615 3.01892 4.57065e-10)
(492.504 3.46729 8.24995e-10)
(492.407 3.71874 7.47704e-10)
(492.255 4.35083 4.27946e-10)
(492.149 4.37164 2.75141e-10)
(491.958 5.25182 2.10558e-11)
(491.841 4.98203 -3.04322e-10)
(491.615 6.15523 -3.95718e-10)
(491.483 5.56804 -2.4478e-10)
(491.229 7.02671 -1.99471e-10)
(491.068 6.1795 -2.66468e-11)
(490.813 7.7631 2.65413e-10)
(490.579 6.97264 1.48711e-10)
(490.387 8.22374 -1.17076e-10)
(490.012 7.96904 -1.13182e-10)
(489.945 8.49624 1.90737e-10)
(489.37 9.08311 3.12853e-10)
(492.283 0.250937 -7.47934e-09)
(492.269 0.730184 2.17093e-09)
(492.25 1.02269 -7.52811e-10)
(492.203 1.58417 -1.13547e-10)
(492.162 1.88027 -2.44735e-10)
(492.091 2.41408 -5.63262e-10)
(492.02 2.76445 -2.03247e-10)
(491.934 3.207 5.11676e-10)
(491.825 3.67294 8.30398e-10)
(491.73 3.9552 7.0757e-10)
(491.58 4.60444 4.13757e-10)
(491.477 4.65502 2.88753e-10)
(491.289 5.5536 6.50518e-11)
(491.175 5.31002 -3.08273e-10)
(490.952 6.50621 -4.52413e-10)
(490.824 5.93706 -2.7011e-10)
(490.573 7.43003 -1.99728e-10)
(490.419 6.58191 -1.68035e-12)
(490.164 8.23226 3.21475e-10)
(489.94 7.39363 1.55148e-10)
(489.745 8.75666 -1.56137e-10)
(489.384 8.41832 -1.26271e-10)
(489.313 9.08138 2.04521e-10)
(488.753 9.56202 3.50829e-10)
(491.546 0.266603 -7.50971e-09)
(491.533 0.76893 2.13782e-09)
(491.514 1.08245 -7.72404e-10)
(491.468 1.67124 -1.17566e-10)
(491.428 1.9871 -2.34536e-10)
(491.358 2.54972 -5.37259e-10)
(491.288 2.91835 -1.9919e-10)
(491.204 3.39079 4.94593e-10)
(491.097 3.87376 8.28635e-10)
(491.005 4.18634 7.19702e-10)
(490.857 4.85212 4.0265e-10)
(490.757 4.93211 2.56998e-10)
(490.572 5.84838 4.51965e-11)
(490.462 5.63087 -2.7808e-10)
(490.241 6.84898 -4.02083e-10)
(490.118 6.29812 -2.46707e-10)
(489.869 7.82352 -1.96032e-10)
(489.722 6.97631 -1.79847e-11)
(489.467 8.68913 2.79426e-10)
(489.256 7.80545 1.31915e-10)
(489.056 9.27764 -1.67853e-10)
(488.71 8.8562 -1.22917e-10)
(488.635 9.65504 2.22874e-10)
(488.09 10.028 3.48035e-10)
(490.76 0.281894 -7.51865e-09)
(490.746 0.806728 2.16648e-09)
(490.728 1.14073 -7.40165e-10)
(490.683 1.75619 -6.31698e-11)
(490.644 2.09123 -2.11721e-10)
(490.576 2.68201 -5.4234e-10)
(490.507 3.06829 -1.91098e-10)
(490.425 3.57002 5.20228e-10)
(490.32 4.06939 8.70769e-10)
(490.23 4.41174 7.32569e-10)
(490.086 5.09344 3.86749e-10)
(489.988 5.20244 2.53382e-10)
(489.806 6.13566 1.19333e-11)
(489.7 5.94407 -3.30354e-10)
(489.483 7.1831 -4.4455e-10)
(489.365 6.65081 -2.71934e-10)
(489.118 8.20696 -2.13013e-10)
(488.978 7.36194 -2.13081e-11)
(488.724 9.13303 2.92723e-10)
(488.524 8.20783 1.60237e-10)
(488.322 9.78625 -1.24426e-10)
(487.99 9.28223 -1.08476e-10)
(487.911 10.2164 2.12191e-10)
(487.382 10.4805 3.52567e-10)
(489.924 0.296779 -7.54303e-09)
(489.91 0.843512 2.15775e-09)
(489.893 1.19741 -7.6241e-10)
(489.848 1.83886 -8.96477e-11)
(489.81 2.19248 -2.45005e-10)
(489.743 2.81073 -5.86288e-10)
(489.677 3.21404 -2.36699e-10)
(489.596 3.74439 4.7173e-10)
(489.494 4.25951 8.13949e-10)
(489.407 4.63103 7.09282e-10)
(489.265 5.32796 3.9992e-10)
(489.171 5.4655 2.57617e-10)
(488.992 6.41494 7.2951e-12)
(488.89 6.24905 -3.39131e-10)
(488.676 7.50805 -4.63023e-10)
(488.563 6.99457 -2.94862e-10)
(488.32 8.57988 -2.00321e-10)
(488.186 7.73828 1.97289e-11)
(487.934 9.56353 3.32859e-10)
(487.745 8.60034 1.86463e-10)
(487.54 10.282 -1.03748e-10)
(487.224 9.69611 -9.71249e-11)
(487.141 10.7649 2.2089e-10)
(486.628 10.919 3.57308e-10)
(489.037 0.311226 -7.57753e-09)
(489.024 0.879204 2.17395e-09)
(489.007 1.25238 -7.35057e-10)
(488.963 1.9191 -8.49605e-11)
(488.926 2.29064 -2.19768e-10)
(488.861 2.93567 -5.37832e-10)
(488.797 3.35533 -2.14736e-10)
(488.718 3.91362 4.69201e-10)
(488.618 4.44377 8.33728e-10)
(488.534 4.84385 7.49371e-10)
(488.395 5.55526 4.13835e-10)
(488.305 5.72084 2.87346e-10)
(488.13 6.6857 5.68994e-11)
(488.031 6.54525 -3.1975e-10)
(487.822 7.82325 -4.18394e-10)
(487.714 7.32876 -2.35269e-10)
(487.474 8.94174 -2.0527e-10)
(487.347 8.10479 -4.25309e-11)
(487.097 9.98022 2.83537e-10)
(486.919 8.98257 1.59428e-10)
(486.712 10.7644 -1.57258e-10)
(486.411 10.0975 -1.25076e-10)
(486.323 11.2998 2.08997e-10)
(485.827 11.3432 3.21229e-10)
(488.1 0.325195 -7.5768e-09)
(488.087 0.913716 2.19087e-09)
(488.071 1.30549 -7.3739e-10)
(488.028 1.99671 -5.06992e-11)
(487.993 2.3855 -2.02122e-10)
(487.929 3.05655 -5.76752e-10)
(487.866 3.49187 -2.60436e-10)
(487.79 4.0774 4.61888e-10)
(487.693 4.62186 8.17426e-10)
(487.611 5.04983 7.19344e-10)
(487.476 5.77496 4.14318e-10)
(487.389 5.96802 2.83235e-10)
(487.218 6.94745 4.72524e-11)
(487.124 6.8321 -2.9505e-10)
(486.918 8.12811 -4.00429e-10)
(486.816 7.65272 -2.313e-10)
(486.58 9.29196 -1.67208e-10)
(486.46 8.46075 -1.78317e-11)
(486.212 10.3827 2.55733e-10)
(486.046 9.35417 1.27008e-10)
(485.836 11.2327 -1.57754e-10)
(485.551 10.4861 -1.37668e-10)
(485.459 11.8206 1.83079e-10)
(484.981 11.7525 3.30614e-10)
(487.113 0.338644 -7.61636e-09)
(487.1 0.946954 2.14908e-09)
(487.084 1.35659 -7.63017e-10)
(487.042 2.0715 -5.0564e-11)
(487.008 2.47679 -2.26165e-10)
(486.946 3.17312 -5.78074e-10)
(486.886 3.62336 -2.36595e-10)
(486.812 4.23542 5.0725e-10)
(486.718 4.79344 8.82623e-10)
(486.639 5.24864 7.58637e-10)
(486.507 5.98669 4.295e-10)
(486.424 6.20664 2.69807e-10)
(486.257 7.19976 2.64679e-12)
(486.168 7.1091 -3.1858e-10)
(485.966 8.42209 -4.06401e-10)
(485.87 7.96578 -2.5339e-10)
(485.638 9.62989 -2.1237e-10)
(485.525 8.80536 -3.92021e-11)
(485.28 10.7707 3.01302e-10)
(485.125 9.71477 1.82515e-10)
(484.914 11.686 -1.24226e-10)
(484.644 10.8615 -1.29175e-10)
(484.549 12.3269 1.69817e-10)
(484.088 12.1466 3.35934e-10)
(486.075 0.351536 -7.63966e-09)
(486.062 0.978832 2.15604e-09)
(486.047 1.40555 -7.65631e-10)
(486.006 2.14328 -4.51528e-11)
(485.973 2.5643 -2.16799e-10)
(485.913 3.28508 -5.74085e-10)
(485.855 3.74949 -2.36507e-10)
(485.784 4.38733 4.592e-10)
(485.693 4.95815 8.35059e-10)
(485.617 5.43992 7.65244e-10)
(485.489 6.19006 4.40248e-10)
(485.41 6.43632 2.79758e-10)
(485.246 7.44222 1.25607e-11)
(485.162 7.37579 -3.10424e-10)
(484.965 8.70469 -3.97039e-10)
(484.875 8.26735 -2.49042e-10)
(484.647 9.95489 -2.07522e-10)
(484.542 9.13776 -3.01011e-11)
(484.301 11.1439 3.12441e-10)
(484.156 10.064 1.91693e-10)
(483.944 12.1234 -1.14492e-10)
(483.691 11.223 -1.20377e-10)
(483.591 12.818 1.85144e-10)
(483.149 12.5252 3.09351e-10)
(484.985 0.36384 -7.67021e-09)
(484.973 1.00928 2.20332e-09)
(484.959 1.45223 -7.42942e-10)
(484.919 2.21188 -8.88688e-11)
(484.888 2.6478 -2.73248e-10)
(484.829 3.39219 -5.91555e-10)
(484.774 3.86995 -2.10718e-10)
(484.705 4.53281 4.76984e-10)
(484.617 5.11563 8.42723e-10)
(484.545 5.62329 7.56888e-10)
(484.421 6.3847 4.1474e-10)
(484.345 6.65667 2.95079e-10)
(484.186 7.67444 7.05672e-11)
(484.107 7.63178 -3.16453e-10)
(483.915 8.9755 -4.6744e-10)
(483.83 8.55694 -2.73132e-10)
(483.608 10.2665 -1.91729e-10)
(483.51 9.45726 -2.52757e-11)
(483.273 11.5016 3.07931e-10)
(483.139 10.4011 1.78188e-10)
(482.926 12.544 -1.41218e-10)
(482.69 11.5699 -1.06535e-10)
(482.587 13.293 2.36757e-10)
(482.164 12.8876 3.43479e-10)
(483.845 0.375533 -7.66302e-09)
(483.833 1.03824 2.23479e-09)
(483.819 1.49657 -7.30061e-10)
(483.78 2.27718 -7.77344e-11)
(483.751 2.72712 -2.68767e-10)
(483.695 3.49421 -5.93306e-10)
(483.642 3.98446 -2.15882e-10)
(483.575 4.67154 5.22391e-10)
(483.491 5.26551 8.83081e-10)
(483.422 5.79836 7.37846e-10)
(483.302 6.5702 3.88166e-10)
(483.231 6.8673 2.64508e-10)
(483.077 7.89601 3.20242e-11)
(483.003 7.87666 -3.07645e-10)
(482.815 9.2341 -4.07901e-10)
(482.737 8.83412 -2.24083e-10)
(482.519 10.5641 -2.02928e-10)
(482.43 9.76334 -4.44004e-11)
(482.196 11.8435 2.81139e-10)
(482.073 10.7256 1.49891e-10)
(481.861 12.9469 -1.25383e-10)
(481.641 11.9013 -9.69508e-11)
(481.535 13.7508 2.42998e-10)
(481.131 13.2333 3.44408e-10)
(482.654 0.386599 -7.68246e-09)
(482.641 1.06568 2.21175e-09)
(482.629 1.53848 -7.92078e-10)
(482.591 2.33907 -6.60202e-11)
(482.564 2.80211 -2.42618e-10)
(482.509 3.59097 -6.00655e-10)
(482.459 4.0928 -1.99322e-10)
(482.395 4.80322 5.02564e-10)
(482.314 5.40746 8.2495e-10)
(482.249 5.96476 7.56175e-10)
(482.133 6.74615 4.2797e-10)
(482.067 7.06777 2.64923e-10)
(481.917 8.1065 5.42721e-11)
(481.848 8.11003 -3.19273e-10)
(481.666 9.4801 -4.60497e-10)
(481.594 9.09848 -2.54898e-10)
(481.381 10.8476 -2.14445e-10)
(481.3 10.0555 -3.42814e-11)
(481.071 12.169 3.10879e-10)
(480.958 11.0367 1.45173e-10)
(480.747 13.3318 -1.65642e-10)
(480.543 12.2164 -1.1683e-10)
(480.435 14.1899 1.83873e-10)
(480.052 13.5619 3.10092e-10)
(481.411 0.397028 -7.76661e-09)
(481.399 1.09157 2.19428e-09)
(481.387 1.57794 -7.9506e-10)
(481.351 2.39749 -9.57589e-11)
(481.325 2.8727 -2.43196e-10)
(481.272 3.68233 -5.7916e-10)
(481.225 4.19479 -2.1045e-10)
(481.164 4.92764 5.22318e-10)
(481.087 5.54119 8.73471e-10)
(481.025 6.12215 7.69398e-10)
(480.914 6.91214 4.63412e-10)
(480.852 7.25767 2.70917e-10)
(480.707 8.30547 2.48899e-11)
(480.644 8.33145 -3.26065e-10)
(480.466 9.71308 -4.38599e-10)
(480.401 9.34963 -2.60432e-10)
(480.194 11.1164 -1.97193e-10)
(480.121 10.3333 2.02127e-12)
(479.896 12.4778 3.23804e-10)
(479.794 11.3337 1.7577e-10)
(479.585 13.6977 -1.66306e-10)
(479.398 12.5148 -1.42364e-10)
(479.287 14.61 1.84964e-10)
(478.923 13.8732 3.26686e-10)
(480.117 0.406809 -7.75185e-09)
(480.105 1.11589 2.25482e-09)
(480.094 1.61489 -7.41003e-10)
(480.059 2.45238 -8.34318e-11)
(480.035 2.93879 -2.7823e-10)
(479.984 3.76819 -6.10896e-10)
(479.939 4.29028 -2.2765e-10)
(479.882 5.04462 5.18768e-10)
(479.808 5.66648 8.76384e-10)
(479.75 6.27024 7.8307e-10)
(479.643 7.06784 4.28897e-10)
(479.586 7.4366 2.48537e-10)
(479.446 8.49249 1.25726e-11)
(479.389 8.54045 -3.32976e-10)
(479.217 9.9326 -4.34086e-10)
(479.159 9.58712 -2.44538e-10)
(478.957 11.3702 -1.6748e-10)
(478.892 10.5964 3.9481e-11)
(478.672 12.7697 3.13189e-10)
(478.581 11.6157 1.23799e-10)
(478.374 14.0435 -1.54829e-10)
(478.204 12.7967 -1.21519e-10)
(478.09 15.0121 2.21002e-10)
(477.747 14.1678 3.75602e-10)
(478.772 0.415929 -7.76603e-09)
(478.76 1.13861 2.23042e-09)
(478.75 1.64929 -8.19768e-10)
(478.716 2.50369 -8.99493e-11)
(478.693 3.00032 -2.08443e-10)
(478.645 3.84847 -5.75589e-10)
(478.603 4.3792 -2.39513e-10)
(478.548 5.15405 5.21314e-10)
(478.478 5.78316 8.4347e-10)
(478.424 6.40885 7.07856e-10)
(478.322 7.21298 4.29699e-10)
(478.269 7.60424 3.1891e-10)
(478.135 8.66714 3.68665e-11)
(478.083 8.73658 -3.45812e-10)
(477.917 10.1382 -4.29383e-10)
(477.866 9.81047 -2.22495e-10)
(477.67 11.6086 -1.92455e-10)
(477.613 10.8443 -2.56704e-11)
(477.399 13.0444 3.2718e-10)
(477.318 11.882 1.50773e-10)
(477.114 14.3683 -1.74113e-10)
(476.961 13.0622 -1.27021e-10)
(476.844 15.3947 2.33949e-10)
(476.522 14.4437 3.49531e-10)
(477.375 0.424373 -7.85431e-09)
(477.363 1.15969 2.2117e-09)
(477.354 1.6811 -8.10809e-10)
(477.321 2.55135 -1.02949e-10)
(477.301 3.05721 -2.57211e-10)
(477.254 3.9231 -6.02552e-10)
(477.215 4.46144 -2.27459e-10)
(477.163 5.25582 5.11451e-10)
(477.097 5.89113 8.58941e-10)
(477.047 6.53783 7.46368e-10)
(476.949 7.34738 4.36717e-10)
(476.902 7.76036 3.01612e-10)
(476.773 8.82912 4.93028e-11)
(476.727 8.91948 -3.1223e-10)
(476.567 10.3293 -4.24387e-10)
(476.523 10.0192 -2.45608e-10)
(476.333 11.8311 -1.8618e-10)
(476.284 11.0766 8.30438e-12)
(476.075 13.3014 3.35101e-10)
(476.005 12.1322 1.8413e-10)
(475.805 14.6717 -1.04976e-10)
(475.668 13.3114 -1.49191e-10)
(475.549 15.756 1.7284e-10)
(475.249 14.6991 3.22706e-10)
(475.926 0.432123 -7.80803e-09)
(475.915 1.17911 2.28371e-09)
(475.907 1.71026 -7.71751e-10)
(475.875 2.59527 -6.33171e-11)
(475.856 3.10939 -2.27253e-10)
(475.812 3.99197 -5.78573e-10)
(475.776 4.53691 -2.08763e-10)
(475.727 5.34986 5.26796e-10)
(475.664 5.9903 8.68519e-10)
(475.619 6.65712 7.48522e-10)
(475.525 7.47093 4.31234e-10)
(475.483 7.90482 2.83817e-10)
(475.359 8.97821 2.34902e-11)
(475.32 9.08887 -3.37638e-10)
(475.165 10.5057 -4.6453e-10)
(475.129 10.2128 -2.92884e-10)
(474.945 12.0371 -2.38709e-10)
(474.905 11.2926 2.01806e-11)
(474.702 13.5405 3.36974e-10)
(474.642 12.3658 1.73419e-10)
(474.446 14.9531 -1.18102e-10)
(474.326 13.543 -1.10228e-10)
(474.205 16.0963 2.11899e-10)
(473.927 14.9355 3.52214e-10)
(474.426 0.439167 -7.85507e-09)
(474.415 1.19682 2.26444e-09)
(474.408 1.73672 -8.12389e-10)
(474.377 2.63541 -6.36894e-11)
(474.361 3.15676 -2.40429e-10)
(474.319 4.055 -6.06994e-10)
(474.285 4.60553 -1.96049e-10)
(474.24 5.43608 5.23114e-10)
(474.18 6.0806 8.52484e-10)
(474.139 6.76664 7.76336e-10)
(474.05 7.58358 4.3861e-10)
(474.013 8.03759 2.78102e-10)
(473.894 9.11432 6.22384e-11)
(473.861 9.24461 -3.2067e-10)
(473.712 10.6671 -4.59695e-10)
(473.683 10.3909 -2.45432e-10)
(473.505 12.2262 -2.06145e-10)
(473.474 11.4919 -2.63114e-11)
(473.278 13.7609 3.38589e-10)
(473.229 12.5822 1.62203e-10)
(473.037 15.2127 -1.58455e-10)
(472.932 13.7569 -9.87769e-11)
(472.81 16.4149 2.13322e-10)
(472.554 15.1526 3.30453e-10)
(472.875 0.445496 -7.93693e-09)
(472.864 1.21281 2.27329e-09)
(472.857 1.76045 -7.778e-10)
(472.828 2.67171 -1.04621e-10)
(472.813 3.19928 -2.34862e-10)
(472.774 4.11212 -5.61758e-10)
(472.743 4.66722 -2.3474e-10)
(472.7 5.51439 5.32417e-10)
(472.645 6.16193 9.0145e-10)
(472.607 6.86634 7.39734e-10)
(472.523 7.68526 4.46035e-10)
(472.491 8.15864 3.29648e-10)
(472.377 9.23741 2.89192e-11)
(472.35 9.38669 -3.15911e-10)
(472.208 10.8132 -4.07596e-10)
(472.186 10.5535 -2.76365e-10)
(472.015 12.398 -1.99957e-10)
(471.993 11.6738 2.18553e-11)
(471.802 13.9622 3.06233e-10)
(471.764 12.7804 1.68406e-10)
(471.578 15.4507 -1.04981e-10)
(471.488 13.9541 -1.28069e-10)
(471.365 16.7101 2.21096e-10)
(471.132 15.3488 3.78707e-10)
(471.271 0.451109 -7.93092e-09)
(471.261 1.22707 2.31982e-09)
(471.255 1.78145 -7.48932e-10)
(471.227 2.70417 -6.97095e-11)
(471.214 3.23693 -2.74384e-10)
(471.177 4.1633 -6.04828e-10)
(471.148 4.72191 -2.01973e-10)
(471.109 5.58472 5.62058e-10)
(471.058 6.23423 9.31515e-10)
(471.024 6.95613 7.75235e-10)
(470.944 7.77589 4.06692e-10)
(470.917 8.26791 2.85156e-10)
(470.809 9.34746 5.56749e-11)
(470.788 9.51514 -2.91891e-10)
(470.651 10.9443 -3.88602e-10)
(470.637 10.7004 -2.58282e-10)
(470.472 12.5525 -2.48889e-10)
(470.459 11.8381 -2.05063e-11)
(470.275 14.1439 3.21611e-10)
(470.249 12.9597 1.80954e-10)
(470.067 15.6668 -8.47801e-11)
(469.993 14.1346 -1.16719e-10)
(469.868 16.9817 1.67499e-10)
(469.658 15.5239 3.32144e-10)
(469.616 0.456015 -8.02272e-09)
(469.606 1.23964 2.25456e-09)
(469.601 1.79975 -8.36958e-10)
(469.574 2.7328 -1.19138e-10)
(469.563 3.26973 -2.75359e-10)
(469.528 4.20854 -6.27808e-10)
(469.502 4.76961 -2.48612e-10)
(469.466 5.64705 4.96528e-10)
(469.418 6.29742 8.4763e-10)
(469.389 7.03594 7.30522e-10)
(469.314 7.8554 4.07592e-10)
(469.292 8.36534 2.66013e-10)
(469.189 9.44439 7.57952e-12)
(469.174 9.62993 -3.5811e-10)
(469.043 11.0602 -4.80008e-10)
(469.037 10.8318 -2.96869e-10)
(468.878 12.6896 -2.42573e-10)
(468.874 11.9849 -3.88278e-11)
(468.696 14.3058 2.81253e-10)
(468.681 13.1197 1.266e-10)
(468.505 15.8603 -1.76374e-10)
(468.445 14.2977 -1.53287e-10)
(468.321 17.229 1.75455e-10)
(468.134 15.6775 3.21336e-10)
(467.909 0.460224 -7.99035e-09)
(467.899 1.25053 2.30294e-09)
(467.894 1.81539 -8.27568e-10)
(467.869 2.75766 -5.49097e-11)
(467.86 3.29773 -2.3614e-10)
(467.827 4.24789 -6.08936e-10)
(467.804 4.81036 -1.81154e-10)
(467.771 5.70139 5.47876e-10)
(467.727 6.3515 8.78334e-10)
(467.702 7.10571 8.07935e-10)
(467.631 7.92368 4.63819e-10)
(467.614 8.45081 2.93482e-10)
(467.517 9.52809 8.37684e-11)
(467.509 9.731 -3.07198e-10)
(467.383 11.1609 -4.46581e-10)
(467.384 10.9477 -2.84545e-10)
(467.231 12.8095 -2.50327e-10)
(467.237 12.1142 -7.33151e-13)
(467.065 14.4481 3.04469e-10)
(467.061 13.2602 1.27046e-10)
(466.891 16.0308 -1.27211e-10)
(466.846 14.4424 -1.29175e-10)
(466.723 17.451 1.76508e-10)
(466.559 15.8095 3.65811e-10)
(466.149 0.463748 -8.0172e-09)
(466.14 1.25977 2.32081e-09)
(466.136 1.82842 -8.2469e-10)
(466.112 2.77882 -4.76718e-11)
(466.104 3.32101 -2.30189e-10)
(466.074 4.28145 -6.04174e-10)
(466.054 4.84423 -1.7424e-10)
(466.024 5.74782 5.57879e-10)
(465.984 6.39651 8.88601e-10)
(465.962 7.16546 7.48474e-10)
(465.896 7.98072 4.02229e-10)
(465.885 8.52426 3.07822e-10)
(465.793 9.59842 2.74539e-11)
(465.791 9.81818 -3.61909e-10)
(465.671 11.2463 -4.34209e-10)
(465.68 11.0481 -2.72168e-10)
(465.533 12.9121 -2.37045e-10)
(465.548 12.2264 1.24948e-11)
(465.382 14.5709 3.20908e-10)
(465.389 13.3813 1.40019e-10)
(465.225 16.1789 -1.13709e-10)
(465.193 14.5673 -1.174e-10)
(465.074 17.646 1.98716e-10)
(464.932 15.9201 3.86071e-10)
(464.338 0.4666 -8.07045e-09)
(464.329 1.26738 2.37784e-09)
(464.326 1.83887 -8.01055e-10)
(464.303 2.79631 -1.06594e-10)
(464.297 3.33964 -2.31166e-10)
(464.268 4.30928 -5.48658e-10)
(464.251 4.87131 -2.01743e-10)
(464.224 5.78641 5.11178e-10)
(464.188 6.43254 8.99104e-10)
(464.17 7.21527 8.1396e-10)
(464.109 8.02654 4.52639e-10)
(464.102 8.58566 2.74247e-10)
(464.016 9.65532 4.85428e-11)
(464.02 9.89136 -2.89389e-10)
(463.907 11.3161 -4.4999e-10)
(463.923 11.1328 -2.99214e-10)
(463.783 12.9973 -2.08934e-10)
(463.806 12.3212 2.59228e-11)
(463.647 14.6745 3.23063e-10)
(463.664 13.4836 1.27788e-10)
(463.506 16.3053 -1.43769e-10)
(463.488 14.6714 -9.89215e-11)
(463.372 17.8126 2.07187e-10)
(463.254 16.0089 3.18551e-10)
(462.475 0.468782 -8.13332e-09)
(462.465 1.27338 2.3177e-09)
(462.463 1.84678 -8.38375e-10)
(462.442 2.81019 -1.21935e-10)
(462.437 3.35368 -2.9406e-10)
(462.411 4.33144 -6.59967e-10)
(462.396 4.89169 -2.08876e-10)
(462.372 5.81728 6.07283e-10)
(462.339 6.4597 9.52158e-10)
(462.326 7.25523 8.23857e-10)
(462.269 8.06122 4.82345e-10)
(462.267 8.63509 3.2356e-10)
(462.186 9.69876 5.56435e-11)
(462.197 9.95049 -3.2482e-10)
(462.089 11.3702 -4.58822e-10)
(462.113 11.2015 -2.86543e-10)
(461.979 13.0647 -2.38884e-10)
(462.012 12.3984 -3.91979e-11)
(461.859 14.7585 2.73361e-10)
(461.888 13.567 1.08836e-10)
(461.735 16.41 -1.37545e-10)
(461.731 14.7556 -6.72438e-11)
(461.618 17.9509 2.67591e-10)
(461.522 16.0753 3.95948e-10)
(460.558 0.470298 -8.1972e-09)
(460.549 1.27778 2.33605e-09)
(460.548 1.85215 -8.07788e-10)
(460.528 2.82046 -1.2967e-10)
(460.525 3.36314 -2.74711e-10)
(460.5 4.34799 -6.10727e-10)
(460.488 4.90541 -2.02152e-10)
(460.468 5.84047 5.74484e-10)
(460.438 6.47805 8.70929e-10)
(460.429 7.28546 7.69654e-10)
(460.376 8.08487 4.62236e-10)
(460.38 8.67267 2.61408e-10)
(460.304 9.72885 1.92043e-11)
(460.321 9.99562 -3.33217e-10)
(460.219 11.4086 -4.38722e-10)
(460.251 11.2541 -2.4001e-10)
(460.123 13.1141 -2.32141e-10)
(460.166 12.4577 -5.90631e-12)
(460.019 14.8225 3.41997e-10)
(460.059 13.6312 1.21994e-10)
(459.912 16.4932 -1.68737e-10)
(459.922 14.8202 -1.25135e-10)
(459.812 18.0617 2.31391e-10)
(459.737 16.12 3.84515e-10)
(458.589 0.471145 -8.16358e-09)
(458.581 1.28056 2.3706e-09)
(458.58 1.85498 -8.32082e-10)
(458.561 2.82711 -1.15059e-10)
(458.56 3.36802 -2.89698e-10)